<event>
 8    1  0.9175398E-006  0.4844435E+03  0.7546771E-02  0.1017921E+00
         21   -1    0    0  504  503  0.00000000000E+00  0.00000000000E+00  0.14491461870E+04  0.14491461870E+04  0.00000000000E+00 0.  1.
         21   -1    0    0  503  504 -0.00000000000E+00 -0.00000000000E+00 -0.40486855875E+02  0.40486855875E+02  0.00000000000E+00 0.  1.
         25    2    1    2    0    0 -0.13295165572E+03 -0.15119766176E+03  0.55031080426E+03  0.59916986904E+03  0.12500269997E+03 0.  0.
         25    2    1    2    0    0  0.13295165572E+03  0.15119766176E+03  0.85834852684E+03  0.89046317381E+03  0.12500237879E+03 0.  0.
          5    1    3    3  501    0 -0.41772642284E+02  0.16882253197E+02  0.92074162793E+02  0.10261435363E+03  0.47000000000E+01 0.  1.
         -5    1    3    3    0  501 -0.91179013431E+02 -0.16807991496E+03  0.45823664147E+03  0.49655551541E+03  0.47000000000E+01 0.  1.
          5    1    4    4  502    0  0.12715075615E+03  0.11103199507E+03  0.80881317457E+03  0.82625435556E+03  0.47000000000E+01 0. -1.
         -5    1    4    4    0  502  0.58008995649E+01  0.40165666697E+02  0.49535352271E+02  0.64208818254E+02  0.47000000000E+01 0. -1.
<mgrwt>
<rscale>  0 0.48444349E+03</rscale>
<asrwt>0</asrwt>
<pdfrwt beam="1">  1       21 0.22294553E+00 0.48444349E+03</pdfrwt>
<pdfrwt beam="2">  1       21 0.62287482E-02 0.48444349E+03</pdfrwt>
<totfact> 0.15370550E+04</totfact>
</mgrwt>
</event>
<event>
 8    1  0.9175398E-006  0.3310301E+03  0.7546771E-02  0.1070682E+00
         21   -1    0    0  504  503  0.00000000000E+00  0.00000000000E+00  0.10151512212E+03  0.10151512212E+03  0.00000000000E+00 0.  1.
         21   -1    0    0  503  504 -0.00000000000E+00 -0.00000000000E+00 -0.26986357900E+03  0.26986357900E+03  0.00000000000E+00 0.  1.
         25    2    1    2    0    0  0.20098455617E+02 -0.94034310555E+02 -0.27811184724E+02  0.16013672552E+03  0.12499563747E+03 0.  0.
         25    2    1    2    0    0 -0.20098455617E+02  0.94034310555E+02 -0.14053727216E+03  0.21124197560E+03  0.12500419156E+03 0.  0.
          5    1    3    3  501    0  0.32951059474E+02 -0.99581576238E+02 -0.62670950019E+02  0.12227837349E+03  0.47000000000E+01 0.  1.
         -5    1    3    3    0  501 -0.12852603857E+02  0.55472656830E+01  0.34859765295E+02  0.37858352036E+02  0.47000000000E+01 0.  1.
          5    1    4    4  502    0  0.33982732722E+02  0.85214875957E+02 -0.12299932594E+03  0.15351653132E+03  0.47000000000E+01 0.  1.
         -5    1    4    4    0  502 -0.54081188340E+02  0.88194345976E+01 -0.17537946220E+02  0.57725444273E+02  0.47000000000E+01 0.  1.
<mgrwt>
<rscale>  0 0.33103011E+03</rscale>
<asrwt>0</asrwt>
<pdfrwt beam="1">  1       21 0.15617711E-01 0.33103011E+03</pdfrwt>
<pdfrwt beam="2">  1       21 0.41517473E-01 0.33103011E+03</pdfrwt>
<totfact> 0.19641894E+05</totfact>
</mgrwt>
</event>
<event>
 8    1  0.9175398E-006  0.2794364E+03  0.7546771E-02  0.1095997E+00
         21   -1    0    0  504  503  0.00000000000E+00  0.00000000000E+00  0.32510037117E+02  0.32510037117E+02  0.00000000000E+00 0.  1.
         21   -1    0    0  503  504 -0.00000000000E+00 -0.00000000000E+00 -0.60046612426E+03  0.60046612426E+03  0.00000000000E+00 0.  1.
         25    2    1    2    0    0  0.40612831917E+02 -0.24981344422E+01 -0.39118397212E+03  0.41268185785E+03  0.12500309184E+03 0.  0.
         25    2    1    2    0    0 -0.40612831917E+02  0.24981344422E+01 -0.17677211503E+03  0.22029430353E+03  0.12500222687E+03 0.  0.
          5    1    3    3  501    0 -0.17901061824E+02 -0.40477225269E+02 -0.63018410494E+02  0.77150916010E+02  0.47000000000E+01 0. -1.
         -5    1    3    3    0  501  0.58513893741E+02  0.37979090827E+02 -0.32816556162E+03  0.33553094184E+03  0.47000000000E+01 0. -1.
          5    1    4    4  502    0 -0.57487572773E+02  0.41139870977E+02 -0.15942454521E+03  0.17445797666E+03  0.47000000000E+01 0.  1.
         -5    1    4    4    0  502  0.16874740856E+02 -0.38641736535E+02 -0.17347569825E+02  0.45836326862E+02  0.47000000000E+01 0.  1.
<mgrwt>
<rscale>  0 0.27943640E+03</rscale>
<asrwt>0</asrwt>
<pdfrwt beam="1">  1       21 0.50015439E-02 0.27943640E+03</pdfrwt>
<pdfrwt beam="2">  1       21 0.92379408E-01 0.27943640E+03</pdfrwt>
<totfact> 0.25945829E+05</totfact>
</mgrwt>
</event>
<event>
 8    1  0.9175398E-006  0.3106356E+03  0.7546771E-02  0.1080042E+00
         21   -1    0    0  504  503  0.00000000000E+00  0.00000000000E+00  0.11100377171E+04  0.11100377171E+04  0.00000000000E+00 0.  1.
         21   -1    0    0  503  504 -0.00000000000E+00 -0.00000000000E+00 -0.21732247020E+02  0.21732247020E+02  0.00000000000E+00 0.  1.
         25    2    1    2    0    0 -0.79652717166E+02  0.45346561122E+02  0.50808635167E+03  0.53120346186E+03  0.12499804472E+03 0.  0.
         25    2    1    2    0    0  0.79652717166E+02 -0.45346561122E+02  0.58021911840E+03  0.60056650225E+03  0.12500012923E+03 0.  0.
          5    1    3    3  501    0 -0.10697138623E+03  0.72048220938E+01  0.37261049546E+03  0.38775695772E+03  0.47000000000E+01 0. -1.
         -5    1    3    3    0  501  0.27318669060E+02  0.38141739028E+02  0.13547585621E+03  0.14344650414E+03  0.47000000000E+01 0. -1.
          5    1    4    4  502    0  0.45693124441E+02 -0.64183613757E+02  0.53493567414E+03  0.54072697673E+03  0.47000000000E+01 0.  1.
         -5    1    4    4    0  502  0.33959592725E+02  0.18837052635E+02  0.45283444259E+02  0.59839525516E+02  0.47000000000E+01 0.  1.
<mgrwt>
<rscale>  0 0.31063557E+03</rscale>
<asrwt>0</asrwt>
<pdfrwt beam="1">  1       21 0.17077499E+00 0.31063557E+03</pdfrwt>
<pdfrwt beam="2">  1       21 0.33434235E-02 0.31063557E+03</pdfrwt>
<totfact> 0.10597347E+05</totfact>
</mgrwt>
</event>
<event>
 8    1  0.9175398E-006  0.3020016E+03  0.7546771E-02  0.1084244E+00
         21   -1    0    0  504  503  0.00000000000E+00  0.00000000000E+00  0.55188814794E+02  0.55188814794E+02  0.00000000000E+00 0. -1.
         21   -1    0    0  503  504 -0.00000000000E+00 -0.00000000000E+00 -0.41314958778E+03  0.41314958778E+03  0.00000000000E+00 0. -1.
         25    2    1    2    0    0  0.56371036795E+02  0.18971833042E+01 -0.80957302866E+02  0.15924805572E+03  0.12499826107E+03 0.  0.
         25    2    1    2    0    0 -0.56371036795E+02 -0.18971833042E+01 -0.27700347012E+03  0.30909034685E+03  0.12499850785E+03 0.  0.
          5    1    3    3  501    0  0.22060803650E+02 -0.61087206509E+02 -0.34907316593E+02  0.73884616859E+02  0.47000000000E+01 0.  1.
         -5    1    3    3    0  501  0.34310233145E+02  0.62984389813E+02 -0.46049986274E+02  0.85363438862E+02  0.47000000000E+01 0.  1.
          5    1    4    4  502    0 -0.77495376076E+02 -0.12929231457E+02 -0.27343707868E+03  0.28453931949E+03  0.47000000000E+01 0. -1.
         -5    1    4    4    0  502  0.21124339281E+02  0.11032048153E+02 -0.35663914370E+01  0.24551027359E+02  0.47000000000E+01 0. -1.
<mgrwt>
<rscale>  0 0.30200156E+03</rscale>
<asrwt>0</asrwt>
<pdfrwt beam="1">  1       21 0.84905870E-02 0.30200156E+03</pdfrwt>
<pdfrwt beam="2">  1       21 0.63561474E-01 0.30200156E+03</pdfrwt>
<totfact> 0.24056289E+05</totfact>
</mgrwt>
</event>
<event>
 8    1  0.9175398E-006  0.3966139E+03  0.7546771E-02  0.1044959E+00
         21   -1    0    0  504  503  0.00000000000E+00  0.00000000000E+00  0.43730524390E+03  0.43730524390E+03  0.00000000000E+00 0.  1.
         21   -1    0    0  503  504 -0.00000000000E+00 -0.00000000000E+00 -0.89927231251E+02  0.89927231251E+02  0.00000000000E+00 0.  1.
         25    2    1    2    0    0 -0.10411662217E+03  0.70123117346E+02  0.55214670406E+02  0.18555790480E+03  0.12500221441E+03 0.  0.
         25    2    1    2    0    0  0.10411662217E+03 -0.70123117346E+02  0.29216334225E+03  0.34167457035E+03  0.12499828348E+03 0.  0.
          5    1    3    3  501    0 -0.78813126184E+02 -0.19994168503E+02  0.11892297077E+02  0.82309126850E+02  0.47000000000E+01 0. -1.
         -5    1    3    3    0  501 -0.25303495985E+02  0.90117285849E+02  0.43322373329E+02  0.10324877795E+03  0.47000000000E+01 0. -1.
          5    1    4    4  502    0  0.45131599183E+02 -0.16176039664E+02  0.24296675528E+03  0.24769630533E+03  0.47000000000E+01 0. -1.
         -5    1    4    4    0  502  0.58985022986E+02 -0.53947077683E+02  0.49196586972E+02  0.93978265024E+02  0.47000000000E+01 0. -1.
<mgrwt>
<rscale>  0 0.39661392E+03</rscale>
<asrwt>0</asrwt>
<pdfrwt beam="1">  1       21 0.67277729E-01 0.39661392E+03</pdfrwt>
<pdfrwt beam="2">  1       21 0.13834959E-01 0.39661392E+03</pdfrwt>
<totfact> 0.86282354E+04</totfact>
</mgrwt>
</event>
<event>
 8    1  0.9175398E-006  0.5553700E+03  0.7546771E-02  0.1000259E+00
         21   -1    0    0  504  503  0.00000000000E+00  0.00000000000E+00  0.11454833951E+04  0.11454833951E+04  0.00000000000E+00 0.  1.
         21   -1    0    0  503  504 -0.00000000000E+00 -0.00000000000E+00 -0.67315637985E+02  0.67315637985E+02  0.00000000000E+00 0.  1.
         25    2    1    2    0    0 -0.20503505343E+03 -0.12445295667E+03  0.40170881944E+03  0.48427314544E+03  0.12499036850E+03 0.  0.
         25    2    1    2    0    0  0.20503505343E+03  0.12445295667E+03  0.67645893768E+03  0.72852588765E+03  0.12500145223E+03 0.  0.
          5    1    3    3  501    0 -0.21038856089E+03 -0.98636391821E+02  0.30226170353E+03  0.38128298122E+03  0.47000000000E+01 0.  1.
         -5    1    3    3    0  501  0.53535074639E+01 -0.25816564846E+02  0.99447115913E+02  0.10299016422E+03  0.47000000000E+01 0.  1.
          5    1    4    4  502    0 -0.11984459708E+02 -0.50392249369E+01  0.72546379815E+02  0.73851799482E+02  0.47000000000E+01 0. -1.
         -5    1    4    4    0  502  0.21701951314E+03  0.12949218160E+03  0.60391255786E+03  0.65467408817E+03  0.47000000000E+01 0. -1.
<mgrwt>
<rscale>  0 0.55536995E+03</rscale>
<asrwt>0</asrwt>
<pdfrwt beam="1">  1       21 0.17622820E+00 0.55536995E+03</pdfrwt>
<pdfrwt beam="2">  1       21 0.10356253E-01 0.55536995E+03</pdfrwt>
<totfact> 0.12583952E+04</totfact>
</mgrwt>
</event>
<event>
 8    1  0.9175398E-006  0.3030351E+03  0.7546771E-02  0.1083733E+00
         21   -1    0    0  504  503  0.00000000000E+00  0.00000000000E+00  0.36830493553E+04  0.36830493553E+04  0.00000000000E+00 0. -1.
         21   -1    0    0  503  504 -0.00000000000E+00 -0.00000000000E+00 -0.62333049029E+01  0.62333049029E+01  0.00000000000E+00 0. -1.
         25    2    1    2    0    0  0.21537311662E+02 -0.68705814271E+02  0.24027958146E+04  0.24071221346E+04  0.12499959793E+03 0.  0.
         25    2    1    2    0    0 -0.21537311662E+02  0.68705814271E+02  0.12740202358E+04  0.12821605256E+04  0.12499482990E+03 0.  0.
          5    1    3    3  501    0 -0.33157483778E+02 -0.17450792850E+01  0.14531912499E+04  0.14535781241E+04  0.47000000000E+01 0.  1.
         -5    1    3    3    0  501  0.54694795439E+02 -0.66960734986E+02  0.94960456474E+03  0.95354401055E+03  0.47000000000E+01 0.  1.
          5    1    4    4  502    0  0.21092136841E+02 -0.96779286563E+01  0.76441944928E+03  0.76478606484E+03  0.47000000000E+01 0. -1.
         -5    1    4    4    0  502 -0.42629448502E+02  0.78383742927E+02  0.50960078649E+03  0.51737446074E+03  0.47000000000E+01 0. -1.
<mgrwt>
<rscale>  0 0.30303511E+03</rscale>
<asrwt>0</asrwt>
<pdfrwt beam="1">  1       21 0.56662124E+00 0.30303511E+03</pdfrwt>
<pdfrwt beam="2">  1       21 0.95897293E-03 0.30303511E+03</pdfrwt>
<totfact> 0.21818844E+03</totfact>
</mgrwt>
</event>
<event>
 8    1  0.9175398E-006  0.3048673E+03  0.7546771E-02  0.1082833E+00
         21   -1    0    0  504  503  0.00000000000E+00  0.00000000000E+00  0.29110397763E+02  0.29110397763E+02  0.00000000000E+00 0. -1.
         21   -1    0    0  503  504 -0.00000000000E+00 -0.00000000000E+00 -0.79820323295E+03  0.79820323295E+03  0.00000000000E+00 0. -1.
         25    2    1    2    0    0  0.25005894813E+02  0.82924008225E+02 -0.41289341421E+03  0.44000966395E+03  0.12500338779E+03 0.  0.
         25    2    1    2    0    0 -0.25005894813E+02 -0.82924008225E+02 -0.35619942098E+03  0.38730396676E+03  0.12499859698E+03 0.  0.
          5    1    3    3  501    0 -0.11575162502E+02  0.94927288142E+02 -0.36997012783E+03  0.38215855336E+03  0.47000000000E+01 0.  1.
         -5    1    3    3    0  501  0.36581057315E+02 -0.12003279917E+02 -0.42923286377E+02  0.57851110590E+02  0.47000000000E+01 0.  1.
          5    1    4    4  502    0  0.50210518944E+02 -0.38387802978E+02 -0.17355036863E+03  0.18476076445E+03  0.47000000000E+01 0. -1.
         -5    1    4    4    0  502 -0.75216413757E+02 -0.44536205248E+02 -0.18264905235E+03  0.20254320231E+03  0.47000000000E+01 0. -1.
<mgrwt>
<rscale>  0 0.30486727E+03</rscale>
<asrwt>0</asrwt>
<pdfrwt beam="1">  1       21 0.44785226E-02 0.30486727E+03</pdfrwt>
<pdfrwt beam="2">  1       21 0.12280050E+00 0.30486727E+03</pdfrwt>
<totfact> 0.15558002E+05</totfact>
</mgrwt>
</event>
<event>
 8    1  0.9175398E-006  0.2763708E+03  0.7546771E-02  0.1097688E+00
         21   -1    0    0  504  503  0.00000000000E+00  0.00000000000E+00  0.16556443749E+03  0.16556443749E+03  0.00000000000E+00 0.  1.
         21   -1    0    0  503  504 -0.00000000000E+00 -0.00000000000E+00 -0.11533401292E+03  0.11533401292E+03  0.00000000000E+00 0.  1.
         25    2    1    2    0    0 -0.47632488331E+02  0.25258468468E+02  0.10665802354E+01  0.13613568277E+03  0.12499976943E+03 0.  0.
         25    2    1    2    0    0  0.47632488331E+02 -0.25258468468E+02  0.49163844334E+02  0.14476276763E+03  0.12502932108E+03 0.  0.
          5    1    3    3  501    0  0.10105530943E+02 -0.40463418076E+02 -0.19294566063E+02  0.46192859162E+02  0.47000000000E+01 0.  1.
         -5    1    3    3    0  501 -0.57738019274E+02  0.65721886544E+02  0.20361146298E+02  0.89942823611E+02  0.47000000000E+01 0.  1.
          5    1    4    4  502    0  0.63678609566E+02 -0.42083689408E+02 -0.13594078157E+02  0.77671688480E+02  0.47000000000E+01 0.  1.
         -5    1    4    4    0  502 -0.16046121235E+02  0.16825220940E+02  0.62757922491E+02  0.67091079152E+02  0.47000000000E+01 0.  1.
<mgrwt>
<rscale>  0 0.27637084E+03</rscale>
<asrwt>0</asrwt>
<pdfrwt beam="1">  1       21 0.25471452E-01 0.27637084E+03</pdfrwt>
<pdfrwt beam="2">  1       21 0.17743694E-01 0.27637084E+03</pdfrwt>
<totfact> 0.41415113E+05</totfact>
</mgrwt>
</event>
<event>
 8    1  0.9175398E-006  0.2766387E+03  0.7546771E-02  0.1097539E+00
         21   -1    0    0  504  503  0.00000000000E+00  0.00000000000E+00  0.17852179833E+02  0.17852179833E+02  0.00000000000E+00 0.  1.
         21   -1    0    0  503  504 -0.00000000000E+00 -0.00000000000E+00 -0.10717037142E+04  0.10717037142E+04  0.00000000000E+00 0.  1.
         25    2    1    2    0    0 -0.57025463653E+02  0.21271880665E+01 -0.58929103452E+03  0.60509933589E+03  0.12499941799E+03 0.  0.
         25    2    1    2    0    0  0.57025463653E+02 -0.21271880665E+01 -0.46456049985E+03  0.48445655814E+03  0.12500108109E+03 0.  0.
          5    1    3    3  501    0 -0.55065062497E+02 -0.53616366677E+02 -0.41361036504E+03  0.42071665043E+03  0.47000000000E+01 0.  1.
         -5    1    3    3    0  501 -0.19604011560E+01  0.55743554743E+02 -0.17568066948E+03  0.18438268546E+03  0.47000000000E+01 0.  1.
          5    1    4    4  502    0 -0.17437921109E+01 -0.32949511140E+02 -0.35296824208E+03  0.35453826452E+03  0.47000000000E+01 0. -1.
         -5    1    4    4    0  502  0.58769255764E+02  0.30822323074E+02 -0.11159225777E+03  0.12991829362E+03  0.47000000000E+01 0. -1.
<mgrwt>
<rscale>  0 0.27663874E+03</rscale>
<asrwt>0</asrwt>
<pdfrwt beam="1">  1       21 0.27464898E-02 0.27663874E+03</pdfrwt>
<pdfrwt beam="2">  1       21 0.16487746E+00 0.27663874E+03</pdfrwt>
<totfact> 0.16421540E+05</totfact>
</mgrwt>
</event>
<event>
 8    1  0.9175398E-006  0.4735443E+03  0.7546771E-02  0.1020925E+00
         21   -1    0    0  504  503  0.00000000000E+00  0.00000000000E+00  0.34336044132E+03  0.34336044132E+03  0.00000000000E+00 0.  1.
         21   -1    0    0  503  504 -0.00000000000E+00 -0.00000000000E+00 -0.16327170122E+03  0.16327170122E+03  0.00000000000E+00 0.  1.
         25    2    1    2    0    0  0.15985218924E+03 -0.98464123178E+02  0.16710834168E+03  0.28071038306E+03  0.12500086136E+03 0.  0.
         25    2    1    2    0    0 -0.15985218924E+03  0.98464123178E+02  0.12980398417E+02  0.22592175948E+03  0.12499697879E+03 0.  0.
          5    1    3    3  501    0  0.30589912804E+02 -0.70620736389E+02  0.14020159835E+02  0.78368910004E+02  0.47000000000E+01 0. -1.
         -5    1    3    3    0  501  0.12926227644E+03 -0.27843386790E+02  0.15308818184E+03  0.20234147306E+03  0.47000000000E+01 0. -1.
          5    1    4    4  502    0 -0.12158323056E+03  0.91387436733E+02 -0.42494977465E+02  0.15799385639E+03  0.47000000000E+01 0.  1.
         -5    1    4    4    0  502 -0.38268958680E+02  0.70766864453E+01  0.55475375882E+02  0.67927903094E+02  0.47000000000E+01 0.  1.
<mgrwt>
<rscale>  0 0.47354427E+03</rscale>
<asrwt>0</asrwt>
<pdfrwt beam="1">  1       21 0.52824683E-01 0.47354427E+03</pdfrwt>
<pdfrwt beam="2">  1       21 0.25118723E-01 0.47354427E+03</pdfrwt>
<totfact> 0.46645592E+04</totfact>
</mgrwt>
</event>
<event>
 8    1  0.9175398E-006  0.3252351E+03  0.7546771E-02  0.1073265E+00
         21   -1    0    0  504  503  0.00000000000E+00  0.00000000000E+00  0.10926039685E+03  0.10926039685E+03  0.00000000000E+00 0. -1.
         21   -1    0    0  503  504 -0.00000000000E+00 -0.00000000000E+00 -0.24203165221E+03  0.24203165221E+03  0.00000000000E+00 0. -1.
         25    2    1    2    0    0  0.53925750955E+02  0.78231554245E+02 -0.20656440987E+02  0.15836088270E+03  0.12499327150E+03 0.  0.
         25    2    1    2    0    0 -0.53925750955E+02 -0.78231554245E+02 -0.11211481437E+03  0.19293116636E+03  0.12499816261E+03 0.  0.
          5    1    3    3  501    0  0.69733668360E+02  0.15883947359E+01  0.16153433402E+02  0.71751870439E+02  0.47000000000E+01 0.  1.
         -5    1    3    3    0  501 -0.15807917405E+02  0.76643159509E+02 -0.36809874389E+02  0.86609012260E+02  0.47000000000E+01 0.  1.
          5    1    4    4  502    0 -0.42123368459E+02 -0.91346882743E+02 -0.13194007932E+03  0.16597863022E+03  0.47000000000E+01 0.  1.
         -5    1    4    4    0  502 -0.11802382495E+02  0.13115328499E+02  0.19825264952E+02  0.26952536144E+02  0.47000000000E+01 0.  1.
<mgrwt>
<rscale>  0 0.32523514E+03</rscale>
<asrwt>0</asrwt>
<pdfrwt beam="1">  1       21 0.16809292E-01 0.32523514E+03</pdfrwt>
<pdfrwt beam="2">  1       21 0.37235639E-01 0.32523514E+03</pdfrwt>
<totfact> 0.21426556E+05</totfact>
</mgrwt>
</event>
<event>
 8    1  0.9175398E-006  0.3263773E+03  0.7546771E-02  0.1072751E+00
         21   -1    0    0  504  503  0.00000000000E+00  0.00000000000E+00  0.14238921319E+04  0.14238921319E+04  0.00000000000E+00 0.  1.
         21   -1    0    0  503  504 -0.00000000000E+00 -0.00000000000E+00 -0.18702633244E+02  0.18702633244E+02  0.00000000000E+00 0.  1.
         25    2    1    2    0    0  0.74564540554E+02 -0.23536616231E+02  0.10117268995E+04  0.10224152952E+04  0.12501149418E+03 0.  0.
         25    2    1    2    0    0 -0.74564540554E+02  0.23536616231E+02  0.39346259917E+03  0.42017946996E+03  0.12499650801E+03 0.  0.
          5    1    3    3  501    0  0.43036420565E+02 -0.15253152424E+02  0.95997736112E+03  0.96107409497E+03  0.47000000000E+01 0. -1.
         -5    1    3    3    0  501  0.31528119989E+02 -0.82834638068E+01  0.51749538331E+02  0.61341200185E+02  0.47000000000E+01 0. -1.
          5    1    4    4  502    0 -0.51718085410E+02  0.23244844583E+02  0.39274177046E+03  0.39684162007E+03  0.47000000000E+01 0.  1.
         -5    1    4    4    0  502 -0.22846455144E+02  0.29177164777E+00  0.72082871496E+00  0.23337849888E+02  0.47000000000E+01 0.  1.
<mgrwt>
<rscale>  0 0.32637728E+03</rscale>
<asrwt>0</asrwt>
<pdfrwt beam="1">  1       21 0.21906024E+00 0.32637728E+03</pdfrwt>
<pdfrwt beam="2">  1       21 0.28773293E-02 0.32637728E+03</pdfrwt>
<totfact> 0.64436071E+04</totfact>
</mgrwt>
</event>
<event>
 8    1  0.9175398E-006  0.2831094E+03  0.7546771E-02  0.1094003E+00
         21   -1    0    0  504  503  0.00000000000E+00  0.00000000000E+00  0.34760939866E+02  0.34760939866E+02  0.00000000000E+00 0.  1.
         21   -1    0    0  503  504 -0.00000000000E+00 -0.00000000000E+00 -0.57644413362E+03  0.57644413362E+03  0.00000000000E+00 0.  1.
         25    2    1    2    0    0  0.23981339827E+02  0.20976843643E+02 -0.39667111410E+03  0.41712025901E+03  0.12500482026E+03 0.  0.
         25    2    1    2    0    0 -0.23981339827E+02 -0.20976843643E+02 -0.14501207965E+03  0.19408481447E+03  0.12500111733E+03 0.  0.
          5    1    3    3  501    0 -0.61959329417E+01 -0.50519904450E+02 -0.16692829872E+03  0.17457891409E+03  0.47000000000E+01 0. -1.
         -5    1    3    3    0  501  0.30177272769E+02  0.71496748093E+02 -0.22974281537E+03  0.24254134492E+03  0.47000000000E+01 0. -1.
          5    1    4    4  502    0 -0.14426392542E+02 -0.24271557560E+01  0.21377149167E+02  0.26326496032E+02  0.47000000000E+01 0. -1.
         -5    1    4    4    0  502 -0.95549472852E+01 -0.18549687887E+02 -0.16638922882E+03  0.16775831844E+03  0.47000000000E+01 0. -1.
<mgrwt>
<rscale>  0 0.28310945E+03</rscale>
<asrwt>0</asrwt>
<pdfrwt beam="1">  1       21 0.53478374E-02 0.28310945E+03</pdfrwt>
<pdfrwt beam="2">  1       21 0.88683704E-01 0.28310945E+03</pdfrwt>
<totfact> 0.25435225E+05</totfact>
</mgrwt>
</event>
<event>
 8    1  0.9175398E-006  0.2816925E+03  0.7546771E-02  0.1094768E+00
         21   -1    0    0  504  503  0.00000000000E+00  0.00000000000E+00  0.13817767860E+03  0.13817767860E+03  0.00000000000E+00 0.  1.
         21   -1    0    0  503  504 -0.00000000000E+00 -0.00000000000E+00 -0.14356631363E+03  0.14356631363E+03  0.00000000000E+00 0.  1.
         25    2    1    2    0    0 -0.55011612263E+02 -0.33596100318E+01 -0.36989478265E+02  0.14152567818E+03  0.12499492638E+03 0.  0.
         25    2    1    2    0    0  0.55011612263E+02  0.33596100318E+01  0.31600843237E+02  0.14021831404E+03  0.12499999135E+03 0.  0.
          5    1    3    3  501    0 -0.68013006627E+02 -0.52054569062E+02 -0.27044880378E+02  0.89938661238E+02  0.47000000000E+01 0.  1.
         -5    1    3    3    0  501  0.13001394363E+02  0.48694959030E+02 -0.99445978867E+01  0.51587016947E+02  0.47000000000E+01 0.  1.
          5    1    4    4  502    0  0.68127373632E+02  0.50862527089E+02  0.31280724407E+02  0.90713336502E+02  0.47000000000E+01 0. -1.
         -5    1    4    4    0  502 -0.13115761369E+02 -0.47502917057E+02  0.32011882962E+00  0.49504977541E+02  0.47000000000E+01 0. -1.
<mgrwt>
<rscale>  0 0.28169246E+03</rscale>
<asrwt>0</asrwt>
<pdfrwt beam="1">  1       21 0.21258104E-01 0.28169246E+03</pdfrwt>
<pdfrwt beam="2">  1       21 0.22087125E-01 0.28169246E+03</pdfrwt>
<totfact> 0.38717301E+05</totfact>
</mgrwt>
</event>
<event>
 8    1  0.9175398E-006  0.3256672E+03  0.7546771E-02  0.1073070E+00
         21   -1    0    0  504  503  0.00000000000E+00  0.00000000000E+00  0.46715720693E+02  0.46715720693E+02  0.00000000000E+00 0. -1.
         21   -1    0    0  503  504 -0.00000000000E+00 -0.00000000000E+00 -0.56757725246E+03  0.56757725246E+03  0.00000000000E+00 0. -1.
         25    2    1    2    0    0 -0.81099255085E+02 -0.65396721607E+02 -0.27199964058E+03  0.31695536646E+03  0.12499231768E+03 0.  0.
         25    2    1    2    0    0  0.81099255085E+02  0.65396721607E+02 -0.24886189119E+03  0.29733760670E+03  0.12499436426E+03 0.  0.
          5    1    3    3  501    0 -0.50290422701E+02  0.21142076441E+02 -0.41267316989E+02  0.68565264261E+02  0.47000000000E+01 0. -1.
         -5    1    3    3    0  501 -0.30808832384E+02 -0.86538798047E+02 -0.23073232359E+03  0.24839010220E+03  0.47000000000E+01 0. -1.
          5    1    4    4  502    0  0.86876263622E+02  0.49191135728E+02 -0.25844027639E+03  0.27709334073E+03  0.47000000000E+01 0.  1.
         -5    1    4    4    0  502 -0.57770085371E+01  0.16205585879E+02  0.95783852049E+01  0.20244265964E+02  0.47000000000E+01 0.  1.
<mgrwt>
<rscale>  0 0.32566719E+03</rscale>
<asrwt>0</asrwt>
<pdfrwt beam="1">  1       21 0.71870342E-02 0.32566719E+03</pdfrwt>
<pdfrwt beam="2">  1       21 0.87319574E-01 0.32566719E+03</pdfrwt>
<totfact> 0.15645356E+05</totfact>
</mgrwt>
</event>
<event>
 8    1  0.9175398E-006  0.2905657E+03  0.7546771E-02  0.1090054E+00
         21   -1    0    0  504  503  0.00000000000E+00  0.00000000000E+00  0.12272264878E+03  0.12272264878E+03  0.00000000000E+00 0.  1.
         21   -1    0    0  503  504 -0.00000000000E+00 -0.00000000000E+00 -0.17199027243E+03  0.17199027243E+03  0.00000000000E+00 0.  1.
         25    2    1    2    0    0 -0.61756412596E+02  0.39004526653E+02 -0.37024722021E+02  0.14942405521E+03  0.12498604177E+03 0.  0.
         25    2    1    2    0    0  0.61756412596E+02 -0.39004526653E+02 -0.12242901630E+02  0.14528886601E+03  0.12499503330E+03 0.  0.
          5    1    3    3  501    0  0.21204239937E+02  0.48137737556E+02  0.96458577746E+01  0.53684207553E+02  0.47000000000E+01 0. -1.
         -5    1    3    3    0  501 -0.82960652533E+02 -0.91332109035E+01 -0.46670579795E+02  0.95739847653E+02  0.47000000000E+01 0. -1.
          5    1    4    4  502    0  0.90597628456E+02 -0.22146974017E+02 -0.40011784409E+02  0.10159454528E+03  0.47000000000E+01 0. -1.
         -5    1    4    4    0  502 -0.28841215860E+02 -0.16857552636E+02  0.27768882779E+02  0.43694320729E+02  0.47000000000E+01 0. -1.
<mgrwt>
<rscale>  0 0.29056567E+03</rscale>
<asrwt>0</asrwt>
<pdfrwt beam="1">  1       21 0.18880408E-01 0.29056567E+03</pdfrwt>
<pdfrwt beam="2">  1       21 0.26460042E-01 0.29056567E+03</pdfrwt>
<totfact> 0.34170717E+05</totfact>
</mgrwt>
</event>
<event>
 8    1  0.9175398E-006  0.2942268E+03  0.7546771E-02  0.1088163E+00
         21   -1    0    0  504  503  0.00000000000E+00  0.00000000000E+00  0.22481614877E+03  0.22481614877E+03  0.00000000000E+00 0. -1.
         21   -1    0    0  503  504 -0.00000000000E+00 -0.00000000000E+00 -0.96266924768E+02  0.96266924768E+02  0.00000000000E+00 0. -1.
         25    2    1    2    0    0  0.48862844183E+02 -0.51556555622E+01 -0.12328246977E+01  0.13431452015E+03  0.12499884855E+03 0.  0.
         25    2    1    2    0    0 -0.48862844183E+02  0.51556555622E+01  0.12978204870E+03  0.18676855339E+03  0.12499981618E+03 0.  0.
          5    1    3    3  501    0 -0.26188177419E+01 -0.24454460465E+02 -0.53022284478E+02  0.58637287576E+02  0.47000000000E+01 0. -1.
         -5    1    3    3    0  501  0.51481661925E+02  0.19298804903E+02  0.51789459780E+02  0.75677232571E+02  0.47000000000E+01 0. -1.
          5    1    4    4  502    0 -0.82723370431E+02 -0.10205575049E+02  0.12304100811E+03  0.14868923785E+03  0.47000000000E+01 0. -1.
         -5    1    4    4    0  502  0.33860526248E+02  0.15361230611E+02  0.67410405953E+01  0.38079315539E+02  0.47000000000E+01 0. -1.
<mgrwt>
<rscale>  0 0.29422685E+03</rscale>
<asrwt>0</asrwt>
<pdfrwt beam="1">  1       21 0.34587100E-01 0.29422685E+03</pdfrwt>
<pdfrwt beam="2">  1       21 0.14810296E-01 0.29422685E+03</pdfrwt>
<totfact> 0.31605689E+05</totfact>
</mgrwt>
</event>
<event>
 8    1  0.9175398E-006  0.3169762E+03  0.7546771E-02  0.1077049E+00
         21   -1    0    0  504  503  0.00000000000E+00  0.00000000000E+00  0.94477111766E+02  0.94477111766E+02  0.00000000000E+00 0. -1.
         21   -1    0    0  503  504 -0.00000000000E+00 -0.00000000000E+00 -0.26586843872E+03  0.26586843872E+03  0.00000000000E+00 0. -1.
         25    2    1    2    0    0  0.64637601640E+02  0.70847272563E+02 -0.10524535699E+03  0.18947138409E+03  0.12500185856E+03 0.  0.
         25    2    1    2    0    0 -0.64637601640E+02 -0.70847272563E+02 -0.66145969959E+02  0.17087416640E+03  0.12500134329E+03 0.  0.
          5    1    3    3  501    0  0.82962328496E+02  0.51938032842E+02 -0.19846151527E+02  0.99981332935E+02  0.47000000000E+01 0.  1.
         -5    1    3    3    0  501 -0.18324726856E+02  0.18909239721E+02 -0.85399205467E+02  0.89490051154E+02  0.47000000000E+01 0.  1.
          5    1    4    4  502    0 -0.69690315383E+02 -0.23466352369E+02  0.16361661206E+02  0.75479823192E+02  0.47000000000E+01 0. -1.
         -5    1    4    4    0  502  0.50527137431E+01 -0.47380920194E+02 -0.82507631165E+02  0.95394343203E+02  0.47000000000E+01 0. -1.
<mgrwt>
<rscale>  0 0.31697623E+03</rscale>
<asrwt>0</asrwt>
<pdfrwt beam="1">  1       21 0.14534940E-01 0.31697623E+03</pdfrwt>
<pdfrwt beam="2">  1       21 0.40902837E-01 0.31697623E+03</pdfrwt>
<totfact> 0.23186972E+05</totfact>
</mgrwt>
</event>
<event>
 8    1  0.9175398E-006  0.2691635E+03  0.7546771E-02  0.1101759E+00
         21   -1    0    0  504  503  0.00000000000E+00  0.00000000000E+00  0.57662209837E+02  0.57662209837E+02  0.00000000000E+00 0. -1.
         21   -1    0    0  503  504 -0.00000000000E+00 -0.00000000000E+00 -0.31410946178E+03  0.31410946178E+03  0.00000000000E+00 0. -1.
         25    2    1    2    0    0 -0.31962932885E+01 -0.22800874763E+02 -0.67104594179E+02  0.14373415683E+03  0.12500554027E+03 0.  0.
         25    2    1    2    0    0  0.31962932885E+01  0.22800874763E+02 -0.18934265777E+03  0.22803751480E+03  0.12498147832E+03 0.  0.
          5    1    3    3  501    0  0.44312983372E+02  0.11648128329E+02 -0.71112615391E+02  0.84725518332E+02  0.47000000000E+01 0.  1.
         -5    1    3    3    0  501 -0.47509276660E+02 -0.34449003093E+02  0.40080212114E+01  0.59008638494E+02  0.47000000000E+01 0.  1.
          5    1    4    4  502    0  0.28886009441E+02  0.29937597680E+01  0.59491652538E+01  0.30014108452E+02  0.47000000000E+01 0. -1.
         -5    1    4    4    0  502 -0.25689716153E+02  0.19807114995E+02 -0.19529182302E+03  0.19802340634E+03  0.47000000000E+01 0. -1.
<mgrwt>
<rscale>  0 0.26916349E+03</rscale>
<asrwt>0</asrwt>
<pdfrwt beam="1">  1       21 0.88711092E-02 0.26916349E+03</pdfrwt>
<pdfrwt beam="2">  1       21 0.48324533E-01 0.26916349E+03</pdfrwt>
<totfact> 0.40300451E+05</totfact>
</mgrwt>
</event>
<event>
 8    1  0.9175398E-006  0.4357640E+03  0.7546771E-02  0.1032054E+00
         21   -1    0    0  504  503  0.00000000000E+00  0.00000000000E+00  0.10170167405E+03  0.10170167405E+03  0.00000000000E+00 0.  1.
         21   -1    0    0  503  504 -0.00000000000E+00 -0.00000000000E+00 -0.46678255332E+03  0.46678255332E+03  0.00000000000E+00 0.  1.
         25    2    1    2    0    0 -0.61690942130E+02  0.10485310147E+03 -0.35287323195E+03  0.39363165747E+03  0.12500567469E+03 0.  0.
         25    2    1    2    0    0  0.61690942130E+02 -0.10485310147E+03 -0.12207647325E+02  0.17485256990E+03  0.12499779725E+03 0.  0.
          5    1    3    3  501    0  0.35522882261E+02  0.27137577797E+02 -0.13955846871E+03  0.14661848274E+03  0.47000000000E+01 0. -1.
         -5    1    3    3    0  501 -0.97213824391E+02  0.77715523676E+02 -0.21331476324E+03  0.24701317473E+03  0.47000000000E+01 0. -1.
          5    1    4    4  502    0  0.35894848320E+02  0.31577295293E+01 -0.46055301116E+02  0.58665084612E+02  0.47000000000E+01 0. -1.
         -5    1    4    4    0  502  0.25796093810E+02 -0.10801083100E+03  0.33847653791E+02  0.11618748528E+03  0.47000000000E+01 0. -1.
<mgrwt>
<rscale>  0 0.43576401E+03</rscale>
<asrwt>0</asrwt>
<pdfrwt beam="1">  1       21 0.15646412E-01 0.43576401E+03</pdfrwt>
<pdfrwt beam="2">  1       21 0.71812700E-01 0.43576401E+03</pdfrwt>
<totfact> 0.58851246E+04</totfact>
</mgrwt>
</event>
<event>
 8    1  0.9175398E-006  0.3129530E+03  0.7546771E-02  0.1078939E+00
         21   -1    0    0  504  503  0.00000000000E+00  0.00000000000E+00  0.14739159922E+03  0.14739159922E+03  0.00000000000E+00 0.  1.
         21   -1    0    0  503  504 -0.00000000000E+00 -0.00000000000E+00 -0.16612134090E+03  0.16612134090E+03  0.00000000000E+00 0.  1.
         25    2    1    2    0    0 -0.84742912309E+02 -0.40839557683E+02 -0.58405182808E+01  0.15655024459E+03  0.12499854706E+03 0.  0.
         25    2    1    2    0    0  0.84742912309E+02  0.40839557683E+02 -0.12889223400E+02  0.15696269553E+03  0.12498769959E+03 0.  0.
          5    1    3    3  501    0  0.14257394712E+02 -0.53905258671E+02 -0.81932848304E+01  0.56553250417E+02  0.47000000000E+01 0. -1.
         -5    1    3    3    0  501 -0.99000307021E+02  0.13065700988E+02  0.23527665496E+01  0.99996994169E+02  0.47000000000E+01 0. -1.
          5    1    4    4  502    0 -0.88404451989E+01 -0.63731662904E+01 -0.45551867764E+02  0.47072639364E+02  0.47000000000E+01 0.  1.
         -5    1    4    4    0  502  0.93583357508E+02  0.47212723974E+02  0.32662644364E+02  0.10989005617E+03  0.47000000000E+01 0.  1.
<mgrwt>
<rscale>  0 0.31295297E+03</rscale>
<asrwt>0</asrwt>
<pdfrwt beam="1">  1       21 0.22675631E-01 0.31295297E+03</pdfrwt>
<pdfrwt beam="2">  1       21 0.25557129E-01 0.31295297E+03</pdfrwt>
<totfact> 0.25725684E+05</totfact>
</mgrwt>
</event>
<event>
 8    1  0.9175398E-006  0.2561145E+03  0.7546771E-02  0.1109500E+00
         21   -1    0    0  504  503  0.00000000000E+00  0.00000000000E+00  0.96107141523E+02  0.96107141523E+02  0.00000000000E+00 0.  1.
         21   -1    0    0  503  504 -0.00000000000E+00 -0.00000000000E+00 -0.17062896932E+03  0.17062896932E+03  0.00000000000E+00 0.  1.
         25    2    1    2    0    0  0.12484494841E+02  0.24341908048E+02 -0.33360960416E+02  0.13231762606E+03  0.12508640769E+03 0.  0.
         25    2    1    2    0    0 -0.12484494841E+02 -0.24341908048E+02 -0.41160867379E+02  0.13441848478E+03  0.12500288376E+03 0.  0.
          5    1    3    3  501    0  0.14202677277E+02  0.67552133334E+02  0.11149464693E+02  0.70081433510E+02  0.47000000000E+01 0.  1.
         -5    1    3    3    0  501 -0.17181824363E+01 -0.43210225287E+02 -0.44510425108E+02  0.62236192553E+02  0.47000000000E+01 0.  1.
          5    1    4    4  502    0  0.14564192129E+02 -0.18218623322E+02 -0.81690061475E+02  0.85084605376E+02  0.47000000000E+01 0.  1.
         -5    1    4    4    0  502 -0.27048686970E+02 -0.61232847256E+01  0.40529194097E+02  0.49333879401E+02  0.47000000000E+01 0.  1.
<mgrwt>
<rscale>  0 0.25611453E+03</rscale>
<asrwt>0</asrwt>
<pdfrwt beam="1">  1       21 0.14785714E-01 0.25611453E+03</pdfrwt>
<pdfrwt beam="2">  1       21 0.26250610E-01 0.25611453E+03</pdfrwt>
<totfact> 0.54908116E+05</totfact>
</mgrwt>
</event>
<event>
 8    1  0.9175398E-006  0.3312360E+03  0.7546771E-02  0.1070591E+00
         21   -1    0    0  504  503  0.00000000000E+00  0.00000000000E+00  0.53804653640E+02  0.53804653640E+02  0.00000000000E+00 0.  1.
         21   -1    0    0  503  504 -0.00000000000E+00 -0.00000000000E+00 -0.50979462891E+03  0.50979462891E+03  0.00000000000E+00 0.  1.
         25    2    1    2    0    0  0.90583238964E+02  0.22722096978E+02 -0.32249791214E+03  0.35826514259E+03  0.12500956839E+03 0.  0.
         25    2    1    2    0    0 -0.90583238964E+02 -0.22722096978E+02 -0.13349206313E+03  0.20533413996E+03  0.12498144359E+03 0.  0.
          5    1    3    3  501    0  0.81074284146E+02  0.61809335645E+02 -0.28629834127E+03  0.30394450766E+03  0.47000000000E+01 0. -1.
         -5    1    3    3    0  501  0.95089548183E+01 -0.39087238666E+02 -0.36199570870E+02  0.54320634932E+02  0.47000000000E+01 0. -1.
          5    1    4    4  502    0 -0.30567178289E+02  0.50358598770E+02 -0.34864002667E+02  0.68614353750E+02  0.47000000000E+01 0. -1.
         -5    1    4    4    0  502 -0.60016060675E+02 -0.73080695748E+02 -0.98628060466E+02  0.13671978621E+03  0.47000000000E+01 0. -1.
<mgrwt>
<rscale>  0 0.33123601E+03</rscale>
<asrwt>0</asrwt>
<pdfrwt beam="1">  1       21 0.82776388E-02 0.33123601E+03</pdfrwt>
<pdfrwt beam="2">  1       21 0.78429945E-01 0.33123601E+03</pdfrwt>
<totfact> 0.15618372E+05</totfact>
</mgrwt>
</event>
<event>
 8    1  0.9175398E-006  0.3359509E+03  0.7546771E-02  0.1068534E+00
         21   -1    0    0  504  503  0.00000000000E+00  0.00000000000E+00  0.18561819159E+03  0.18561819159E+03  0.00000000000E+00 0.  1.
         21   -1    0    0  503  504 -0.00000000000E+00 -0.00000000000E+00 -0.15200960586E+03  0.15200960586E+03  0.00000000000E+00 0.  1.
         25    2    1    2    0    0 -0.63200221268E+02 -0.13025553938E+02  0.10911524012E+03  0.17804089970E+03  0.12501397248E+03 0.  0.
         25    2    1    2    0    0  0.63200221268E+02  0.13025553938E+02 -0.75506654391E+02  0.15958689776E+03  0.12491112863E+03 0.  0.
          5    1    3    3  501    0 -0.37663977331E+02 -0.66003089607E+02  0.85512198141E+02  0.11449632770E+03  0.47000000000E+01 0.  1.
         -5    1    3    3    0  501 -0.25536243937E+02  0.52977535668E+02  0.23603041980E+02  0.63544572000E+02  0.47000000000E+01 0.  1.
          5    1    4    4  502    0 -0.40765398881E+01  0.36785278578E+02  0.18365949798E+02  0.41583326099E+02  0.47000000000E+01 0.  1.
         -5    1    4    4    0  502  0.67276761157E+02 -0.23759724640E+02 -0.93872604188E+02  0.11800357166E+03  0.47000000000E+01 0.  1.
<mgrwt>
<rscale>  0 0.33595088E+03</rscale>
<asrwt>0</asrwt>
<pdfrwt beam="1">  1       21 0.28556645E-01 0.33595088E+03</pdfrwt>
<pdfrwt beam="2">  1       21 0.23386093E-01 0.33595088E+03</pdfrwt>
<totfact> 0.19443730E+05</totfact>
</mgrwt>
</event>
<event>
 8    1  0.9175398E-006  0.4343221E+03  0.7546771E-02  0.1032503E+00
         21   -1    0    0  504  503  0.00000000000E+00  0.00000000000E+00  0.29602569060E+03  0.29602569060E+03  0.00000000000E+00 0.  1.
         21   -1    0    0  503  504 -0.00000000000E+00 -0.00000000000E+00 -0.15930686572E+03  0.15930686572E+03  0.00000000000E+00 0.  1.
         25    2    1    2    0    0  0.15842756811E+03 -0.40401266066E+02 -0.42906355929E+01  0.20585027101E+03  0.12499747152E+03 0.  0.
         25    2    1    2    0    0 -0.15842756811E+03  0.40401266066E+02  0.14100946047E+03  0.24948228530E+03  0.12500474431E+03 0.  0.
          5    1    3    3  501    0  0.89834961277E+02 -0.15454062251E+02 -0.63963152198E+02  0.11145637329E+03  0.47000000000E+01 0. -1.
         -5    1    3    3    0  501  0.68592606829E+02 -0.24947203815E+02  0.59672516605E+02  0.94393897725E+02  0.47000000000E+01 0. -1.
          5    1    4    4  502    0 -0.12828585713E+03  0.83084176966E+02  0.11190532730E+03  0.18948650052E+03  0.47000000000E+01 0. -1.
         -5    1    4    4    0  502 -0.30141710973E+02 -0.42682910900E+02  0.29104133174E+02  0.59995784778E+02  0.47000000000E+01 0. -1.
<mgrwt>
<rscale>  0 0.43432212E+03</rscale>
<asrwt>0</asrwt>
<pdfrwt beam="1">  1       21 0.45542414E-01 0.43432212E+03</pdfrwt>
<pdfrwt beam="2">  1       21 0.24508749E-01 0.43432212E+03</pdfrwt>
<totfact> 0.67581198E+04</totfact>
</mgrwt>
</event>
<event>
 8    1  0.9175398E-006  0.3866991E+03  0.7546771E-02  0.1048485E+00
         21   -1    0    0  504  503  0.00000000000E+00  0.00000000000E+00  0.11404047465E+03  0.11404047465E+03  0.00000000000E+00 0. -1.
         21   -1    0    0  503  504 -0.00000000000E+00 -0.00000000000E+00 -0.32781391132E+03  0.32781391132E+03  0.00000000000E+00 0. -1.
         25    2    1    2    0    0  0.31750633777E+01  0.51180300731E+02 -0.26491200899E+03  0.29737571221E+03  0.12499774996E+03 0.  0.
         25    2    1    2    0    0 -0.31750633777E+01 -0.51180300731E+02  0.51138572319E+02  0.14447867375E+03  0.12501771627E+03 0.  0.
          5    1    3    3  501    0 -0.26115012804E+02 -0.91458210509E+01 -0.44980762493E+01  0.28424683400E+02  0.47000000000E+01 0.  1.
         -5    1    3    3    0  501  0.29290076181E+02  0.60326121782E+02 -0.26041393274E+03  0.26895102881E+03  0.47000000000E+01 0.  1.
          5    1    4    4  502    0 -0.49061905565E+02 -0.26295013199E+02 -0.17113230810E+02  0.58424746175E+02  0.47000000000E+01 0.  1.
         -5    1    4    4    0  502  0.45886842188E+02 -0.24885287533E+02  0.68251803129E+02  0.86053927580E+02  0.47000000000E+01 0.  1.
<mgrwt>
<rscale>  0 0.38669913E+03</rscale>
<asrwt>0</asrwt>
<pdfrwt beam="1">  1       21 0.17544689E-01 0.38669913E+03</pdfrwt>
<pdfrwt beam="2">  1       21 0.50432909E-01 0.38669913E+03</pdfrwt>
<totfact> 0.10411855E+05</totfact>
</mgrwt>
</event>
<event>
 8    1  0.9175398E-006  0.3008326E+03  0.7546771E-02  0.1084825E+00
         21   -1    0    0  504  503  0.00000000000E+00  0.00000000000E+00  0.35855999418E+03  0.35855999418E+03  0.00000000000E+00 0. -1.
         21   -1    0    0  503  504 -0.00000000000E+00 -0.00000000000E+00 -0.63099795984E+02  0.63099795984E+02  0.00000000000E+00 0. -1.
         25    2    1    2    0    0 -0.14196834624E+02  0.82184122120E+02  0.13858692268E+03  0.20441946505E+03  0.12500081004E+03 0.  0.
         25    2    1    2    0    0  0.14196834624E+02 -0.82184122120E+02  0.15687327552E+03  0.21724032512E+03  0.12501341625E+03 0.  0.
          5    1    3    3  501    0  0.67819628707E+01 -0.31053445476E+02  0.48279823271E+02  0.57994334477E+02  0.47000000000E+01 0.  1.
         -5    1    3    3    0  501 -0.20978797495E+02  0.11323756760E+03  0.90307099405E+02  0.14642513057E+03  0.47000000000E+01 0.  1.
          5    1    4    4  502    0  0.44630601009E+02 -0.10231013270E+03  0.10266797369E+03  0.15173020999E+03  0.47000000000E+01 0.  1.
         -5    1    4    4    0  502 -0.30433766384E+02  0.20126010583E+02  0.54205301827E+02  0.65510115131E+02  0.47000000000E+01 0.  1.
<mgrwt>
<rscale>  0 0.30083259E+03</rscale>
<asrwt>0</asrwt>
<pdfrwt beam="1">  1       21 0.55163075E-01 0.30083259E+03</pdfrwt>
<pdfrwt beam="2">  1       21 0.97076611E-02 0.30083259E+03</pdfrwt>
<totfact> 0.25795293E+05</totfact>
</mgrwt>
</event>
<event>
 8    1  0.9175398E-006  0.2850973E+03  0.7546771E-02  0.1092937E+00
         21   -1    0    0  504  503  0.00000000000E+00  0.00000000000E+00  0.35338351018E+03  0.35338351018E+03  0.00000000000E+00 0.  1.
         21   -1    0    0  503  504 -0.00000000000E+00 -0.00000000000E+00 -0.57501617633E+02  0.57501617633E+02  0.00000000000E+00 0.  1.
         25    2    1    2    0    0  0.62802111775E+00 -0.60615872567E+02  0.19399070307E+03  0.23860618177E+03  0.12500335470E+03 0.  0.
         25    2    1    2    0    0 -0.62802111775E+00  0.60615872567E+02  0.10189118949E+03  0.17227894605E+03  0.12499416922E+03 0.  0.
          5    1    3    3  501    0 -0.48401191197E+02  0.17862718297E+01  0.12203533629E+03  0.13137952420E+03  0.47000000000E+01 0. -1.
         -5    1    3    3    0  501  0.49029212314E+02 -0.62402144397E+02  0.71955366777E+02  0.10722665757E+03  0.47000000000E+01 0. -1.
          5    1    4    4  502    0  0.25879706901E+02  0.62539033109E+01  0.10797822484E+03  0.11131153389E+03  0.47000000000E+01 0. -1.
         -5    1    4    4    0  502 -0.26507728019E+02  0.54361969257E+02 -0.60870353556E+01  0.60967412161E+02  0.47000000000E+01 0. -1.
<mgrwt>
<rscale>  0 0.28509734E+03</rscale>
<asrwt>0</asrwt>
<pdfrwt beam="1">  1       21 0.54366693E-01 0.28509734E+03</pdfrwt>
<pdfrwt beam="2">  1       21 0.88464029E-02 0.28509734E+03</pdfrwt>
<totfact> 0.31479618E+05</totfact>
</mgrwt>
</event>
<event>
 8    1  0.9175398E-006  0.2706232E+03  0.7546771E-02  0.1100923E+00
         21   -1    0    0  504  503  0.00000000000E+00  0.00000000000E+00  0.53282590285E+02  0.53282590285E+02  0.00000000000E+00 0. -1.
         21   -1    0    0  503  504 -0.00000000000E+00 -0.00000000000E+00 -0.34362502599E+03  0.34362502599E+03  0.00000000000E+00 0. -1.
         25    2    1    2    0    0 -0.33494820739E+02  0.29715611962E+02 -0.10692976881E+03  0.17048223056E+03  0.12500117946E+03 0.  0.
         25    2    1    2    0    0  0.33494820739E+02 -0.29715611962E+02 -0.18341266689E+03  0.22642538571E+03  0.12499331306E+03 0.  0.
          5    1    3    3  501    0 -0.73302036859E+02  0.27254417621E+02 -0.10401164402E+03  0.13021714165E+03  0.47000000000E+01 0.  1.
         -5    1    3    3    0  501  0.39807216120E+02  0.24611943414E+01 -0.29181247981E+01  0.40265088913E+02  0.47000000000E+01 0.  1.
          5    1    4    4  502    0  0.75816193157E+02 -0.44045124864E+02 -0.12380802856E+03  0.15178467019E+03  0.47000000000E+01 0. -1.
         -5    1    4    4    0  502 -0.42321372418E+02  0.14329512902E+02 -0.59604638335E+02  0.74640715527E+02  0.47000000000E+01 0. -1.
<mgrwt>
<rscale>  0 0.27062322E+03</rscale>
<asrwt>0</asrwt>
<pdfrwt beam="1">  1       21 0.81973215E-02 0.27062322E+03</pdfrwt>
<pdfrwt beam="2">  1       21 0.52865389E-01 0.27062322E+03</pdfrwt>
<totfact> 0.38322235E+05</totfact>
</mgrwt>
</event>
<event>
 8    1  0.9175398E-006  0.2721257E+03  0.7546771E-02  0.1100069E+00
         21   -1    0    0  504  503  0.00000000000E+00  0.00000000000E+00  0.98019335901E+03  0.98019335901E+03  0.00000000000E+00 0.  1.
         21   -1    0    0  503  504 -0.00000000000E+00 -0.00000000000E+00 -0.18887187196E+02  0.18887187196E+02  0.00000000000E+00 0.  1.
         25    2    1    2    0    0  0.19608843882E+02 -0.25820560303E+01  0.29721121339E+03  0.32303121691E+03  0.12499395168E+03 0.  0.
         25    2    1    2    0    0 -0.19608843882E+02  0.25820560303E+01  0.66409495842E+03  0.67604932930E+03  0.12501763106E+03 0.  0.
          5    1    3    3  501    0  0.34623549605E+02  0.19722959491E+02  0.20648268752E+02  0.45124564494E+02  0.47000000000E+01 0.  1.
         -5    1    3    3    0  501 -0.15014705724E+02 -0.22305015521E+02  0.27656294464E+03  0.27790665241E+03  0.47000000000E+01 0.  1.
          5    1    4    4  502    0 -0.22718459849E+02 -0.21782051692E+01  0.16833783785E+02  0.28746117515E+02  0.47000000000E+01 0. -1.
         -5    1    4    4    0  502  0.31096159671E+01  0.47602611995E+01  0.64726117463E+03  0.64730321179E+03  0.47000000000E+01 0. -1.
<mgrwt>
<rscale>  0 0.27212567E+03</rscale>
<asrwt>0</asrwt>
<pdfrwt beam="1">  1       21 0.15079894E+00 0.27212567E+03</pdfrwt>
<pdfrwt beam="2">  1       21 0.29057219E-02 0.27212567E+03</pdfrwt>
<totfact> 0.19088384E+05</totfact>
</mgrwt>
</event>
<event>
 8    1  0.9175398E-006  0.2522675E+03  0.7546771E-02  0.1111880E+00
         21   -1    0    0  504  503  0.00000000000E+00  0.00000000000E+00  0.19299974997E+02  0.19299974997E+02  0.00000000000E+00 0.  1.
         21   -1    0    0  503  504 -0.00000000000E+00 -0.00000000000E+00 -0.82433882622E+03  0.82433882622E+03  0.00000000000E+00 0.  1.
         25    2    1    2    0    0  0.12985471743E+02 -0.80518978633E+01 -0.37861825207E+03  0.39901075399E+03  0.12499738184E+03 0.  0.
         25    2    1    2    0    0 -0.12985471743E+02  0.80518978633E+01 -0.42642059916E+03  0.44462804723E+03  0.12500446976E+03 0.  0.
          5    1    3    3  501    0  0.60357059988E+02  0.14839713617E+02 -0.28289289538E+03  0.28967856678E+03  0.47000000000E+01 0. -1.
         -5    1    3    3    0  501 -0.47371588246E+02 -0.22891611480E+02 -0.95725356684E+02  0.10933218722E+03  0.47000000000E+01 0. -1.
          5    1    4    4  502    0  0.53085546169E+02 -0.11823434152E+02 -0.22998182586E+03  0.23637173908E+03  0.47000000000E+01 0. -1.
         -5    1    4    4    0  502 -0.66071017912E+02  0.19875332015E+02 -0.19643877330E+03  0.20825630815E+03  0.47000000000E+01 0. -1.
<mgrwt>
<rscale>  0 0.25226747E+03</rscale>
<asrwt>0</asrwt>
<pdfrwt beam="1">  1       21 0.29692271E-02 0.25226747E+03</pdfrwt>
<pdfrwt beam="2">  1       21 0.12682135E+00 0.25226747E+03</pdfrwt>
<totfact> 0.29057162E+05</totfact>
</mgrwt>
</event>
<event>
 8    1  0.9175398E-006  0.3153877E+03  0.7546771E-02  0.1077792E+00
         21   -1    0    0  504  503  0.00000000000E+00  0.00000000000E+00  0.18236917302E+03  0.18236917302E+03  0.00000000000E+00 0.  1.
         21   -1    0    0  503  504 -0.00000000000E+00 -0.00000000000E+00 -0.13635717036E+03  0.13635717036E+03  0.00000000000E+00 0.  1.
         25    2    1    2    0    0  0.60902287791E+02 -0.73994804887E+02  0.30784479321E+02  0.16048632798E+03  0.12499542988E+03 0.  0.
         25    2    1    2    0    0 -0.60902287791E+02  0.73994804887E+02  0.15227523343E+02  0.15824001540E+03  0.12499482068E+03 0.  0.
          5    1    3    3  501    0 -0.16590157877E+02 -0.39780903600E+02  0.57066672265E+02  0.71669021990E+02  0.47000000000E+01 0.  1.
         -5    1    3    3    0  501  0.77492445667E+02 -0.34213901288E+02 -0.26282192944E+02  0.88817305987E+02  0.47000000000E+01 0.  1.
          5    1    4    4  502    0  0.15869561308E+02 -0.18290231641E+02 -0.21388190658E+02  0.32648434101E+02  0.47000000000E+01 0. -1.
         -5    1    4    4    0  502 -0.76771849098E+02  0.92285036529E+02  0.36615714002E+02  0.12559158130E+03  0.47000000000E+01 0. -1.
<mgrwt>
<rscale>  0 0.31538766E+03</rscale>
<asrwt>0</asrwt>
<pdfrwt beam="1">  1       21 0.28056796E-01 0.31538766E+03</pdfrwt>
<pdfrwt beam="2">  1       21 0.20978026E-01 0.31538766E+03</pdfrwt>
<totfact> 0.24870442E+05</totfact>
</mgrwt>
</event>
<event>
 8    1  0.9175398E-006  0.3266727E+03  0.7546771E-02  0.1072619E+00
         21   -1    0    0  504  503  0.00000000000E+00  0.00000000000E+00  0.62185792544E+03  0.62185792544E+03  0.00000000000E+00 0. -1.
         21   -1    0    0  503  504 -0.00000000000E+00 -0.00000000000E+00 -0.42901699263E+02  0.42901699263E+02  0.00000000000E+00 0. -1.
         25    2    1    2    0    0 -0.80190291688E+02 -0.26694196783E+01  0.42780618248E+03  0.45285982344E+03  0.12500512484E+03 0.  0.
         25    2    1    2    0    0  0.80190291688E+02  0.26694196783E+01  0.15115004369E+03  0.21189980126E+03  0.12497032201E+03 0.  0.
          5    1    3    3  501    0 -0.98355655577E+02  0.36058404602E+02  0.32168739248E+03  0.33834732451E+03  0.47000000000E+01 0. -1.
         -5    1    3    3    0  501  0.18165363889E+02 -0.38727824281E+02  0.10611879001E+03  0.11451249893E+03  0.47000000000E+01 0. -1.
          5    1    4    4  502    0  0.36078931982E+02  0.58206181774E+02  0.11031037891E+03  0.12992351067E+03  0.47000000000E+01 0. -1.
         -5    1    4    4    0  502  0.44111359706E+02 -0.55536762095E+02  0.40839664783E+02  0.81976290589E+02  0.47000000000E+01 0. -1.
<mgrwt>
<rscale>  0 0.32667269E+03</rscale>
<asrwt>0</asrwt>
<pdfrwt beam="1">  1       21 0.95670444E-01 0.32667269E+03</pdfrwt>
<pdfrwt beam="2">  1       21 0.66002619E-02 0.32667269E+03</pdfrwt>
<totfact> 0.14633886E+05</totfact>
</mgrwt>
</event>
<event>
 8    1  0.9175398E-006  0.2853709E+03  0.7546771E-02  0.1092791E+00
         21   -1    0    0  504  503  0.00000000000E+00  0.00000000000E+00  0.29220488102E+03  0.29220488102E+03  0.00000000000E+00 0. -1.
         21   -1    0    0  503  504 -0.00000000000E+00 -0.00000000000E+00 -0.69674175814E+02  0.69674175814E+02  0.00000000000E+00 0. -1.
         25    2    1    2    0    0  0.12840334531E+02  0.61820351189E+02  0.76643139170E+02  0.15964414214E+03  0.12500180529E+03 0.  0.
         25    2    1    2    0    0 -0.12840334531E+02 -0.61820351189E+02  0.14588756604E+03  0.20223491470E+03  0.12501659405E+03 0.  0.
          5    1    3    3  501    0  0.61768644932E+02  0.55377847165E+01  0.51668102106E+02  0.80856139727E+02  0.47000000000E+01 0. -1.
         -5    1    3    3    0  501 -0.48928310400E+02  0.56282566473E+02  0.24975037064E+02  0.78788002410E+02  0.47000000000E+01 0. -1.
          5    1    4    4  502    0 -0.51531737932E+02 -0.54022717571E+02  0.31554489577E+02  0.81189591947E+02  0.47000000000E+01 0.  1.
         -5    1    4    4    0  502  0.38691403400E+02 -0.77976336182E+01  0.11433307646E+03  0.12104532276E+03  0.47000000000E+01 0.  1.
<mgrwt>
<rscale>  0 0.28537088E+03</rscale>
<asrwt>0</asrwt>
<pdfrwt beam="1">  1       21 0.44954596E-01 0.28537088E+03</pdfrwt>
<pdfrwt beam="2">  1       21 0.10719104E-01 0.28537088E+03</pdfrwt>
<totfact> 0.33357067E+05</totfact>
</mgrwt>
</event>
<event>
 8    1  0.9175398E-006  0.2866638E+03  0.7546771E-02  0.1092104E+00
         21   -1    0    0  504  503  0.00000000000E+00  0.00000000000E+00  0.12408584719E+03  0.12408584719E+03  0.00000000000E+00 0.  1.
         21   -1    0    0  503  504 -0.00000000000E+00 -0.00000000000E+00 -0.16556302308E+03  0.16556302308E+03  0.00000000000E+00 0.  1.
         25    2    1    2    0    0 -0.60658050902E+02  0.13297166300E+01  0.14676226445E+02  0.13977836101E+03  0.12506570792E+03 0.  0.
         25    2    1    2    0    0  0.60658050902E+02 -0.13297166300E+01 -0.56153402333E+02  0.14987050926E+03  0.12500719046E+03 0.  0.
          5    1    3    3  501    0 -0.50785720974E+01  0.43045507042E+02 -0.33590360031E+02  0.55037349664E+02  0.47000000000E+01 0.  1.
         -5    1    3    3    0  501 -0.55579478805E+02 -0.41715790412E+02  0.48266586475E+02  0.84741011346E+02  0.47000000000E+01 0.  1.
          5    1    4    4  502    0  0.61745623417E+02  0.82071810337E+01  0.25536857957E+02  0.67484079203E+02  0.47000000000E+01 0.  1.
         -5    1    4    4    0  502 -0.10875725143E+01 -0.95368976637E+01 -0.81690260290E+02  0.82386430055E+02  0.47000000000E+01 0.  1.
<mgrwt>
<rscale>  0 0.28666376E+03</rscale>
<asrwt>0</asrwt>
<pdfrwt beam="1">  1       21 0.19090131E-01 0.28666376E+03</pdfrwt>
<pdfrwt beam="2">  1       21 0.25471234E-01 0.28666376E+03</pdfrwt>
<totfact> 0.36055730E+05</totfact>
</mgrwt>
</event>
<event>
 8    1  0.9175398E-006  0.3212058E+03  0.7546771E-02  0.1075096E+00
         21   -1    0    0  504  503  0.00000000000E+00  0.00000000000E+00  0.20728704454E+03  0.20728704454E+03  0.00000000000E+00 0.  1.
         21   -1    0    0  503  504 -0.00000000000E+00 -0.00000000000E+00 -0.12443269135E+03  0.12443269135E+03  0.00000000000E+00 0.  1.
         25    2    1    2    0    0 -0.79744605479E+02  0.46235312888E+02 -0.79263266351E+00  0.15531289328E+03  0.12499824115E+03 0.  0.
         25    2    1    2    0    0  0.79744605479E+02 -0.46235312888E+02  0.83646985854E+02  0.17640684261E+03  0.12500259843E+03 0.  0.
          5    1    3    3  501    0  0.21201961256E+02  0.10068813114E+02 -0.35228319651E+02  0.42591415380E+02  0.47000000000E+01 0.  1.
         -5    1    3    3    0  501 -0.10094656673E+03  0.36166499774E+02  0.34435686988E+02  0.11272147790E+03  0.47000000000E+01 0.  1.
          5    1    4    4  502    0  0.67202561825E+02  0.31440159209E+02  0.55254634003E+02  0.92627385291E+02  0.47000000000E+01 0.  1.
         -5    1    4    4    0  502  0.12542043654E+02 -0.77675472097E+02  0.28392351851E+02  0.83779457316E+02  0.47000000000E+01 0.  1.
<mgrwt>
<rscale>  0 0.32120576E+03</rscale>
<asrwt>0</asrwt>
<pdfrwt beam="1">  1       21 0.31890314E-01 0.32120576E+03</pdfrwt>
<pdfrwt beam="2">  1       21 0.19143491E-01 0.32120576E+03</pdfrwt>
<totfact> 0.22942612E+05</totfact>
</mgrwt>
</event>
<event>
 8    1  0.9175398E-006  0.3050096E+03  0.7546771E-02  0.1082763E+00
         21   -1    0    0  504  503  0.00000000000E+00  0.00000000000E+00  0.27053203880E+02  0.27053203880E+02  0.00000000000E+00 0.  1.
         21   -1    0    0  503  504 -0.00000000000E+00 -0.00000000000E+00 -0.85970254886E+03  0.85970254886E+03  0.00000000000E+00 0.  1.
         25    2    1    2    0    0  0.29173280805E+02 -0.70474982493E+02 -0.54023599974E+03  0.55972949393E+03  0.12499746995E+03 0.  0.
         25    2    1    2    0    0 -0.29173280805E+02  0.70474982493E+02 -0.29241334524E+03  0.32702625881E+03  0.12499122371E+03 0.  0.
          5    1    3    3  501    0  0.93440133242E+01 -0.41256803375E+02 -0.51331945673E+03  0.51508095390E+03  0.47000000000E+01 0.  1.
         -5    1    3    3    0  501  0.19829267480E+02 -0.29218179118E+02 -0.26916543010E+02  0.44648540037E+02  0.47000000000E+01 0.  1.
          5    1    4    4  502    0  0.89021955078E+01  0.32024103725E+02 -0.43067443122E+01  0.33844207049E+02  0.47000000000E+01 0.  1.
         -5    1    4    4    0  502 -0.38075476312E+02  0.38450878768E+02 -0.28810660093E+03  0.29318205176E+03  0.47000000000E+01 0.  1.
<mgrwt>
<rscale>  0 0.30500956E+03</rscale>
<asrwt>0</asrwt>
<pdfrwt beam="1">  1       21 0.41620325E-02 0.30500956E+03</pdfrwt>
<pdfrwt beam="2">  1       21 0.13226190E+00 0.30500956E+03</pdfrwt>
<totfact> 0.14580702E+05</totfact>
</mgrwt>
</event>
<event>
 8    1  0.9175398E-006  0.2639916E+03  0.7546771E-02  0.1104768E+00
         21   -1    0    0  504  503  0.00000000000E+00  0.00000000000E+00  0.43254662557E+02  0.43254662557E+02  0.00000000000E+00 0. -1.
         21   -1    0    0  503  504 -0.00000000000E+00 -0.00000000000E+00 -0.40279787371E+03  0.40279787371E+03  0.00000000000E+00 0. -1.
         25    2    1    2    0    0 -0.32509581481E+02 -0.26489995943E+02 -0.16935610078E+03  0.21463393244E+03  0.12501057279E+03 0.  0.
         25    2    1    2    0    0  0.32509581481E+02  0.26489995943E+02 -0.19018711037E+03  0.23141860383E+03  0.12499936189E+03 0.  0.
          5    1    3    3  501    0 -0.30957868627E+02  0.37425151985E+02 -0.13131926994E+03  0.14009237055E+03  0.47000000000E+01 0.  1.
         -5    1    3    3    0  501 -0.15517128540E+01 -0.63915147927E+02 -0.38036830846E+02  0.74541561884E+02  0.47000000000E+01 0.  1.
          5    1    4    4  502    0  0.16700770271E+02  0.30231567543E+02 -0.20560201126E+03  0.20853570543E+03  0.47000000000E+01 0.  1.
         -5    1    4    4    0  502  0.15808811209E+02 -0.37415716003E+01  0.15414900888E+02  0.22882898402E+02  0.47000000000E+01 0.  1.
<mgrwt>
<rscale>  0 0.26399156E+03</rscale>
<asrwt>0</asrwt>
<pdfrwt beam="1">  1       21 0.66545637E-02 0.26399156E+03</pdfrwt>
<pdfrwt beam="2">  1       21 0.61968902E-01 0.26399156E+03</pdfrwt>
<totfact> 0.39251863E+05</totfact>
</mgrwt>
</event>
<event>
 8    1  0.9175398E-006  0.2763265E+03  0.7546771E-02  0.1097712E+00
         21   -1    0    0  504  503  0.00000000000E+00  0.00000000000E+00  0.70680465360E+02  0.70680465360E+02  0.00000000000E+00 0. -1.
         21   -1    0    0  503  504 -0.00000000000E+00 -0.00000000000E+00 -0.27007585097E+03  0.27007585097E+03  0.00000000000E+00 0. -1.
         25    2    1    2    0    0  0.39261845080E+02  0.43588148818E+02 -0.10556749092E+03  0.17380920303E+03  0.12499489879E+03 0.  0.
         25    2    1    2    0    0 -0.39261845080E+02 -0.43588148818E+02 -0.93827894690E+02  0.16694711329E+03  0.12500498238E+03 0.  0.
          5    1    3    3  501    0  0.60068611542E+02  0.60509869092E+02 -0.11652092293E+03  0.14446071380E+03  0.47000000000E+01 0. -1.
         -5    1    3    3    0  501 -0.20806766462E+02 -0.16921720274E+02  0.10953432012E+02  0.29348489237E+02  0.47000000000E+01 0. -1.
          5    1    4    4  502    0 -0.52435174264E+02  0.20760466961E+02 -0.82629292732E+02  0.10015055919E+03  0.47000000000E+01 0.  1.
         -5    1    4    4    0  502  0.13173329185E+02 -0.64348615778E+02 -0.11198601958E+02  0.66796554104E+02  0.47000000000E+01 0.  1.
<mgrwt>
<rscale>  0 0.27632652E+03</rscale>
<asrwt>0</asrwt>
<pdfrwt beam="1">  1       21 0.10873918E-01 0.27632652E+03</pdfrwt>
<pdfrwt beam="2">  1       21 0.41550130E-01 0.27632652E+03</pdfrwt>
<totfact> 0.38307171E+05</totfact>
</mgrwt>
</event>
<event>
 8    1  0.9175398E-006  0.2945809E+03  0.7546771E-02  0.1087981E+00
         21   -1    0    0  504  503  0.00000000000E+00  0.00000000000E+00  0.19845558959E+02  0.19845558959E+02  0.00000000000E+00 0.  1.
         21   -1    0    0  503  504 -0.00000000000E+00 -0.00000000000E+00 -0.10931656443E+04  0.10931656443E+04  0.00000000000E+00 0.  1.
         25    2    1    2    0    0 -0.90009449439E+00  0.75483578227E+02 -0.46355522971E+03  0.48600475653E+03  0.12497436386E+03 0.  0.
         25    2    1    2    0    0  0.90009449439E+00 -0.75483578227E+02 -0.60976485563E+03  0.62700644673E+03  0.12500129732E+03 0.  0.
          5    1    3    3  501    0  0.32976816414E+02  0.15895251307E+01 -0.31360575041E+03  0.31537383167E+03  0.47000000000E+01 0.  1.
         -5    1    3    3    0  501 -0.33876910908E+02  0.73894053097E+02 -0.14994947930E+03  0.17063092486E+03  0.47000000000E+01 0.  1.
          5    1    4    4  502    0 -0.60069954946E+02 -0.26157179534E+02 -0.22977276876E+03  0.23897743155E+03  0.47000000000E+01 0. -1.
         -5    1    4    4    0  502  0.60970049441E+02 -0.49326398693E+02 -0.37999208687E+03  0.38802901518E+03  0.47000000000E+01 0. -1.
<mgrwt>
<rscale>  0 0.29458094E+03</rscale>
<asrwt>0</asrwt>
<pdfrwt beam="1">  1       21 0.30531629E-02 0.29458094E+03</pdfrwt>
<pdfrwt beam="2">  1       21 0.16817933E+00 0.29458094E+03</pdfrwt>
<totfact> 0.12949887E+05</totfact>
</mgrwt>
</event>
<event>
 8    1  0.9175398E-006  0.4469418E+03  0.7546771E-02  0.1028638E+00
         21   -1    0    0  504  503  0.00000000000E+00  0.00000000000E+00  0.12403559527E+03  0.12403559527E+03  0.00000000000E+00 0. -1.
         21   -1    0    0  503  504 -0.00000000000E+00 -0.00000000000E+00 -0.40262033950E+03  0.40262033950E+03  0.00000000000E+00 0. -1.
         25    2    1    2    0    0 -0.70102708542E+02  0.52291319868E+02  0.53121613743E+02  0.16154917313E+03  0.12500983007E+03 0.  0.
         25    2    1    2    0    0  0.70102708542E+02 -0.52291319868E+02 -0.33170635797E+03  0.36510676164E+03  0.12500027040E+03 0.  0.
          5    1    3    3  501    0  0.10155892992E+02  0.53273137288E+02 -0.14674180032E+02  0.56378993239E+02  0.47000000000E+01 0.  1.
         -5    1    3    3    0  501 -0.80258601534E+02 -0.98181742066E+00  0.67795793775E+02  0.10517017990E+03  0.47000000000E+01 0.  1.
          5    1    4    4  502    0  0.62018538453E+02 -0.38398967801E+02 -0.64821324460E+02  0.97696847159E+02  0.47000000000E+01 0. -1.
         -5    1    4    4    0  502  0.80841700892E+01 -0.13892352066E+02 -0.26688503351E+03  0.26740991448E+03  0.47000000000E+01 0. -1.
<mgrwt>
<rscale>  0 0.44694185E+03</rscale>
<asrwt>0</asrwt>
<pdfrwt beam="1">  1       21 0.19082399E-01 0.44694185E+03</pdfrwt>
<pdfrwt beam="2">  1       21 0.61941591E-01 0.44694185E+03</pdfrwt>
<totfact> 0.56261528E+04</totfact>
</mgrwt>
</event>
<event>
 8    1  0.9175398E-006  0.2946838E+03  0.7546771E-02  0.1087929E+00
         21   -1    0    0  504  503  0.00000000000E+00  0.00000000000E+00  0.21657870267E+03  0.21657870267E+03  0.00000000000E+00 0.  1.
         21   -1    0    0  503  504 -0.00000000000E+00 -0.00000000000E+00 -0.10023899172E+03  0.10023899172E+03  0.00000000000E+00 0.  1.
         25    2    1    2    0    0 -0.32188517931E+01  0.44496526316E+02  0.12696169326E+03  0.18367273867E+03  0.12500440598E+03 0.  0.
         25    2    1    2    0    0  0.32188517931E+01 -0.44496526316E+02 -0.10621982320E+02  0.13314495572E+03  0.12499780344E+03 0.  0.
          5    1    3    3  501    0 -0.57991803880E+02  0.27115008557E+02  0.10272035540E+03  0.12112734794E+03  0.47000000000E+01 0. -1.
         -5    1    3    3    0  501  0.54772952087E+02  0.17381517760E+02  0.24241337867E+02  0.62545390730E+02  0.47000000000E+01 0. -1.
          5    1    4    4  502    0 -0.52039408565E+02 -0.45690513516E+01  0.22659027442E+02  0.57135783872E+02  0.47000000000E+01 0. -1.
         -5    1    4    4    0  502  0.55258260358E+02 -0.39927474965E+02 -0.33281009762E+02  0.76009171852E+02  0.47000000000E+01 0. -1.
<mgrwt>
<rscale>  0 0.29468377E+03</rscale>
<asrwt>0</asrwt>
<pdfrwt beam="1">  1       21 0.33319800E-01 0.29468377E+03</pdfrwt>
<pdfrwt beam="2">  1       21 0.15421383E-01 0.29468377E+03</pdfrwt>
<totfact> 0.31608599E+05</totfact>
</mgrwt>
</event>
<event>
 8    1  0.9175398E-006  0.2693599E+03  0.7546771E-02  0.1101647E+00
         21   -1    0    0  504  503  0.00000000000E+00  0.00000000000E+00  0.21793950718E+02  0.21793950718E+02  0.00000000000E+00 0. -1.
         21   -1    0    0  503  504 -0.00000000000E+00 -0.00000000000E+00 -0.83228069257E+03  0.83228069257E+03  0.00000000000E+00 0. -1.
         25    2    1    2    0    0  0.36493127964E+02  0.15748114397E+02 -0.50217804013E+03  0.51902389351E+03  0.12499306600E+03 0.  0.
         25    2    1    2    0    0 -0.36493127964E+02 -0.15748114397E+02 -0.30830870172E+03  0.33505074978E+03  0.12499999149E+03 0.  0.
          5    1    3    3  501    0 -0.13709958944E+02 -0.47681378773E+02 -0.20842125736E+03  0.21429649409E+03  0.47000000000E+01 0. -1.
         -5    1    3    3    0  501  0.50203086908E+02  0.63429493170E+02 -0.29375678277E+03  0.30472739943E+03  0.47000000000E+01 0. -1.
          5    1    4    4  502    0 -0.18070025770E+02 -0.69718098237E+02 -0.19874683752E+03  0.21144629218E+03  0.47000000000E+01 0. -1.
         -5    1    4    4    0  502 -0.18423102194E+02  0.53969983841E+02 -0.10956186420E+03  0.12360445760E+03  0.47000000000E+01 0. -1.
<mgrwt>
<rscale>  0 0.26935987E+03</rscale>
<asrwt>0</asrwt>
<pdfrwt beam="1">  1       21 0.33529158E-02 0.26935987E+03</pdfrwt>
<pdfrwt beam="2">  1       21 0.12804317E+00 0.26935987E+03</pdfrwt>
<totfact> 0.23038490E+05</totfact>
</mgrwt>
</event>
<event>
 8    1  0.9175398E-006  0.2651691E+03  0.7546771E-02  0.1104077E+00
         21   -1    0    0  504  503  0.00000000000E+00  0.00000000000E+00  0.22831730132E+03  0.22831730132E+03  0.00000000000E+00 0.  1.
         21   -1    0    0  503  504 -0.00000000000E+00 -0.00000000000E+00 -0.76992250794E+02  0.76992250794E+02  0.00000000000E+00 0.  1.
         25    2    1    2    0    0  0.16537424165E+02  0.40647789103E+02  0.69840934235E+02  0.14977479861E+03  0.12501601916E+03 0.  0.
         25    2    1    2    0    0 -0.16537424165E+02 -0.40647789103E+02  0.81484116295E+02  0.15553475351E+03  0.12500267671E+03 0.  0.
          5    1    3    3  501    0  0.57567912401E+02  0.12068336497E+02 -0.54631730567E+01  0.59259138906E+02  0.47000000000E+01 0.  1.
         -5    1    3    3    0  501 -0.41030488236E+02  0.28579452606E+02  0.75304107292E+02  0.90515659701E+02  0.47000000000E+01 0.  1.
          5    1    4    4  502    0 -0.67509443042E+02 -0.19726363964E+01  0.34290940964E+02  0.75890545039E+02  0.47000000000E+01 0. -1.
         -5    1    4    4    0  502  0.50972018878E+02 -0.38675152706E+02  0.47193175331E+02  0.79644208472E+02  0.47000000000E+01 0. -1.
<mgrwt>
<rscale>  0 0.26516910E+03</rscale>
<asrwt>0</asrwt>
<pdfrwt beam="1">  1       21 0.35125738E-01 0.26516910E+03</pdfrwt>
<pdfrwt beam="2">  1       21 0.11844962E-01 0.26516910E+03</pdfrwt>
<totfact> 0.46250296E+05</totfact>
</mgrwt>
</event>
<event>
 8    1  0.9175398E-006  0.2655389E+03  0.7546771E-02  0.1103860E+00
         21   -1    0    0  504  503  0.00000000000E+00  0.00000000000E+00  0.43481191515E+03  0.43481191515E+03  0.00000000000E+00 0. -1.
         21   -1    0    0  503  504 -0.00000000000E+00 -0.00000000000E+00 -0.40541041350E+02  0.40541041350E+02  0.00000000000E+00 0. -1.
         25    2    1    2    0    0 -0.16770449304E+02 -0.15907102990E+02  0.26573410792E+03  0.29457474778E+03  0.12500152810E+03 0.  0.
         25    2    1    2    0    0  0.16770449304E+02  0.15907102990E+02  0.12853676589E+03  0.18077820872E+03  0.12499910667E+03 0.  0.
          5    1    3    3  501    0 -0.68906681413E+02 -0.20251552646E+01  0.18380986699E+03  0.19636799434E+03  0.47000000000E+01 0.  1.
         -5    1    3    3    0  501  0.52136232109E+02 -0.13881947725E+02  0.81924240925E+02  0.98206753446E+02  0.47000000000E+01 0.  1.
          5    1    4    4  502    0 -0.47858110202E+02 -0.22469221393E+01  0.18054507152E+02  0.51415003644E+02  0.47000000000E+01 0. -1.
         -5    1    4    4    0  502  0.64628559506E+02  0.18154025129E+02  0.11048225874E+03  0.12936320508E+03  0.47000000000E+01 0. -1.
<mgrwt>
<rscale>  0 0.26553891E+03</rscale>
<asrwt>0</asrwt>
<pdfrwt beam="1">  1       21 0.66894138E-01 0.26553891E+03</pdfrwt>
<pdfrwt beam="2">  1       21 0.62370836E-02 0.26553891E+03</pdfrwt>
<totfact> 0.37125401E+05</totfact>
</mgrwt>
</event>
<event>
 8    1  0.9175398E-006  0.3082031E+03  0.7546771E-02  0.1081210E+00
         21   -1    0    0  504  503  0.00000000000E+00  0.00000000000E+00  0.62463624039E+03  0.62463624039E+03  0.00000000000E+00 0.  1.
         21   -1    0    0  503  504 -0.00000000000E+00 -0.00000000000E+00 -0.38017798904E+02  0.38017798904E+02  0.00000000000E+00 0.  1.
         25    2    1    2    0    0 -0.45530963421E+02 -0.48226689122E+02  0.16211431720E+03  0.21518600684E+03  0.12500033411E+03 0.  0.
         25    2    1    2    0    0  0.45530963421E+02  0.48226689122E+02  0.42450412428E+03  0.44746803245E+03  0.12500002542E+03 0.  0.
          5    1    3    3  501    0  0.35384061196E+02 -0.82696184809E+01  0.97327574118E+02  0.10399598579E+03  0.47000000000E+01 0.  1.
         -5    1    3    3    0  501 -0.80915024617E+02 -0.39957070641E+02  0.64786743081E+02  0.11119002105E+03  0.47000000000E+01 0.  1.
          5    1    4    4  502    0 -0.37200223883E+02  0.22604267853E+02  0.70465034254E+02  0.82959150397E+02  0.47000000000E+01 0.  1.
         -5    1    4    4    0  502  0.82731187305E+02  0.25622421269E+02  0.35403909003E+03  0.36450888205E+03  0.47000000000E+01 0.  1.
<mgrwt>
<rscale>  0 0.30820315E+03</rscale>
<asrwt>0</asrwt>
<pdfrwt beam="1">  1       21 0.96097876E-01 0.30820315E+03</pdfrwt>
<pdfrwt beam="2">  1       21 0.58488926E-02 0.30820315E+03</pdfrwt>
<totfact> 0.17936504E+05</totfact>
</mgrwt>
</event>
<event>
 8    1  0.9175398E-006  0.2831122E+03  0.7546771E-02  0.1094001E+00
         21   -1    0    0  504  503  0.00000000000E+00  0.00000000000E+00  0.19928869838E+04  0.19928869838E+04  0.00000000000E+00 0. -1.
         21   -1    0    0  503  504 -0.00000000000E+00 -0.00000000000E+00 -0.10054824377E+02  0.10054824377E+02  0.00000000000E+00 0. -1.
         25    2    1    2    0    0  0.49163495197E+02  0.10990358112E+02  0.68501937261E+03  0.69815022981E+03  0.12499746118E+03 0.  0.
         25    2    1    2    0    0 -0.49163495197E+02 -0.10990358112E+02  0.12978127868E+04  0.13047915783E+04  0.12500078452E+03 0.  0.
          5    1    3    3  501    0 -0.34730131501E+02  0.15194240096E+02  0.98843879845E+02  0.10596815347E+03  0.47000000000E+01 0. -1.
         -5    1    3    3    0  501  0.83893626698E+02 -0.42038819834E+01  0.58617549277E+03  0.59218207634E+03  0.47000000000E+01 0. -1.
          5    1    4    4  502    0 -0.73306508596E+02 -0.35261717178E+02  0.53240159808E+03  0.53860076544E+03  0.47000000000E+01 0. -1.
         -5    1    4    4    0  502  0.24143013399E+02  0.24271359065E+02  0.76541118869E+03  0.76619081288E+03  0.47000000000E+01 0. -1.
<mgrwt>
<rscale>  0 0.28311219E+03</rscale>
<asrwt>0</asrwt>
<pdfrwt beam="1">  1       21 0.30659768E+00 0.28311219E+03</pdfrwt>
<pdfrwt beam="2">  1       21 0.15468976E-02 0.28311219E+03</pdfrwt>
<totfact> 0.54520631E+04</totfact>
</mgrwt>
</event>
<event>
 8    1  0.9175398E-006  0.3017571E+03  0.7546771E-02  0.1084366E+00
         21   -1    0    0  504  503  0.00000000000E+00  0.00000000000E+00  0.13954857141E+03  0.13954857141E+03  0.00000000000E+00 0. -1.
         21   -1    0    0  503  504 -0.00000000000E+00 -0.00000000000E+00 -0.16312840342E+03  0.16312840342E+03  0.00000000000E+00 0. -1.
         25    2    1    2    0    0 -0.39422952952E+02 -0.57566871492E+02  0.36012767832E+02  0.14761501269E+03  0.12500063445E+03 0.  0.
         25    2    1    2    0    0  0.39422952952E+02  0.57566871492E+02 -0.59592599845E+02  0.15506196214E+03  0.12499928093E+03 0.  0.
          5    1    3    3  501    0  0.42772389794E+02 -0.94792845594E+00  0.73266033756E+01  0.43659420679E+02  0.47000000000E+01 0. -1.
         -5    1    3    3    0  501 -0.82195342746E+02 -0.56618943036E+02  0.28686164456E+02  0.10395559201E+03  0.47000000000E+01 0. -1.
          5    1    4    4  502    0  0.74518401088E+02  0.62609518641E+02 -0.16119048083E+02  0.98766682825E+02  0.47000000000E+01 0. -1.
         -5    1    4    4    0  502 -0.35095448136E+02 -0.50426471493E+01 -0.43473551761E+02  0.56295279313E+02  0.47000000000E+01 0. -1.
<mgrwt>
<rscale>  0 0.30175709E+03</rscale>
<asrwt>0</asrwt>
<pdfrwt beam="1">  1       21 0.21469011E-01 0.30175709E+03</pdfrwt>
<pdfrwt beam="2">  1       21 0.25096678E-01 0.30175709E+03</pdfrwt>
<totfact> 0.29636655E+05</totfact>
</mgrwt>
</event>
<event>
 8    1  0.9175398E-006  0.3939117E+03  0.7546771E-02  0.1045908E+00
         21   -1    0    0  504  503  0.00000000000E+00  0.00000000000E+00  0.32640554219E+03  0.32640554219E+03  0.00000000000E+00 0. -1.
         21   -1    0    0  503  504 -0.00000000000E+00 -0.00000000000E+00 -0.11884484088E+03  0.11884484088E+03  0.00000000000E+00 0. -1.
         25    2    1    2    0    0  0.15153554360E+03  0.41473719501E+01  0.11922900468E+03  0.22982718378E+03  0.12499902872E+03 0.  0.
         25    2    1    2    0    0 -0.15153554360E+03 -0.41473719501E+01  0.88331696637E+02  0.21542319929E+03  0.12499777795E+03 0.  0.
          5    1    3    3  501    0 -0.19657322963E+02  0.59357636460E+01  0.30149454643E+02  0.36779386230E+02  0.47000000000E+01 0.  1.
         -5    1    3    3    0  501  0.17119286656E+03 -0.17883916959E+01  0.89079550035E+02  0.19304779755E+03  0.47000000000E+01 0.  1.
          5    1    4    4  502    0 -0.12295529255E+03 -0.57266788960E+02  0.55942233994E+02  0.14679616013E+03  0.47000000000E+01 0.  1.
         -5    1    4    4    0  502 -0.28580251046E+02  0.53119417010E+02  0.32389462643E+02  0.68627039158E+02  0.47000000000E+01 0.  1.
<mgrwt>
<rscale>  0 0.39391174E+03</rscale>
<asrwt>0</asrwt>
<pdfrwt beam="1">  1       21 0.50216237E-01 0.39391174E+03</pdfrwt>
<pdfrwt beam="2">  1       21 0.18283822E-01 0.39391174E+03</pdfrwt>
<totfact> 0.97091794E+04</totfact>
</mgrwt>
</event>
<event>
 8    1  0.9175398E-006  0.2704146E+03  0.7546771E-02  0.1101043E+00
         21   -1    0    0  504  503  0.00000000000E+00  0.00000000000E+00  0.10820334031E+03  0.10820334031E+03  0.00000000000E+00 0.  1.
         21   -1    0    0  503  504 -0.00000000000E+00 -0.00000000000E+00 -0.16895055280E+03  0.16895055280E+03  0.00000000000E+00 0.  1.
         25    2    1    2    0    0  0.49183436778E+02 -0.43212707352E+01 -0.45554218732E+02  0.14190391996E+03  0.12499540721E+03 0.  0.
         25    2    1    2    0    0 -0.49183436778E+02  0.43212707352E+01 -0.15192993760E+02  0.13524997315E+03  0.12499617731E+03 0.  0.
          5    1    3    3  501    0  0.18295462123E+02 -0.39090729150E+02 -0.74998708839E+02  0.86658556226E+02  0.47000000000E+01 0. -1.
         -5    1    3    3    0  501  0.30887974655E+02  0.34769458415E+02  0.29444490107E+02  0.55245363737E+02  0.47000000000E+01 0. -1.
          5    1    4    4  502    0 -0.47679363118E+02  0.51898857235E+02  0.22739146205E+02  0.74202235948E+02  0.47000000000E+01 0.  1.
         -5    1    4    4    0  502 -0.15040736598E+01 -0.47577586499E+02 -0.37932139965E+02  0.61047737198E+02  0.47000000000E+01 0.  1.
<mgrwt>
<rscale>  0 0.27041460E+03</rscale>
<asrwt>0</asrwt>
<pdfrwt beam="1">  1       21 0.16646668E-01 0.27041460E+03</pdfrwt>
<pdfrwt beam="2">  1       21 0.25992393E-01 0.27041460E+03</pdfrwt>
<totfact> 0.44884340E+05</totfact>
</mgrwt>
</event>
<event>
 8    1  0.9175398E-006  0.3646360E+03  0.7546771E-02  0.1056763E+00
         21   -1    0    0  504  503  0.00000000000E+00  0.00000000000E+00  0.81895938859E+03  0.81895938859E+03  0.00000000000E+00 0. -1.
         21   -1    0    0  503  504 -0.00000000000E+00 -0.00000000000E+00 -0.40587913242E+02  0.40587913242E+02  0.00000000000E+00 0. -1.
         25    2    1    2    0    0 -0.25792588555E+02 -0.52724409176E+01  0.82508578409E+02  0.15207145877E+03  0.12500002722E+03 0.  0.
         25    2    1    2    0    0  0.25792588555E+02  0.52724409176E+01  0.69586289694E+03  0.70747584306E+03  0.12491533500E+03 0.  0.
          5    1    3    3  501    0  0.11970188922E+01  0.58142928293E+02  0.43133558715E+02  0.72557748395E+02  0.47000000000E+01 0. -1.
         -5    1    3    3    0  501 -0.26989607448E+02 -0.63415369211E+02  0.39375019694E+02  0.79513710379E+02  0.47000000000E+01 0. -1.
          5    1    4    4  502    0 -0.34361106500E+02  0.35824548652E+02  0.16636915862E+03  0.17368036984E+03  0.47000000000E+01 0. -1.
         -5    1    4    4    0  502  0.60153695056E+02 -0.30552107734E+02  0.52949373831E+03  0.53379547322E+03  0.47000000000E+01 0. -1.
<mgrwt>
<rscale>  0 0.36463600E+03</rscale>
<asrwt>0</asrwt>
<pdfrwt beam="1">  1       21 0.12599374E+00 0.36463600E+03</pdfrwt>
<pdfrwt beam="2">  1       21 0.62442950E-02 0.36463600E+03</pdfrwt>
<totfact> 0.80936197E+04</totfact>
</mgrwt>
</event>
<event>
 8    1  0.9175398E-006  0.2941969E+03  0.7546771E-02  0.1088178E+00
         21   -1    0    0  504  503  0.00000000000E+00  0.00000000000E+00  0.37108299291E+03  0.37108299291E+03  0.00000000000E+00 0. -1.
         21   -1    0    0  503  504 -0.00000000000E+00 -0.00000000000E+00 -0.58310282767E+02  0.58310282767E+02  0.00000000000E+00 0. -1.
         25    2    1    2    0    0  0.43602626525E+02 -0.64104854609E+02  0.15384316310E+03  0.21284415063E+03  0.12499716876E+03 0.  0.
         25    2    1    2    0    0 -0.43602626525E+02  0.64104854609E+02  0.15892954705E+03  0.21654912505E+03  0.12499720482E+03 0.  0.
          5    1    3    3  501    0 -0.27599886545E+02 -0.15209729810E+02 -0.47306578538E+01  0.32211158655E+02  0.47000000000E+01 0. -1.
         -5    1    3    3    0  501  0.71202513070E+02 -0.48895124798E+02  0.15857382095E+03  0.18063299197E+03  0.47000000000E+01 0. -1.
          5    1    4    4  502    0  0.21535767238E+02  0.73352343914E+02  0.11164498465E+03  0.13539220150E+03  0.47000000000E+01 0.  1.
         -5    1    4    4    0  502 -0.65138393763E+02 -0.92474893049E+01  0.47284562396E+02  0.81156923559E+02  0.47000000000E+01 0.  1.
<mgrwt>
<rscale>  0 0.29419690E+03</rscale>
<asrwt>0</asrwt>
<pdfrwt beam="1">  1       21 0.57089690E-01 0.29419690E+03</pdfrwt>
<pdfrwt beam="2">  1       21 0.89708130E-02 0.29419690E+03</pdfrwt>
<totfact> 0.27607945E+05</totfact>
</mgrwt>
</event>
<event>
 8    1  0.9175398E-006  0.3203519E+03  0.7546771E-02  0.1075487E+00
         21   -1    0    0  504  503  0.00000000000E+00  0.00000000000E+00  0.52751697677E+02  0.52751697677E+02  0.00000000000E+00 0. -1.
         21   -1    0    0  503  504 -0.00000000000E+00 -0.00000000000E+00 -0.48636041190E+03  0.48636041190E+03  0.00000000000E+00 0. -1.
         25    2    1    2    0    0 -0.93594076447E+02 -0.34278356027E+02 -0.23336922935E+03  0.28287965168E+03  0.12499937315E+03 0.  0.
         25    2    1    2    0    0  0.93594076447E+02  0.34278356027E+02 -0.20023948487E+03  0.25623245790E+03  0.12499745733E+03 0.  0.
          5    1    3    3  501    0 -0.41412616761E+02  0.36037580689E+02 -0.33154562426E+02  0.64304176058E+02  0.47000000000E+01 0. -1.
         -5    1    3    3    0  501 -0.52181459686E+02 -0.70315936716E+02 -0.20021466693E+03  0.21857547562E+03  0.47000000000E+01 0. -1.
          5    1    4    4  502    0  0.12317253095E+03  0.14809032501E+02 -0.15607853622E+03  0.19943264350E+03  0.47000000000E+01 0. -1.
         -5    1    4    4    0  502 -0.29578454506E+02  0.19469323526E+02 -0.44160948651E+02  0.56799814395E+02  0.47000000000E+01 0. -1.
<mgrwt>
<rscale>  0 0.32035192E+03</rscale>
<asrwt>0</asrwt>
<pdfrwt beam="1">  1       21 0.81156455E-02 0.32035192E+03</pdfrwt>
<pdfrwt beam="2">  1       21 0.74824682E-01 0.32035192E+03</pdfrwt>
<totfact> 0.18042641E+05</totfact>
</mgrwt>
</event>
<event>
 8    1  0.9175398E-006  0.3154455E+03  0.7546771E-02  0.1077765E+00
         21   -1    0    0  504  503  0.00000000000E+00  0.00000000000E+00  0.26914692933E+02  0.26914692933E+02  0.00000000000E+00 0.  1.
         21   -1    0    0  503  504 -0.00000000000E+00 -0.00000000000E+00 -0.92427101992E+03  0.92427101992E+03  0.00000000000E+00 0.  1.
         25    2    1    2    0    0  0.73606301386E+02 -0.57427598585E+02 -0.51866201642E+03  0.54161302437E+03  0.12497425415E+03 0.  0.
         25    2    1    2    0    0 -0.73606301386E+02  0.57427598585E+02 -0.37869431056E+03  0.40957268848E+03  0.12499835846E+03 0.  0.
          5    1    3    3  501    0  0.43260932572E+02 -0.29501030920E+02 -0.54956129199E+02  0.76053173825E+02  0.47000000000E+01 0.  1.
         -5    1    3    3    0  501  0.30345368814E+02 -0.27926567665E+02 -0.46370588722E+03  0.46555985054E+03  0.47000000000E+01 0.  1.
          5    1    4    4  502    0 -0.66439635216E+02 -0.26401136596E+02 -0.18139075039E+03  0.19502804791E+03  0.47000000000E+01 0.  1.
         -5    1    4    4    0  502 -0.71666661693E+01  0.83828735182E+02 -0.19730356017E+03  0.21454464058E+03  0.47000000000E+01 0.  1.
<mgrwt>
<rscale>  0 0.31544553E+03</rscale>
<asrwt>0</asrwt>
<pdfrwt beam="1">  1       21 0.41407216E-02 0.31544553E+03</pdfrwt>
<pdfrwt beam="2">  1       21 0.14219556E+00 0.31544553E+03</pdfrwt>
<totfact> 0.12140655E+05</totfact>
</mgrwt>
</event>
<event>
 8    1  0.9175398E-006  0.3340294E+03  0.7546771E-02  0.1069368E+00
         21   -1    0    0  504  503  0.00000000000E+00  0.00000000000E+00  0.72282309377E+02  0.72282309377E+02  0.00000000000E+00 0.  1.
         21   -1    0    0  503  504 -0.00000000000E+00 -0.00000000000E+00 -0.38590234201E+03  0.38590234201E+03  0.00000000000E+00 0.  1.
         25    2    1    2    0    0 -0.57475634924E+02  0.23678199339E+01 -0.28660430873E+03  0.31796152863E+03  0.12509375972E+03 0.  0.
         25    2    1    2    0    0  0.57475634924E+02 -0.23678199339E+01 -0.27015723902E+02  0.14022312276E+03  0.12499447843E+03 0.  0.
          5    1    3    3  501    0  0.12558750543E+02 -0.45507345165E+02 -0.63792965309E+02  0.79500145296E+02  0.47000000000E+01 0. -1.
         -5    1    3    3    0  501 -0.70034385467E+02  0.47875165098E+02 -0.22281134342E+03  0.23846138333E+03  0.47000000000E+01 0. -1.
          5    1    4    4  502    0 -0.25498987368E+02 -0.30972566932E+02  0.14633312289E+02  0.42961867833E+02  0.47000000000E+01 0.  1.
         -5    1    4    4    0  502  0.82974622292E+02  0.28604746998E+02 -0.41649036191E+02  0.97261254932E+02  0.47000000000E+01 0.  1.
<mgrwt>
<rscale>  0 0.33402941E+03</rscale>
<asrwt>0</asrwt>
<pdfrwt beam="1">  1       21 0.11120355E-01 0.33402941E+03</pdfrwt>
<pdfrwt beam="2">  1       21 0.59369591E-01 0.33402941E+03</pdfrwt>
<totfact> 0.17138821E+05</totfact>
</mgrwt>
</event>
<event>
 8    1  0.9175398E-006  0.3312378E+03  0.7546771E-02  0.1070590E+00
         21   -1    0    0  504  503  0.00000000000E+00  0.00000000000E+00  0.27053265050E+03  0.27053265050E+03  0.00000000000E+00 0. -1.
         21   -1    0    0  503  504 -0.00000000000E+00 -0.00000000000E+00 -0.10139117931E+03  0.10139117931E+03  0.00000000000E+00 0. -1.
         25    2    1    2    0    0 -0.27428636616E+02  0.87085073059E+02  0.18462416192E+02  0.15589306259E+03  0.12500258436E+03 0.  0.
         25    2    1    2    0    0  0.27428636616E+02 -0.87085073059E+02  0.15067905500E+03  0.21603076723E+03  0.12501589786E+03 0.  0.
          5    1    3    3  501    0 -0.73731355653E+02  0.68490209255E+02 -0.43279514126E+01  0.10083671322E+03  0.47000000000E+01 0. -1.
         -5    1    3    3    0  501  0.46302719038E+02  0.18594863804E+02  0.22790367605E+02  0.55056349368E+02  0.47000000000E+01 0. -1.
          5    1    4    4  502    0 -0.24286259417E+02 -0.65521789734E+02  0.14306836644E+03  0.15929084971E+03  0.47000000000E+01 0. -1.
         -5    1    4    4    0  502  0.51714896033E+02 -0.21563283325E+02  0.76106885606E+01  0.56739917517E+02  0.47000000000E+01 0. -1.
<mgrwt>
<rscale>  0 0.33123783E+03</rscale>
<asrwt>0</asrwt>
<pdfrwt beam="1">  1       21 0.41620407E-01 0.33123783E+03</pdfrwt>
<pdfrwt beam="2">  1       21 0.15598643E-01 0.33123783E+03</pdfrwt>
<totfact> 0.19585433E+05</totfact>
</mgrwt>
</event>
<event>
 8    1  0.9175398E-006  0.2797325E+03  0.7546771E-02  0.1095835E+00
         21   -1    0    0  504  503  0.00000000000E+00  0.00000000000E+00  0.10651824707E+02  0.10651824707E+02  0.00000000000E+00 0.  1.
         21   -1    0    0  503  504 -0.00000000000E+00 -0.00000000000E+00 -0.18365465732E+04  0.18365465732E+04  0.00000000000E+00 0.  1.
         25    2    1    2    0    0  0.49942727983E+02  0.62218619308E+01 -0.11604271198E+04  0.11682247034E+04  0.12499947778E+03 0.  0.
         25    2    1    2    0    0 -0.49942727983E+02 -0.62218619308E+01 -0.66546762866E+03  0.67897369455E+03  0.12500050181E+03 0.  0.
          5    1    3    3  501    0  0.69590432083E+02  0.49479454487E+02 -0.65786338007E+03  0.66339834300E+03  0.47000000000E+01 0. -1.
         -5    1    3    3    0  501 -0.19647704099E+02 -0.43257592556E+02 -0.50256373977E+03  0.50482636037E+03  0.47000000000E+01 0. -1.
          5    1    4    4  502    0 -0.10757558754E+01  0.54675125644E+02 -0.32788679828E+03  0.33244904737E+03  0.47000000000E+01 0. -1.
         -5    1    4    4    0  502 -0.48866972108E+02 -0.60896987575E+02 -0.33758083038E+03  0.34652464717E+03  0.47000000000E+01 0. -1.
<mgrwt>
<rscale>  0 0.27973253E+03</rscale>
<asrwt>0</asrwt>
<pdfrwt beam="1">  1       21 0.16387451E-02 0.27973253E+03</pdfrwt>
<pdfrwt beam="2">  1       21 0.28254514E+00 0.27973253E+03</pdfrwt>
<totfact> 0.68879448E+04</totfact>
</mgrwt>
</event>
<event>
 8    1  0.9175398E-006  0.3839466E+03  0.7546771E-02  0.1049485E+00
         21   -1    0    0  504  503  0.00000000000E+00  0.00000000000E+00  0.36046617107E+03  0.36046617107E+03  0.00000000000E+00 0. -1.
         21   -1    0    0  503  504 -0.00000000000E+00 -0.00000000000E+00 -0.10223912818E+03  0.10223912818E+03  0.00000000000E+00 0. -1.
         25    2    1    2    0    0  0.79807282043E+02 -0.29039641745E+02  0.27179486365E+03  0.31098263046E+03  0.12500098194E+03 0.  0.
         25    2    1    2    0    0 -0.79807282043E+02  0.29039641745E+02 -0.13567820759E+02  0.15172266878E+03  0.12499271740E+03 0.  0.
          5    1    3    3  501    0 -0.25799768697E+02 -0.67880622428E+01  0.12009606207E+02  0.29631511860E+02  0.47000000000E+01 0.  1.
         -5    1    3    3    0  501  0.10560705074E+03 -0.22251579502E+02  0.25978525744E+03  0.28135111860E+03  0.47000000000E+01 0.  1.
          5    1    4    4  502    0 -0.98636516696E+02  0.35551163979E+02  0.25151994548E+02  0.10792479102E+03  0.47000000000E+01 0.  1.
         -5    1    4    4    0  502  0.18829234653E+02 -0.65115222332E+01 -0.38719815308E+02  0.43797877767E+02  0.47000000000E+01 0.  1.
<mgrwt>
<rscale>  0 0.38394660E+03</rscale>
<asrwt>0</asrwt>
<pdfrwt beam="1">  1       21 0.55456334E-01 0.38394660E+03</pdfrwt>
<pdfrwt beam="2">  1       21 0.15729097E-01 0.38394660E+03</pdfrwt>
<totfact> 0.10425249E+05</totfact>
</mgrwt>
</event>
<event>
 8    1  0.9175398E-006  0.3496691E+03  0.7546771E-02  0.1062751E+00
         21   -1    0    0  504  503  0.00000000000E+00  0.00000000000E+00  0.40025816957E+02  0.40025816957E+02  0.00000000000E+00 0.  1.
         21   -1    0    0  503  504 -0.00000000000E+00 -0.00000000000E+00 -0.76368520536E+03  0.76368520536E+03  0.00000000000E+00 0.  1.
         25    2    1    2    0    0  0.11245849119E+03  0.47698782625E+02 -0.37205412591E+03  0.41106148229E+03  0.12500073405E+03 0.  0.
         25    2    1    2    0    0 -0.11245849119E+03 -0.47698782625E+02 -0.35160526249E+03  0.39264954002E+03  0.12500125824E+03 0.  0.
          5    1    3    3  501    0  0.21525436485E+02  0.56338442551E+02 -0.25730508748E+03  0.26432056781E+03  0.47000000000E+01 0. -1.
         -5    1    3    3    0  501  0.90933054710E+02 -0.86396599266E+01 -0.11474903843E+03  0.14674091448E+03  0.47000000000E+01 0. -1.
          5    1    4    4  502    0  0.48269184059E+01 -0.11051386913E+02 -0.18565391365E+03  0.18610453500E+03  0.47000000000E+01 0.  1.
         -5    1    4    4    0  502 -0.11728540960E+03 -0.36647395712E+02 -0.16595134884E+03  0.20654500502E+03  0.47000000000E+01 0.  1.
<mgrwt>
<rscale>  0 0.34966912E+03</rscale>
<asrwt>0</asrwt>
<pdfrwt beam="1">  1       21 0.61578186E-02 0.34966912E+03</pdfrwt>
<pdfrwt beam="2">  1       21 0.11749002E+00 0.34966912E+03</pdfrwt>
<totfact> 0.99390025E+04</totfact>
</mgrwt>
</event>
<event>
 8    1  0.9175398E-006  0.3328738E+03  0.7546771E-02  0.1069872E+00
         21   -1    0    0  504  503  0.00000000000E+00  0.00000000000E+00  0.66129112080E+02  0.66129112080E+02  0.00000000000E+00 0.  1.
         21   -1    0    0  503  504 -0.00000000000E+00 -0.00000000000E+00 -0.41889632801E+03  0.41889632801E+03  0.00000000000E+00 0.  1.
         25    2    1    2    0    0  0.58002922788E+02 -0.33389273971E+02 -0.30338436203E+03  0.33488281326E+03  0.12500097931E+03 0.  0.
         25    2    1    2    0    0 -0.58002922788E+02  0.33389273971E+02 -0.49382853904E+02  0.15014262683E+03  0.12499983785E+03 0.  0.
          5    1    3    3  501    0  0.60093361750E+02  0.66353862371E+01 -0.28346799038E+03  0.28988175528E+03  0.47000000000E+01 0. -1.
         -5    1    3    3    0  501 -0.20904389616E+01 -0.40024660208E+02 -0.19916371652E+02  0.45001057983E+02  0.47000000000E+01 0. -1.
          5    1    4    4  502    0  0.22692058670E+02 -0.21725139106E+02 -0.41121140951E+02  0.51961037605E+02  0.47000000000E+01 0.  1.
         -5    1    4    4    0  502 -0.80694981459E+02  0.55114413077E+02 -0.82617129532E+01  0.98181589223E+02  0.47000000000E+01 0.  1.
<mgrwt>
<rscale>  0 0.33287380E+03</rscale>
<asrwt>0</asrwt>
<pdfrwt beam="1">  1       21 0.10173710E-01 0.33287380E+03</pdfrwt>
<pdfrwt beam="2">  1       21 0.64445589E-01 0.33287380E+03</pdfrwt>
<totfact> 0.16808063E+05</totfact>
</mgrwt>
</event>
<event>
 8    1  0.9175398E-006  0.5261655E+03  0.7546771E-02  0.1007166E+00
         21   -1    0    0  504  503  0.00000000000E+00  0.00000000000E+00  0.11552503037E+04  0.11552503037E+04  0.00000000000E+00 0. -1.
         21   -1    0    0  503  504 -0.00000000000E+00 -0.00000000000E+00 -0.59911284441E+02  0.59911284441E+02  0.00000000000E+00 0. -1.
         25    2    1    2    0    0 -0.18571721274E+02 -0.19805601078E+03  0.82109173352E+03  0.85404252187E+03  0.12500360825E+03 0.  0.
         25    2    1    2    0    0  0.18571721274E+02  0.19805601078E+03  0.27424728576E+03  0.36111906629E+03  0.12499725618E+03 0.  0.
          5    1    3    3  501    0 -0.67175370278E+02 -0.13027755944E+03  0.43629820944E+03  0.46028577039E+03  0.47000000000E+01 0.  1.
         -5    1    3    3    0  501  0.48603649004E+02 -0.67778451340E+02  0.38479352407E+03  0.39375675148E+03  0.47000000000E+01 0.  1.
          5    1    4    4  502    0 -0.30919646256E+01  0.16585399227E+03  0.27592997623E+03  0.32198842957E+03  0.47000000000E+01 0. -1.
         -5    1    4    4    0  502  0.21663685899E+02  0.32202018509E+02 -0.16826904637E+01  0.39130636719E+02  0.47000000000E+01 0. -1.
<mgrwt>
<rscale>  0 0.52616549E+03</rscale>
<asrwt>0</asrwt>
<pdfrwt beam="1">  1       21 0.17773080E+00 0.52616549E+03</pdfrwt>
<pdfrwt beam="2">  1       21 0.92171215E-02 0.52616549E+03</pdfrwt>
<totfact> 0.15263680E+04</totfact>
</mgrwt>
</event>
<event>
 8    1  0.9175398E-006  0.4312167E+03  0.7546771E-02  0.1033476E+00
         21   -1    0    0  504  503  0.00000000000E+00  0.00000000000E+00  0.27605026255E+03  0.27605026255E+03  0.00000000000E+00 0.  1.
         21   -1    0    0  503  504 -0.00000000000E+00 -0.00000000000E+00 -0.16840037631E+03  0.16840037631E+03  0.00000000000E+00 0.  1.
         25    2    1    2    0    0  0.15699782097E+03 -0.78102760922E+02  0.42849750821E+02  0.21956748151E+03  0.12500168296E+03 0.  0.
         25    2    1    2    0    0 -0.15699782097E+03  0.78102760922E+02  0.64800135420E+02  0.22488315734E+03  0.12500007941E+03 0.  0.
          5    1    3    3  501    0  0.16802704092E+03 -0.50576240030E+02  0.11126426793E+02  0.17588897041E+03  0.47000000000E+01 0. -1.
         -5    1    3    3    0  501 -0.11029219958E+02 -0.27526520892E+02  0.31723324028E+02  0.43678511109E+02  0.47000000000E+01 0. -1.
          5    1    4    4  502    0 -0.20332165633E+02 -0.24882784871E+02  0.40602936452E+02  0.51992676319E+02  0.47000000000E+01 0.  1.
         -5    1    4    4    0  502 -0.13666565533E+03  0.10298554579E+03  0.24197198968E+02  0.17289048102E+03  0.47000000000E+01 0.  1.
<mgrwt>
<rscale>  0 0.43121673E+03</rscale>
<asrwt>0</asrwt>
<pdfrwt beam="1">  1       21 0.42469271E-01 0.43121673E+03</pdfrwt>
<pdfrwt beam="2">  1       21 0.25907750E-01 0.43121673E+03</pdfrwt>
<totfact> 0.70225748E+04</totfact>
</mgrwt>
</event>
<event>
 8    1  0.9175398E-006  0.4187907E+03  0.7546771E-02  0.1037461E+00
         21   -1    0    0  504  503  0.00000000000E+00  0.00000000000E+00  0.12944089138E+03  0.12944089138E+03  0.00000000000E+00 0. -1.
         21   -1    0    0  503  504 -0.00000000000E+00 -0.00000000000E+00 -0.33873694979E+03  0.33873694979E+03  0.00000000000E+00 0. -1.
         25    2    1    2    0    0 -0.22297639457E+02  0.16647541159E+03 -0.10109416535E+03  0.23249612700E+03  0.12499268544E+03 0.  0.
         25    2    1    2    0    0  0.22297639457E+02 -0.16647541159E+03 -0.10820189306E+03  0.23568171416E+03  0.12500789310E+03 0.  0.
          5    1    3    3  501    0 -0.32121464311E+02  0.15150145099E+03 -0.12721755963E+03  0.20047662108E+03  0.47000000000E+01 0. -1.
         -5    1    3    3    0  501  0.98238248532E+01  0.14973960602E+02  0.26123394278E+02  0.32019505922E+02  0.47000000000E+01 0. -1.
          5    1    4    4  502    0 -0.35177935622E+02 -0.50413679255E+02  0.72987812695E+01  0.62083721045E+02  0.47000000000E+01 0.  1.
         -5    1    4    4    0  502  0.57475575080E+02 -0.11606173234E+03 -0.11550067433E+03  0.17359799312E+03  0.47000000000E+01 0.  1.
<mgrwt>
<rscale>  0 0.41879070E+03</rscale>
<asrwt>0</asrwt>
<pdfrwt beam="1">  1       21 0.19913983E-01 0.41879070E+03</pdfrwt>
<pdfrwt beam="2">  1       21 0.52113378E-01 0.41879070E+03</pdfrwt>
<totfact> 0.75936008E+04</totfact>
</mgrwt>
</event>
<event>
 8    1  0.9175398E-006  0.2868169E+03  0.7546771E-02  0.1092023E+00
         21   -1    0    0  504  503  0.00000000000E+00  0.00000000000E+00  0.91640984475E+02  0.91640984475E+02  0.00000000000E+00 0. -1.
         21   -1    0    0  503  504 -0.00000000000E+00 -0.00000000000E+00 -0.22441908230E+03  0.22441908230E+03  0.00000000000E+00 0. -1.
         25    2    1    2    0    0 -0.57288140100E+01 -0.97744037052E+01  0.10050729992E+02  0.12592114890E+03  0.12500704096E+03 0.  0.
         25    2    1    2    0    0  0.57288140100E+01  0.97744037052E+01 -0.14282882781E+03  0.19013891787E+03  0.12499750301E+03 0.  0.
          5    1    3    3  501    0  0.51305652209E+02 -0.24464066776E+02  0.28855332068E+02  0.63917765141E+02  0.47000000000E+01 0. -1.
         -5    1    3    3    0  501 -0.57034466219E+02  0.14689663071E+02 -0.18804602076E+02  0.62003383757E+02  0.47000000000E+01 0. -1.
          5    1    4    4  502    0  0.41688437914E+02 -0.40618404989E+02 -0.96031568179E+02  0.11239187144E+03  0.47000000000E+01 0.  1.
         -5    1    4    4    0  502 -0.35959623904E+02  0.50392808694E+02 -0.46797259635E+02  0.77747046431E+02  0.47000000000E+01 0.  1.
<mgrwt>
<rscale>  0 0.28681691E+03</rscale>
<asrwt>0</asrwt>
<pdfrwt beam="1">  1       21 0.14098613E-01 0.28681691E+03</pdfrwt>
<pdfrwt beam="2">  1       21 0.34526013E-01 0.28681691E+03</pdfrwt>
<totfact> 0.34762804E+05</totfact>
</mgrwt>
</event>
<event>
 8    1  0.9175398E-006  0.3104362E+03  0.7546771E-02  0.1080137E+00
         21   -1    0    0  504  503  0.00000000000E+00  0.00000000000E+00  0.11151118794E+04  0.11151118794E+04  0.00000000000E+00 0.  1.
         21   -1    0    0  503  504 -0.00000000000E+00 -0.00000000000E+00 -0.21605599487E+02  0.21605599487E+02  0.00000000000E+00 0.  1.
         25    2    1    2    0    0 -0.67714105416E+01  0.91421740357E+02  0.57604645027E+03  0.59653816398E+03  0.12499792640E+03 0.  0.
         25    2    1    2    0    0  0.67714105416E+01 -0.91421740357E+02  0.51745982962E+03  0.54017931488E+03  0.12500092139E+03 0.  0.
          5    1    3    3  501    0  0.55668854287E+02  0.39186621313E+02  0.34065476270E+03  0.34742246613E+03  0.47000000000E+01 0. -1.
         -5    1    3    3    0  501 -0.62440264829E+02  0.52235119044E+02  0.23539168758E+03  0.24911569785E+03  0.47000000000E+01 0. -1.
          5    1    4    4  502    0  0.44381850211E+02 -0.50475915903E+01  0.29716532282E+03  0.30054042306E+03  0.47000000000E+01 0. -1.
         -5    1    4    4    0  502 -0.37610439669E+02 -0.86374148767E+02  0.22029450680E+03  0.23963889182E+03  0.47000000000E+01 0. -1.
<mgrwt>
<rscale>  0 0.31043621E+03</rscale>
<asrwt>0</asrwt>
<pdfrwt beam="1">  1       21 0.17155563E+00 0.31043621E+03</pdfrwt>
<pdfrwt beam="2">  1       21 0.33239392E-02 0.31043621E+03</pdfrwt>
<totfact> 0.10566157E+05</totfact>
</mgrwt>
</event>
<event>
 8    1  0.9175398E-006  0.6727459E+03  0.7546771E-02  0.9765010E-01
         21   -1    0    0  504  503  0.00000000000E+00  0.00000000000E+00  0.13028291283E+03  0.13028291283E+03  0.00000000000E+00 0.  1.
         21   -1    0    0  503  504 -0.00000000000E+00 -0.00000000000E+00 -0.86846962360E+03  0.86846962360E+03  0.00000000000E+00 0.  1.
         25    2    1    2    0    0 -0.24285007602E+03  0.50610045582E+01 -0.66045670639E+03  0.71472879640E+03  0.12502966928E+03 0.  0.
         25    2    1    2    0    0  0.24285007602E+03 -0.50610045582E+01 -0.77730004384E+02  0.28402374002E+03  0.12500303246E+03 0.  0.
          5    1    3    3  501    0 -0.89472899349E+02  0.30382279471E+02 -0.12272456774E+03  0.15495771084E+03  0.47000000000E+01 0. -1.
         -5    1    3    3    0  501 -0.15337717667E+03 -0.25321274913E+02 -0.53773213865E+03  0.55977108556E+03  0.47000000000E+01 0. -1.
          5    1    4    4  502    0  0.57604491272E+01  0.30492088306E+02 -0.20547533528E+02  0.37513215771E+02  0.47000000000E+01 0.  1.
         -5    1    4    4    0  502  0.23708962689E+03 -0.35553092864E+02 -0.57182470855E+02  0.24651052425E+03  0.47000000000E+01 0.  1.
<mgrwt>
<rscale>  0 0.67274587E+03</rscale>
<asrwt>0</asrwt>
<pdfrwt beam="1">  1       21 0.20043526E-01 0.67274587E+03</pdfrwt>
<pdfrwt beam="2">  1       21 0.13361071E+00 0.67274587E+03</pdfrwt>
<totfact> 0.77183708E+03</totfact>
</mgrwt>
</event>
<event>
 8    1  0.9175398E-006  0.3134870E+03  0.7546771E-02  0.1078686E+00
         21   -1    0    0  504  503  0.00000000000E+00  0.00000000000E+00  0.48823964860E+03  0.48823964860E+03  0.00000000000E+00 0. -1.
         21   -1    0    0  503  504 -0.00000000000E+00 -0.00000000000E+00 -0.50320631247E+02  0.50320631247E+02  0.00000000000E+00 0. -1.
         25    2    1    2    0    0  0.60629909483E+02  0.65967925443E+01  0.34313828326E+03  0.37025200132E+03  0.12499263757E+03 0.  0.
         25    2    1    2    0    0 -0.60629909483E+02 -0.65967925443E+01  0.94780734094E+02  0.16830827853E+03  0.12499914188E+03 0.  0.
          5    1    3    3  501    0  0.34160943423E+02 -0.13428510526E+02  0.14241047576E+02  0.39650881284E+02  0.47000000000E+01 0. -1.
         -5    1    3    3    0  501  0.26468966060E+02  0.20025303071E+02  0.32889723568E+03  0.33060112003E+03  0.47000000000E+01 0. -1.
          5    1    4    4  502    0 -0.26254357717E+02 -0.38815891104E+02 -0.14444978161E+02  0.49261669637E+02  0.47000000000E+01 0. -1.
         -5    1    4    4    0  502 -0.34375551766E+02  0.32219098560E+02  0.10922571225E+03  0.11904660889E+03  0.47000000000E+01 0. -1.
<mgrwt>
<rscale>  0 0.31348702E+03</rscale>
<asrwt>0</asrwt>
<pdfrwt beam="1">  1       21 0.75113789E-01 0.31348702E+03</pdfrwt>
<pdfrwt beam="2">  1       21 0.77416359E-02 0.31348702E+03</pdfrwt>
<totfact> 0.19463838E+05</totfact>
</mgrwt>
</event>
<event>
 8    1  0.9175398E-006  0.2703965E+03  0.7546771E-02  0.1101053E+00
         21   -1    0    0  504  503  0.00000000000E+00  0.00000000000E+00  0.32379279797E+03  0.32379279797E+03  0.00000000000E+00 0. -1.
         21   -1    0    0  503  504 -0.00000000000E+00 -0.00000000000E+00 -0.56451432399E+02  0.56451432399E+02  0.00000000000E+00 0. -1.
         25    2    1    2    0    0 -0.22482053867E+02  0.34998078144E+02  0.91020066534E+02  0.16012506515E+03  0.12500030303E+03 0.  0.
         25    2    1    2    0    0  0.22482053867E+02 -0.34998078144E+02  0.17632129904E+03  0.22011916522E+03  0.12503174870E+03 0.  0.
          5    1    3    3  501    0 -0.25186235517E+02  0.21343912199E+02 -0.25938776688E+02  0.42247120417E+02  0.47000000000E+01 0.  1.
         -5    1    3    3    0  501  0.27041816505E+01  0.13654165945E+02  0.11695884322E+03  0.11787794473E+03  0.47000000000E+01 0.  1.
          5    1    4    4  502    0  0.76241338547E+01  0.47212526347E+02  0.61707386026E+02  0.78211518022E+02  0.47000000000E+01 0.  1.
         -5    1    4    4    0  502  0.14857920012E+02 -0.82210604491E+02  0.11461391301E+03  0.14190764720E+03  0.47000000000E+01 0.  1.
<mgrwt>
<rscale>  0 0.27039650E+03</rscale>
<asrwt>0</asrwt>
<pdfrwt beam="1">  1       21 0.49814276E-01 0.27039650E+03</pdfrwt>
<pdfrwt beam="2">  1       21 0.86848359E-02 0.27039650E+03</pdfrwt>
<totfact> 0.39248020E+05</totfact>
</mgrwt>
</event>
<event>
 8    1  0.9175398E-006  0.4027429E+03  0.7546771E-02  0.1042834E+00
         21   -1    0    0  504  503  0.00000000000E+00  0.00000000000E+00  0.56501609723E+03  0.56501609723E+03  0.00000000000E+00 0.  1.
         21   -1    0    0  503  504 -0.00000000000E+00 -0.00000000000E+00 -0.71768697435E+02  0.71768697435E+02  0.00000000000E+00 0.  1.
         25    2    1    2    0    0 -0.51661121974E+02 -0.14740184893E+03  0.21022378570E+03  0.29019934552E+03  0.12500177388E+03 0.  0.
         25    2    1    2    0    0  0.51661121974E+02  0.14740184893E+03  0.28302361410E+03  0.34658544915E+03  0.12499172305E+03 0.  0.
          5    1    3    3  501    0 -0.76276542291E+02 -0.56929713448E+02  0.58617541209E+02  0.11188033480E+03  0.47000000000E+01 0. -1.
         -5    1    3    3    0  501  0.24615420317E+02 -0.90472135486E+02  0.15160624449E+03  0.17831901072E+03  0.47000000000E+01 0. -1.
          5    1    4    4  502    0  0.36855343402E+02  0.62342301271E+02  0.23856358559E+03  0.24935828287E+03  0.47000000000E+01 0.  1.
         -5    1    4    4    0  502  0.14805778573E+02  0.85059547663E+02  0.44460028511E+02  0.97227166281E+02  0.47000000000E+01 0.  1.
<mgrwt>
<rscale>  0 0.40274294E+03</rscale>
<asrwt>0</asrwt>
<pdfrwt beam="1">  1       21 0.86925551E-01 0.40274294E+03</pdfrwt>
<pdfrwt beam="2">  1       21 0.11041338E-01 0.40274294E+03</pdfrwt>
<totfact> 0.72379822E+04</totfact>
</mgrwt>
</event>
<event>
 8    1  0.9175398E-006  0.2684708E+03  0.7546771E-02  0.1102158E+00
         21   -1    0    0  504  503  0.00000000000E+00  0.00000000000E+00  0.58233040738E+02  0.58233040738E+02  0.00000000000E+00 0.  1.
         21   -1    0    0  503  504 -0.00000000000E+00 -0.00000000000E+00 -0.30943164245E+03  0.30943164245E+03  0.00000000000E+00 0.  1.
         25    2    1    2    0    0 -0.39921259621E+02  0.20329226097E+01 -0.86915812429E+02  0.15740707212E+03  0.12499915264E+03 0.  0.
         25    2    1    2    0    0  0.39921259621E+02 -0.20329226097E+01 -0.16428278928E+03  0.21025761107E+03  0.12498635290E+03 0.  0.
          5    1    3    3  501    0 -0.33971836092E+00 -0.58051852052E+02 -0.47989752626E+02  0.75466809209E+02  0.47000000000E+01 0.  1.
         -5    1    3    3    0  501 -0.39581541260E+02  0.60084774661E+02 -0.38926059803E+02  0.81940262914E+02  0.47000000000E+01 0.  1.
          5    1    4    4  502    0  0.89721795093E+00  0.52571656897E+02 -0.31686662417E+02  0.61568812592E+02  0.47000000000E+01 0.  1.
         -5    1    4    4    0  502  0.39024041670E+02 -0.54604579507E+02 -0.13259612687E+03  0.14868879847E+03  0.47000000000E+01 0.  1.
<mgrwt>
<rscale>  0 0.26847082E+03</rscale>
<asrwt>0</asrwt>
<pdfrwt beam="1">  1       21 0.89589291E-02 0.26847082E+03</pdfrwt>
<pdfrwt beam="2">  1       21 0.47604869E-01 0.26847082E+03</pdfrwt>
<totfact> 0.40872096E+05</totfact>
</mgrwt>
</event>
<event>
 8    1  0.9175398E-006  0.3266978E+03  0.7546771E-02  0.1072607E+00
         21   -1    0    0  504  503  0.00000000000E+00  0.00000000000E+00  0.20627401596E+04  0.20627401596E+04  0.00000000000E+00 0.  1.
         21   -1    0    0  503  504 -0.00000000000E+00 -0.00000000000E+00 -0.12935643064E+02  0.12935643064E+02  0.00000000000E+00 0.  1.
         25    2    1    2    0    0  0.73280507161E+02  0.63643223917E+02  0.12823144721E+04  0.12920410998E+04  0.12497722016E+03 0.  0.
         25    2    1    2    0    0 -0.73280507161E+02 -0.63643223917E+02  0.76749004448E+03  0.78363470290E+03  0.12498754550E+03 0.  0.
          5    1    3    3  501    0  0.51881390039E+02  0.26904638267E+01  0.10372751562E+04  0.10385859411E+04  0.47000000000E+01 0. -1.
         -5    1    3    3    0  501  0.21399117122E+02  0.60952760090E+02  0.24503931586E+03  0.25345515874E+03  0.47000000000E+01 0. -1.
          5    1    4    4  502    0 -0.44672275510E+02 -0.84312176565E+02  0.70714462525E+03  0.71356833334E+03  0.47000000000E+01 0.  1.
         -5    1    4    4    0  502 -0.28608231651E+02  0.20668952649E+02  0.60345419224E+02  0.70066369558E+02  0.47000000000E+01 0.  1.
<mgrwt>
<rscale>  0 0.32669784E+03</rscale>
<asrwt>0</asrwt>
<pdfrwt beam="1">  1       21 0.31734438E+00 0.32669784E+03</pdfrwt>
<pdfrwt beam="2">  1       21 0.19901006E-02 0.32669784E+03</pdfrwt>
<totfact> 0.30402183E+04</totfact>
</mgrwt>
</event>
<event>
 8    1  0.9175398E-006  0.2754743E+03  0.7546771E-02  0.1098187E+00
         21   -1    0    0  504  503  0.00000000000E+00  0.00000000000E+00  0.25025052329E+03  0.25025052329E+03  0.00000000000E+00 0. -1.
         21   -1    0    0  503  504 -0.00000000000E+00 -0.00000000000E+00 -0.75810108388E+02  0.75810108388E+02  0.00000000000E+00 0. -1.
         25    2    1    2    0    0 -0.30699549938E+02  0.15749581041E+02  0.14218175336E+03  0.19243306570E+03  0.12499728843E+03 0.  0.
         25    2    1    2    0    0  0.30699549938E+02 -0.15749581041E+02  0.32258661536E+02  0.13362756598E+03  0.12500077390E+03 0.  0.
          5    1    3    3  501    0  0.40025923212E+02  0.19873571391E+02  0.16095912787E+02  0.47730512015E+02  0.47000000000E+01 0.  1.
         -5    1    3    3    0  501 -0.70725473150E+02 -0.41239903499E+01  0.12608584058E+03  0.14470255368E+03  0.47000000000E+01 0.  1.
          5    1    4    4  502    0  0.49091407389E+02 -0.45572929307E+01 -0.36435879496E+02  0.61484945417E+02  0.47000000000E+01 0.  1.
         -5    1    4    4    0  502 -0.18391857451E+02 -0.11192288110E+02  0.68694541033E+02  0.72142620560E+02  0.47000000000E+01 0.  1.
<mgrwt>
<rscale>  0 0.27547428E+03</rscale>
<asrwt>0</asrwt>
<pdfrwt beam="1">  1       21 0.38500080E-01 0.27547428E+03</pdfrwt>
<pdfrwt beam="2">  1       21 0.11663094E-01 0.27547428E+03</pdfrwt>
<totfact> 0.39462850E+05</totfact>
</mgrwt>
</event>
<event>
 8    1  0.9175398E-006  0.3022479E+03  0.7546771E-02  0.1084122E+00
         21   -1    0    0  504  503  0.00000000000E+00  0.00000000000E+00  0.57361432902E+03  0.57361432902E+03  0.00000000000E+00 0. -1.
         21   -1    0    0  503  504 -0.00000000000E+00 -0.00000000000E+00 -0.39814981147E+02  0.39814981147E+02  0.00000000000E+00 0. -1.
         25    2    1    2    0    0  0.18154866398E+02  0.43976634800E+01  0.43505033096E+03  0.45303709215E+03  0.12499951111E+03 0.  0.
         25    2    1    2    0    0 -0.18154866398E+02 -0.43976634800E+01  0.98749016919E+02  0.16039221802E+03  0.12500142656E+03 0.  0.
          5    1    3    3  501    0  0.47957815940E+02 -0.33672753587E+02  0.11332662841E+03  0.12766683654E+03  0.47000000000E+01 0. -1.
         -5    1    3    3    0  501 -0.29802949542E+02  0.38070417067E+02  0.32172370254E+03  0.32537025561E+03  0.47000000000E+01 0. -1.
          5    1    4    4  502    0  0.51765163596E+02  0.14186633994E+02  0.41106014457E+02  0.67769367495E+02  0.47000000000E+01 0.  1.
         -5    1    4    4    0  502 -0.69920029994E+02 -0.18584297474E+02  0.57643002462E+02  0.92622850527E+02  0.47000000000E+01 0.  1.
<mgrwt>
<rscale>  0 0.30224787E+03</rscale>
<asrwt>0</asrwt>
<pdfrwt beam="1">  1       21 0.88248353E-01 0.30224787E+03</pdfrwt>
<pdfrwt beam="2">  1       21 0.61253821E-02 0.30224787E+03</pdfrwt>
<totfact> 0.20271612E+05</totfact>
</mgrwt>
</event>
<event>
 8    1  0.9175398E-006  0.2922136E+03  0.7546771E-02  0.1089199E+00
         21   -1    0    0  504  503  0.00000000000E+00  0.00000000000E+00  0.58403007817E+03  0.58403007817E+03  0.00000000000E+00 0.  1.
         21   -1    0    0  503  504 -0.00000000000E+00 -0.00000000000E+00 -0.36551525862E+02  0.36551525862E+02  0.00000000000E+00 0.  1.
         25    2    1    2    0    0  0.69017237064E+02  0.77733697936E+00  0.33946522256E+03  0.36827311107E+03  0.12499785498E+03 0.  0.
         25    2    1    2    0    0 -0.69017237064E+02 -0.77733697936E+00  0.20801332975E+03  0.25230849296E+03  0.12500418793E+03 0.  0.
          5    1    3    3  501    0  0.39468180642E+01  0.39153087864E+02  0.30052603342E+02  0.49737215742E+02  0.47000000000E+01 0.  1.
         -5    1    3    3    0  501  0.65070419000E+02 -0.38375750885E+02  0.30941261921E+03  0.31853589533E+03  0.47000000000E+01 0.  1.
          5    1    4    4  502    0 -0.28716558594E+02 -0.22776060769E+02  0.20247983482E+03  0.20582410741E+03  0.47000000000E+01 0.  1.
         -5    1    4    4    0  502 -0.40300678470E+02  0.21998723790E+02  0.55334949267E+01  0.46484385547E+02  0.47000000000E+01 0.  1.
<mgrwt>
<rscale>  0 0.29221356E+03</rscale>
<asrwt>0</asrwt>
<pdfrwt beam="1">  1       21 0.89850774E-01 0.29221356E+03</pdfrwt>
<pdfrwt beam="2">  1       21 0.56233121E-02 0.29221356E+03</pdfrwt>
<totfact> 0.22581292E+05</totfact>
</mgrwt>
</event>
<event>
 8    1  0.9175398E-006  0.2657676E+03  0.7546771E-02  0.1103727E+00
         21   -1    0    0  504  503  0.00000000000E+00  0.00000000000E+00  0.22775736122E+03  0.22775736122E+03  0.00000000000E+00 0.  1.
         21   -1    0    0  503  504 -0.00000000000E+00 -0.00000000000E+00 -0.77530335046E+02  0.77530335046E+02  0.00000000000E+00 0.  1.
         25    2    1    2    0    0  0.35933130285E+02 -0.11924883285E+01  0.43853424900E+02  0.13725878486E+03  0.12499695703E+03 0.  0.
         25    2    1    2    0    0 -0.35933130285E+02  0.11924883285E+01  0.10637360127E+03  0.16802891140E+03  0.12500304052E+03 0.  0.
          5    1    3    3  501    0 -0.27253478189E+02  0.28916951079E+02  0.53113697205E+02  0.66498849342E+02  0.47000000000E+01 0. -1.
         -5    1    3    3    0  501  0.63186608474E+02 -0.30109439408E+02 -0.92602723044E+01  0.70759935522E+02  0.47000000000E+01 0. -1.
          5    1    4    4  502    0 -0.17034931807E+02  0.57151223224E+02  0.19587886605E+02  0.62946219262E+02  0.47000000000E+01 0.  1.
         -5    1    4    4    0  502 -0.18898198478E+02 -0.55958734896E+02  0.86785714665E+02  0.10508269214E+03  0.47000000000E+01 0.  1.
<mgrwt>
<rscale>  0 0.26576760E+03</rscale>
<asrwt>0</asrwt>
<pdfrwt beam="1">  1       21 0.35039594E-01 0.26576760E+03</pdfrwt>
<pdfrwt beam="2">  1       21 0.11927744E-01 0.26576760E+03</pdfrwt>
<totfact> 0.45893876E+05</totfact>
</mgrwt>
</event>
<event>
 8    1  0.9175398E-006  0.2738982E+03  0.7546771E-02  0.1099069E+00
         21   -1    0    0  504  503  0.00000000000E+00  0.00000000000E+00  0.29075681883E+03  0.29075681883E+03  0.00000000000E+00 0. -1.
         21   -1    0    0  503  504 -0.00000000000E+00 -0.00000000000E+00 -0.64504263070E+02  0.64504263070E+02  0.00000000000E+00 0. -1.
         25    2    1    2    0    0 -0.55749234425E+02 -0.33492596676E+01  0.10859422537E+03  0.17473914398E+03  0.12498747128E+03 0.  0.
         25    2    1    2    0    0  0.55749234425E+02  0.33492596676E+01  0.11765833040E+03  0.18052193792E+03  0.12500197070E+03 0.  0.
          5    1    3    3  501    0  0.35243386515E+02  0.22265349033E+02  0.38783157185E+02  0.57131999281E+02  0.47000000000E+01 0. -1.
         -5    1    3    3    0  501 -0.90992620939E+02 -0.25614608701E+02  0.69811068180E+02  0.11760714470E+03  0.47000000000E+01 0. -1.
          5    1    4    4  502    0  0.24288267611E+02  0.40820807563E+02 -0.53747330414E+01  0.48033696806E+02  0.47000000000E+01 0.  1.
         -5    1    4    4    0  502  0.31460966813E+02 -0.37471547895E+02  0.12303306344E+03  0.13248824111E+03  0.47000000000E+01 0.  1.
<mgrwt>
<rscale>  0 0.27389819E+03</rscale>
<asrwt>0</asrwt>
<pdfrwt beam="1">  1       21 0.44731818E-01 0.27389819E+03</pdfrwt>
<pdfrwt beam="2">  1       21 0.99237329E-02 0.27389819E+03</pdfrwt>
<totfact> 0.38761015E+05</totfact>
</mgrwt>
</event>
<event>
 8    1  0.9175398E-006  0.2907810E+03  0.7546771E-02  0.1089942E+00
         21   -1    0    0  504  503  0.00000000000E+00  0.00000000000E+00  0.78401178023E+03  0.78401178023E+03  0.00000000000E+00 0. -1.
         21   -1    0    0  503  504 -0.00000000000E+00 -0.00000000000E+00 -0.26961831048E+02  0.26961831048E+02  0.00000000000E+00 0. -1.
         25    2    1    2    0    0 -0.63384330202E+02 -0.38621278652E+02  0.38431058854E+03  0.41088807854E+03  0.12500083255E+03 0.  0.
         25    2    1    2    0    0  0.63384330202E+02  0.38621278652E+02  0.37273936064E+03  0.40008553274E+03  0.12499850423E+03 0.  0.
          5    1    3    3  501    0 -0.10836999422E+02 -0.72946516683E+02  0.13660907412E+03  0.15531504751E+03  0.47000000000E+01 0.  1.
         -5    1    3    3    0  501 -0.52547330780E+02  0.34325238031E+02  0.24770151442E+03  0.25557303102E+03  0.47000000000E+01 0.  1.
          5    1    4    4  502    0  0.86756535646E+02  0.43462605040E+02  0.16926847699E+03  0.19516557539E+03  0.47000000000E+01 0. -1.
         -5    1    4    4    0  502 -0.23372205443E+02 -0.48413263880E+01  0.20347088365E+03  0.20491995735E+03  0.47000000000E+01 0. -1.
<mgrwt>
<rscale>  0 0.29078097E+03</rscale>
<asrwt>0</asrwt>
<pdfrwt beam="1">  1       21 0.12061718E+00 0.29078097E+03</pdfrwt>
<pdfrwt beam="2">  1       21 0.41479746E-02 0.29078097E+03</pdfrwt>
<totfact> 0.18614567E+05</totfact>
</mgrwt>
</event>
<event>
 8    1  0.9175398E-006  0.2774198E+03  0.7546771E-02  0.1097107E+00
         21   -1    0    0  504  503  0.00000000000E+00  0.00000000000E+00  0.18893204339E+03  0.18893204339E+03  0.00000000000E+00 0.  1.
         21   -1    0    0  503  504 -0.00000000000E+00 -0.00000000000E+00 -0.10183787470E+03  0.10183787470E+03  0.00000000000E+00 0.  1.
         25    2    1    2    0    0  0.48177447299E+02 -0.22761395314E+02  0.14298863288E+02  0.13663332254E+03  0.12500023917E+03 0.  0.
         25    2    1    2    0    0 -0.48177447299E+02  0.22761395314E+02  0.72795305402E+02  0.15413659555E+03  0.12497914247E+03 0.  0.
          5    1    3    3  501    0 -0.25415285157E+02 -0.15349353859E+01 -0.36393916025E+02  0.44664301963E+02  0.47000000000E+01 0. -1.
         -5    1    3    3    0  501  0.73592732456E+02 -0.21226459928E+02  0.50692779313E+02  0.91969020577E+02  0.47000000000E+01 0. -1.
          5    1    4    4  502    0 -0.50236903048E+02  0.16619499717E+02 -0.23085579782E+02  0.57922259906E+02  0.47000000000E+01 0. -1.
         -5    1    4    4    0  502  0.20594557493E+01  0.61418955968E+01  0.95880885184E+02  0.96214335643E+02  0.47000000000E+01 0. -1.
<mgrwt>
<rscale>  0 0.27741981E+03</rscale>
<asrwt>0</asrwt>
<pdfrwt beam="1">  1       21 0.29066468E-01 0.27741981E+03</pdfrwt>
<pdfrwt beam="2">  1       21 0.15667365E-01 0.27741981E+03</pdfrwt>
<totfact> 0.40339816E+05</totfact>
</mgrwt>
</event>
<event>
 8    1  0.9175398E-006  0.2708545E+03  0.7546771E-02  0.1100792E+00
         21   -1    0    0  504  503  0.00000000000E+00  0.00000000000E+00  0.61618889004E+03  0.61618889004E+03  0.00000000000E+00 0. -1.
         21   -1    0    0  503  504 -0.00000000000E+00 -0.00000000000E+00 -0.29764485642E+02  0.29764485642E+02  0.00000000000E+00 0. -1.
         25    2    1    2    0    0 -0.76688495731E+01 -0.46817278528E+02  0.34467620755E+03  0.36969687274E+03  0.12499368320E+03 0.  0.
         25    2    1    2    0    0  0.76688495731E+01  0.46817278528E+02  0.24174819685E+03  0.27625650294E+03  0.12499918366E+03 0.  0.
          5    1    3    3  501    0 -0.32018820919E+02 -0.24378975198E+01  0.14355476497E+02  0.35486870006E+02  0.47000000000E+01 0.  1.
         -5    1    3    3    0  501  0.24349971346E+02 -0.44379381008E+02  0.33032073105E+03  0.33421000273E+03  0.47000000000E+01 0.  1.
          5    1    4    4  502    0 -0.41214616699E+02  0.19663219082E+02  0.24817326975E+02  0.52185022109E+02  0.47000000000E+01 0. -1.
         -5    1    4    4    0  502  0.48883466272E+02  0.27154059446E+02  0.21693086987E+03  0.22407148083E+03  0.47000000000E+01 0. -1.
<mgrwt>
<rscale>  0 0.27085454E+03</rscale>
<asrwt>0</asrwt>
<pdfrwt beam="1">  1       21 0.94798281E-01 0.27085454E+03</pdfrwt>
<pdfrwt beam="2">  1       21 0.45791521E-02 0.27085454E+03</pdfrwt>
<totfact> 0.28433474E+05</totfact>
</mgrwt>
</event>
<event>
 8    1  0.9175398E-006  0.3024185E+03  0.7546771E-02  0.1084038E+00
         21   -1    0    0  504  503  0.00000000000E+00  0.00000000000E+00  0.93716336648E+02  0.93716336648E+02  0.00000000000E+00 0.  1.
         21   -1    0    0  503  504 -0.00000000000E+00 -0.00000000000E+00 -0.24397285140E+03  0.24397285140E+03  0.00000000000E+00 0.  1.
         25    2    1    2    0    0  0.26321988645E+02 -0.69536957368E+02 -0.12129956953E+03  0.18938289502E+03  0.12499623927E+03 0.  0.
         25    2    1    2    0    0 -0.26321988645E+02  0.69536957368E+02 -0.28956945223E+02  0.14830629303E+03  0.12501206482E+03 0.  0.
          5    1    3    3  501    0 -0.49144819305E+02 -0.13225358079E+02 -0.45038339802E+02  0.68122429588E+02  0.47000000000E+01 0.  1.
         -5    1    3    3    0  501  0.75466807949E+02 -0.56311599288E+02 -0.76261229728E+02  0.12126046543E+03  0.47000000000E+01 0.  1.
          5    1    4    4  502    0  0.13369583312E+02 -0.32674826932E+02 -0.93167592223E+01  0.36814155910E+02  0.47000000000E+01 0. -1.
         -5    1    4    4    0  502 -0.39691571956E+02  0.10221178430E+03 -0.19640186000E+02  0.11149213712E+03  0.47000000000E+01 0. -1.
<mgrwt>
<rscale>  0 0.30241853E+03</rscale>
<asrwt>0</asrwt>
<pdfrwt beam="1">  1       21 0.14417898E-01 0.30241853E+03</pdfrwt>
<pdfrwt beam="2">  1       21 0.37534284E-01 0.30241853E+03</pdfrwt>
<totfact> 0.28118303E+05</totfact>
</mgrwt>
</event>
<event>
 8    1  0.9175398E-006  0.4603822E+03  0.7546771E-02  0.1024670E+00
         21   -1    0    0  504  503  0.00000000000E+00  0.00000000000E+00  0.62112524308E+02  0.62112524308E+02  0.00000000000E+00 0.  1.
         21   -1    0    0  503  504 -0.00000000000E+00 -0.00000000000E+00 -0.85309611142E+03  0.85309611142E+03  0.00000000000E+00 0.  1.
         25    2    1    2    0    0  0.70871188810E+02 -0.98346599642E+02 -0.69479161445E+03  0.71627844093E+03  0.12499855347E+03 0.  0.
         25    2    1    2    0    0 -0.70871188810E+02  0.98346599642E+02 -0.96191972665E+02  0.19893019480E+03  0.12500219091E+03 0.  0.
          5    1    3    3  501    0 -0.61451246438E+01 -0.94047008791E+02 -0.32104916594E+03  0.33463003358E+03  0.47000000000E+01 0. -1.
         -5    1    3    3    0  501  0.77016313454E+02 -0.42995908507E+01 -0.37374244851E+03  0.38164840736E+03  0.47000000000E+01 0. -1.
          5    1    4    4  502    0 -0.10055017505E+03  0.41113866665E+02 -0.51281122744E+02  0.12021868110E+03  0.47000000000E+01 0. -1.
         -5    1    4    4    0  502  0.29678986242E+02  0.57232732977E+02 -0.44910849920E+02  0.78711513700E+02  0.47000000000E+01 0. -1.
<mgrwt>
<rscale>  0 0.46038225E+03</rscale>
<asrwt>0</asrwt>
<pdfrwt beam="1">  1       21 0.95557728E-02 0.46038225E+03</pdfrwt>
<pdfrwt beam="2">  1       21 0.13124556E+00 0.46038225E+03</pdfrwt>
<totfact> 0.33511441E+04</totfact>
</mgrwt>
</event>
<event>
 8    1  0.9175398E-006  0.3127900E+03  0.7546771E-02  0.1079016E+00
         21   -1    0    0  504  503  0.00000000000E+00  0.00000000000E+00  0.94481027781E+03  0.94481027781E+03  0.00000000000E+00 0.  1.
         21   -1    0    0  503  504 -0.00000000000E+00 -0.00000000000E+00 -0.25888161483E+02  0.25888161483E+02  0.00000000000E+00 0.  1.
         25    2    1    2    0    0 -0.11936488744E+02  0.12538342143E+02  0.17275680112E+03  0.21393738965E+03  0.12499841827E+03 0.  0.
         25    2    1    2    0    0  0.11936488744E+02 -0.12538342143E+02  0.74616531521E+03  0.75676104965E+03  0.12499967539E+03 0.  0.
          5    1    3    3  501    0 -0.95021278529E+01  0.62987727478E+02  0.13909100678E+03  0.15305601070E+03  0.47000000000E+01 0. -1.
         -5    1    3    3    0  501 -0.24343608908E+01 -0.50449385336E+02  0.33665794339E+02  0.60881378944E+02  0.47000000000E+01 0. -1.
          5    1    4    4  502    0  0.52434588442E+02 -0.47351631453E+02  0.48584819463E+03  0.49098077487E+03  0.47000000000E+01 0.  1.
         -5    1    4    4    0  502 -0.40498099698E+02  0.34813289311E+02  0.26031712058E+03  0.26578027478E+03  0.47000000000E+01 0.  1.
<mgrwt>
<rscale>  0 0.31279003E+03</rscale>
<asrwt>0</asrwt>
<pdfrwt beam="1">  1       21 0.14535540E+00 0.31279003E+03</pdfrwt>
<pdfrwt beam="2">  1       21 0.39827948E-02 0.31279003E+03</pdfrwt>
<totfact> 0.12243998E+05</totfact>
</mgrwt>
</event>
<event>
 8    1  0.9175398E-006  0.3726224E+03  0.7546771E-02  0.1053695E+00
         21   -1    0    0  504  503  0.00000000000E+00  0.00000000000E+00  0.22610698047E+03  0.22610698047E+03  0.00000000000E+00 0.  1.
         21   -1    0    0  503  504 -0.00000000000E+00 -0.00000000000E+00 -0.15351966555E+03  0.15351966555E+03  0.00000000000E+00 0.  1.
         25    2    1    2    0    0  0.11444925193E+02 -0.10002575654E+03 -0.60099602586E+02  0.17137690424E+03  0.12498777057E+03 0.  0.
         25    2    1    2    0    0 -0.11444925193E+02  0.10002575654E+03  0.13268691750E+03  0.20824974178E+03  0.12500399431E+03 0.  0.
          5    1    3    3  501    0  0.56356390699E+02 -0.33483570319E+02 -0.62816904460E+02  0.90913396922E+02  0.47000000000E+01 0.  1.
         -5    1    3    3    0  501 -0.44911465506E+02 -0.66542186218E+02  0.27173018738E+01  0.80463507319E+02  0.47000000000E+01 0.  1.
          5    1    4    4  502    0  0.34375289196E+02  0.61092718021E+01  0.87458325776E+02  0.94286968648E+02  0.47000000000E+01 0.  1.
         -5    1    4    4    0  502 -0.45820214389E+02  0.93916484734E+02  0.45228591727E+02  0.11396277314E+03  0.47000000000E+01 0.  1.
<mgrwt>
<rscale>  0 0.37262243E+03</rscale>
<asrwt>0</asrwt>
<pdfrwt beam="1">  1       21 0.34785689E-01 0.37262243E+03</pdfrwt>
<pdfrwt beam="2">  1       21 0.23618410E-01 0.37262243E+03</pdfrwt>
<totfact> 0.12790107E+05</totfact>
</mgrwt>
</event>
<event>
 8    1  0.9175398E-006  0.3113307E+03  0.7546771E-02  0.1079710E+00
         21   -1    0    0  504  503  0.00000000000E+00  0.00000000000E+00  0.67965183812E+03  0.67965183812E+03  0.00000000000E+00 0.  1.
         21   -1    0    0  503  504 -0.00000000000E+00 -0.00000000000E+00 -0.35653100608E+02  0.35653100608E+02  0.00000000000E+00 0.  1.
         25    2    1    2    0    0 -0.10921844602E+02 -0.75929656656E+02  0.20212620246E+03  0.24972944651E+03  0.12500078113E+03 0.  0.
         25    2    1    2    0    0  0.10921844602E+02  0.75929656656E+02  0.44187253505E+03  0.46557549222E+03  0.12499840908E+03 0.  0.
          5    1    3    3  501    0  0.22342475593E+02  0.19738938938E+02  0.88185730282E+01  0.31443109838E+02  0.47000000000E+01 0.  1.
         -5    1    3    3    0  501 -0.33264320196E+02 -0.95668595594E+02  0.19330762943E+03  0.21828633667E+03  0.47000000000E+01 0.  1.
          5    1    4    4  502    0 -0.36688548742E+02  0.86998698526E+02  0.33264546014E+03  0.34581774869E+03  0.47000000000E+01 0.  1.
         -5    1    4    4    0  502  0.47610393345E+02 -0.11069041871E+02  0.10922707491E+03  0.11975774353E+03  0.47000000000E+01 0.  1.
<mgrwt>
<rscale>  0 0.31133066E+03</rscale>
<asrwt>0</asrwt>
<pdfrwt beam="1">  1       21 0.10456181E+00 0.31133066E+03</pdfrwt>
<pdfrwt beam="2">  1       21 0.54850929E-02 0.31133066E+03</pdfrwt>
<totfact> 0.16338935E+05</totfact>
</mgrwt>
</event>
<event>
 8    1  0.9175398E-006  0.3564082E+03  0.7546771E-02  0.1060015E+00
         21   -1    0    0  504  503  0.00000000000E+00  0.00000000000E+00  0.79989632844E+03  0.79989632844E+03  0.00000000000E+00 0.  1.
         21   -1    0    0  503  504 -0.00000000000E+00 -0.00000000000E+00 -0.39701030737E+02  0.39701030737E+02  0.00000000000E+00 0.  1.
         25    2    1    2    0    0 -0.28098651124E+02  0.12384530554E+03  0.37486597512E+03  0.41506153673E+03  0.12499754424E+03 0.  0.
         25    2    1    2    0    0  0.28098651124E+02 -0.12384530554E+03  0.38532932259E+03  0.42453582246E+03  0.12499913521E+03 0.  0.
          5    1    3    3  501    0 -0.42492376172E+02 -0.96586345036E+01  0.91647091354E+02  0.10158824049E+03  0.47000000000E+01 0. -1.
         -5    1    3    3    0  501  0.14393725048E+02  0.13350394004E+03  0.28321888377E+03  0.31347329623E+03  0.47000000000E+01 0. -1.
          5    1    4    4  502    0 -0.33516739059E+02 -0.10966634950E+03  0.25128691578E+03  0.27625583081E+03  0.47000000000E+01 0.  1.
         -5    1    4    4    0  502  0.61615390183E+02 -0.14178956037E+02  0.13404240681E+03  0.14827999165E+03  0.47000000000E+01 0.  1.
<mgrwt>
<rscale>  0 0.35640824E+03</rscale>
<asrwt>0</asrwt>
<pdfrwt beam="1">  1       21 0.12306096E+00 0.35640824E+03</pdfrwt>
<pdfrwt beam="2">  1       21 0.61078515E-02 0.35640824E+03</pdfrwt>
<totfact> 0.89511911E+04</totfact>
</mgrwt>
</event>
<event>
 8    1  0.9175398E-006  0.2612539E+03  0.7546771E-02  0.1106392E+00
         21   -1    0    0  504  503  0.00000000000E+00  0.00000000000E+00  0.17464511119E+03  0.17464511119E+03  0.00000000000E+00 0. -1.
         21   -1    0    0  503  504 -0.00000000000E+00 -0.00000000000E+00 -0.97703315928E+02  0.97703315928E+02  0.00000000000E+00 0. -1.
         25    2    1    2    0    0 -0.26398933933E+01 -0.37808561797E+02  0.40160753480E+02  0.13665267115E+03  0.12499844011E+03 0.  0.
         25    2    1    2    0    0  0.26398933933E+01  0.37808561797E+02  0.36781041786E+02  0.13569575597E+03  0.12499614703E+03 0.  0.
          5    1    3    3  501    0  0.64346512230E+01 -0.59986277441E+02  0.73577031288E+02  0.95265039499E+02  0.47000000000E+01 0.  1.
         -5    1    3    3    0  501 -0.90745446163E+01  0.22177715644E+02 -0.33416277808E+02  0.41387631651E+02  0.47000000000E+01 0.  1.
          5    1    4    4  502    0  0.14606891390E+02 -0.36350947830E+02 -0.17231222191E+02  0.43055286580E+02  0.47000000000E+01 0. -1.
         -5    1    4    4    0  502 -0.11966997997E+02  0.74159509627E+02  0.54012263978E+02  0.92640469392E+02  0.47000000000E+01 0. -1.
<mgrwt>
<rscale>  0 0.26125395E+03</rscale>
<asrwt>0</asrwt>
<pdfrwt beam="1">  1       21 0.26868479E-01 0.26125395E+03</pdfrwt>
<pdfrwt beam="2">  1       21 0.15031279E-01 0.26125395E+03</pdfrwt>
<totfact> 0.50886592E+05</totfact>
</mgrwt>
</event>
<event>
 8    1  0.9175398E-006  0.2710034E+03  0.7546771E-02  0.1100707E+00
         21   -1    0    0  504  503  0.00000000000E+00  0.00000000000E+00  0.13379604831E+03  0.13379604831E+03  0.00000000000E+00 0. -1.
         21   -1    0    0  503  504 -0.00000000000E+00 -0.00000000000E+00 -0.13722910683E+03  0.13722910683E+03  0.00000000000E+00 0. -1.
         25    2    1    2    0    0  0.20517652468E+02 -0.48081877287E+02 -0.35907303373E+01  0.13553689164E+03  0.12499805864E+03 0.  0.
         25    2    1    2    0    0 -0.20517652468E+02  0.48081877287E+02  0.15767181856E+00  0.13548826350E+03  0.12499681476E+03 0.  0.
          5    1    3    3  501    0  0.23928526383E+02  0.21555520572E+01 -0.56968954589E+02  0.62006230062E+02  0.47000000000E+01 0. -1.
         -5    1    3    3    0  501 -0.34108739150E+01 -0.50237429344E+02  0.53378224251E+02  0.73530661579E+02  0.47000000000E+01 0. -1.
          5    1    4    4  502    0 -0.10157166047E+02  0.23659204596E+02 -0.62241744734E+02  0.67520743270E+02  0.47000000000E+01 0.  1.
         -5    1    4    4    0  502 -0.10360486421E+02  0.24422672691E+02  0.62399416553E+02  0.67967520231E+02  0.47000000000E+01 0.  1.
<mgrwt>
<rscale>  0 0.27100341E+03</rscale>
<asrwt>0</asrwt>
<pdfrwt beam="1">  1       21 0.20584007E-01 0.27100341E+03</pdfrwt>
<pdfrwt beam="2">  1       21 0.21112170E-01 0.27100341E+03</pdfrwt>
<totfact> 0.44916335E+05</totfact>
</mgrwt>
</event>
<event>
 8    1  0.9175398E-006  0.2670034E+03  0.7546771E-02  0.1103007E+00
         21   -1    0    0  504  503  0.00000000000E+00  0.00000000000E+00  0.68724634362E+02  0.68724634362E+02  0.00000000000E+00 0.  1.
         21   -1    0    0  503  504 -0.00000000000E+00 -0.00000000000E+00 -0.25933495542E+03  0.25933495542E+03  0.00000000000E+00 0.  1.
         25    2    1    2    0    0 -0.96589508702E+01  0.36891567905E+02 -0.12878338197E+03  0.18347843318E+03  0.12499957142E+03 0.  0.
         25    2    1    2    0    0  0.96589508702E+01 -0.36891567905E+02 -0.61826939087E+02  0.14458115661E+03  0.12500742912E+03 0.  0.
          5    1    3    3  501    0 -0.49982924769E+02 -0.19210774417E+02 -0.87979127203E+02  0.10310074416E+03  0.47000000000E+01 0. -1.
         -5    1    3    3    0  501  0.40323973899E+02  0.56102342322E+02 -0.40804254767E+02  0.80377689019E+02  0.47000000000E+01 0. -1.
          5    1    4    4  502    0 -0.38920728236E+02  0.31949621488E+00 -0.72371406131E+02  0.82308174501E+02  0.47000000000E+01 0. -1.
         -5    1    4    4    0  502  0.48579679106E+02 -0.37211064120E+02  0.10544467044E+02  0.62272982105E+02  0.47000000000E+01 0. -1.
<mgrwt>
<rscale>  0 0.26700337E+03</rscale>
<asrwt>0</asrwt>
<pdfrwt beam="1">  1       21 0.10573021E-01 0.26700337E+03</pdfrwt>
<pdfrwt beam="2">  1       21 0.39897685E-01 0.26700337E+03</pdfrwt>
<totfact> 0.43835877E+05</totfact>
</mgrwt>
</event>
<event>
 8    1  0.9175398E-006  0.3071516E+03  0.7546771E-02  0.1081719E+00
         21   -1    0    0  504  503  0.00000000000E+00  0.00000000000E+00  0.35013484969E+03  0.35013484969E+03  0.00000000000E+00 0.  1.
         21   -1    0    0  503  504 -0.00000000000E+00 -0.00000000000E+00 -0.67361246983E+02  0.67361246983E+02  0.00000000000E+00 0.  1.
         25    2    1    2    0    0 -0.50430441880E+02 -0.25753646620E+02  0.23505280104E+03  0.27218066330E+03  0.12500405759E+03 0.  0.
         25    2    1    2    0    0  0.50430441880E+02  0.25753646620E+02  0.47720801668E+02  0.14531543338E+03  0.12503127802E+03 0.  0.
          5    1    3    3  501    0 -0.69505945801E+02  0.21183870907E+02  0.76281853349E+02  0.10545541256E+03  0.47000000000E+01 0.  1.
         -5    1    3    3    0  501  0.19075503922E+02 -0.46937517527E+02  0.15877094769E+03  0.16672525073E+03  0.47000000000E+01 0.  1.
          5    1    4    4  502    0  0.86866523770E+02  0.42100632144E+02  0.38696002496E+02  0.10410440331E+03  0.47000000000E+01 0. -1.
         -5    1    4    4    0  502 -0.36436081891E+02 -0.16346985524E+02  0.90247991715E+01  0.41211030069E+02  0.47000000000E+01 0. -1.
<mgrwt>
<rscale>  0 0.30715156E+03</rscale>
<asrwt>0</asrwt>
<pdfrwt beam="1">  1       21 0.53866899E-01 0.30715156E+03</pdfrwt>
<pdfrwt beam="2">  1       21 0.10363269E-01 0.30715156E+03</pdfrwt>
<totfact> 0.24119391E+05</totfact>
</mgrwt>
</event>
<event>
 8    1  0.9175398E-006  0.6382327E+03  0.7546771E-02  0.9829114E-01
         21   -1    0    0  504  503  0.00000000000E+00  0.00000000000E+00  0.14693702542E+03  0.14693702542E+03  0.00000000000E+00 0.  1.
         21   -1    0    0  503  504 -0.00000000000E+00 -0.00000000000E+00 -0.69305356790E+03  0.69305356790E+03  0.00000000000E+00 0.  1.
         25    2    1    2    0    0 -0.22158581389E+03 -0.15926188539E+03 -0.41569775730E+03  0.51273223943E+03  0.12500041151E+03 0.  0.
         25    2    1    2    0    0  0.22158581389E+03  0.15926188539E+03 -0.13041878518E+03  0.32725835388E+03  0.12499739839E+03 0.  0.
          5    1    3    3  501    0 -0.13013955662E+03 -0.36949633678E+02 -0.12463655403E+03  0.18400527228E+03  0.47000000000E+01 0.  1.
         -5    1    3    3    0  501 -0.91446257269E+02 -0.12231225171E+03 -0.29106120327E+03  0.32872696715E+03  0.47000000000E+01 0.  1.
          5    1    4    4  502    0  0.68642687446E+02  0.37851872564E+01  0.72785946256E+01  0.69290793920E+02  0.47000000000E+01 0.  1.
         -5    1    4    4    0  502  0.15294312644E+03  0.15547669813E+03 -0.13769737981E+03  0.25796755996E+03  0.47000000000E+01 0.  1.
<mgrwt>
<rscale>  0 0.63823265E+03</rscale>
<asrwt>0</asrwt>
<pdfrwt beam="1">  1       21 0.22605696E-01 0.63823265E+03</pdfrwt>
<pdfrwt beam="2">  1       21 0.10662363E+00 0.63823265E+03</pdfrwt>
<totfact> 0.10990657E+04</totfact>
</mgrwt>
</event>
<event>
 8    1  0.9175398E-006  0.2607155E+03  0.7546771E-02  0.1106714E+00
         21   -1    0    0  504  503  0.00000000000E+00  0.00000000000E+00  0.15352914769E+03  0.15352914769E+03  0.00000000000E+00 0. -1.
         21   -1    0    0  503  504 -0.00000000000E+00 -0.00000000000E+00 -0.11068347863E+03  0.11068347863E+03  0.00000000000E+00 0. -1.
         25    2    1    2    0    0 -0.75505678322E+01  0.11977997117E+02  0.56059760664E+02  0.13772248518E+03  0.12499721064E+03 0.  0.
         25    2    1    2    0    0  0.75505678322E+01 -0.11977997117E+02 -0.13214091607E+02  0.12649014115E+03  0.12499864040E+03 0.  0.
          5    1    3    3  501    0  0.77749899914E+01  0.34000145565E+02  0.88572237503E+02  0.95307878080E+02  0.47000000000E+01 0. -1.
         -5    1    3    3    0  501 -0.15325557824E+02 -0.22022148448E+02 -0.32512476839E+02  0.42414607095E+02  0.47000000000E+01 0. -1.
          5    1    4    4  502    0  0.31590561922E+02  0.48792070128E+02  0.48715153953E+01  0.58518812122E+02  0.47000000000E+01 0. -1.
         -5    1    4    4    0  502 -0.24039994089E+02 -0.60770067245E+02 -0.18085607003E+02  0.67971329025E+02  0.47000000000E+01 0. -1.
<mgrwt>
<rscale>  0 0.26071548E+03</rscale>
<asrwt>0</asrwt>
<pdfrwt beam="1">  1       21 0.23619869E-01 0.26071548E+03</pdfrwt>
<pdfrwt beam="2">  1       21 0.17028227E-01 0.26071548E+03</pdfrwt>
<totfact> 0.51818228E+05</totfact>
</mgrwt>
</event>
<event>
 8    1  0.9175398E-006  0.2687506E+03  0.7546771E-02  0.1101997E+00
         21   -1    0    0  504  503  0.00000000000E+00  0.00000000000E+00  0.68736144369E+03  0.68736144369E+03  0.00000000000E+00 0. -1.
         21   -1    0    0  503  504 -0.00000000000E+00 -0.00000000000E+00 -0.26269619619E+02  0.26269619619E+02  0.00000000000E+00 0. -1.
         25    2    1    2    0    0 -0.20805559358E+02  0.36736656398E+01  0.44882879104E+03  0.46639315016E+03  0.12501567794E+03 0.  0.
         25    2    1    2    0    0  0.20805559358E+02 -0.36736656398E+01  0.21226303302E+03  0.24723791314E+03  0.12499849354E+03 0.  0.
          5    1    3    3  501    0  0.49276258995E+02  0.15053876994E+02  0.13442309194E+03  0.14403619878E+03  0.47000000000E+01 0.  1.
         -5    1    3    3    0  501 -0.70081818353E+02 -0.11380211354E+02  0.31440569911E+03  0.32235695138E+03  0.47000000000E+01 0.  1.
          5    1    4    4  502    0  0.70813387167E+02  0.12550394644E+02  0.10086345335E+03  0.12396602127E+03  0.47000000000E+01 0.  1.
         -5    1    4    4    0  502 -0.50007827809E+02 -0.16224060283E+02  0.11139957967E+03  0.12327189187E+03  0.47000000000E+01 0.  1.
<mgrwt>
<rscale>  0 0.26875062E+03</rscale>
<asrwt>0</asrwt>
<pdfrwt beam="1">  1       21 0.10574790E+00 0.26875062E+03</pdfrwt>
<pdfrwt beam="2">  1       21 0.40414805E-02 0.26875062E+03</pdfrwt>
<totfact> 0.27052883E+05</totfact>
</mgrwt>
</event>
<event>
 8    1  0.9175398E-006  0.3166442E+03  0.7546771E-02  0.1077204E+00
         21   -1    0    0  504  503  0.00000000000E+00  0.00000000000E+00  0.99750786810E+03  0.99750786810E+03  0.00000000000E+00 0.  1.
         21   -1    0    0  503  504 -0.00000000000E+00 -0.00000000000E+00 -0.25128512191E+02  0.25128512191E+02  0.00000000000E+00 0.  1.
         25    2    1    2    0    0 -0.81498229408E+02 -0.52499723254E+02  0.46521537266E+03  0.49137280277E+03  0.12499482391E+03 0.  0.
         25    2    1    2    0    0  0.81498229408E+02  0.52499723254E+02  0.50716398324E+03  0.53126357752E+03  0.12501000183E+03 0.  0.
          5    1    3    3  501    0 -0.51310409674E+02 -0.32922331554E+02  0.44626881282E+03  0.45043821036E+03  0.47000000000E+01 0.  1.
         -5    1    3    3    0  501 -0.30187819734E+02 -0.19577391700E+02  0.18946559842E+02  0.40934592412E+02  0.47000000000E+01 0.  1.
          5    1    4    4  502    0  0.65075290897E+02  0.97341888053E+01  0.46226133990E+03  0.46694451949E+03  0.47000000000E+01 0.  1.
         -5    1    4    4    0  502  0.16422938511E+02  0.42765534449E+02  0.44902643348E+02  0.64319058029E+02  0.47000000000E+01 0.  1.
<mgrwt>
<rscale>  0 0.31664421E+03</rscale>
<asrwt>0</asrwt>
<pdfrwt beam="1">  1       21 0.15346272E+00 0.31664421E+03</pdfrwt>
<pdfrwt beam="2">  1       21 0.38659257E-02 0.31664421E+03</pdfrwt>
<totfact> 0.11121638E+05</totfact>
</mgrwt>
</event>
<event>
 8    1  0.9175398E-006  0.3173079E+03  0.7546771E-02  0.1076895E+00
         21   -1    0    0  504  503  0.00000000000E+00  0.00000000000E+00  0.14903879079E+03  0.14903879079E+03  0.00000000000E+00 0. -1.
         21   -1    0    0  503  504 -0.00000000000E+00 -0.00000000000E+00 -0.16888943409E+03  0.16888943409E+03  0.00000000000E+00 0. -1.
         25    2    1    2    0    0  0.62456327063E+02  0.60766329678E+02 -0.54303450638E+02  0.16170342320E+03  0.12492314722E+03 0.  0.
         25    2    1    2    0    0 -0.62456327063E+02 -0.60766329678E+02  0.34452807345E+02  0.15622480168E+03  0.12500341241E+03 0.  0.
          5    1    3    3  501    0 -0.36393355349E+02  0.16259175835E+02 -0.31014890317E+02  0.50723274084E+02  0.47000000000E+01 0. -1.
         -5    1    3    3    0  501  0.98849682412E+02  0.44507153843E+02 -0.23288560321E+02  0.11098014912E+03  0.47000000000E+01 0. -1.
          5    1    4    4  502    0 -0.46412172529E+02 -0.21537445683E+02 -0.43531773384E+02  0.67342829012E+02  0.47000000000E+01 0.  1.
         -5    1    4    4    0  502 -0.16044154533E+02 -0.39228883996E+02  0.77984580729E+02  0.88881972670E+02  0.47000000000E+01 0.  1.
<mgrwt>
<rscale>  0 0.31730791E+03</rscale>
<asrwt>0</asrwt>
<pdfrwt beam="1">  1       21 0.22929045E-01 0.31730791E+03</pdfrwt>
<pdfrwt beam="2">  1       21 0.25982990E-01 0.31730791E+03</pdfrwt>
<totfact> 0.24370218E+05</totfact>
</mgrwt>
</event>
<event>
 8    1  0.9175398E-006  0.3281097E+03  0.7546771E-02  0.1071976E+00
         21   -1    0    0  504  503  0.00000000000E+00  0.00000000000E+00  0.52666522956E+02  0.52666522956E+02  0.00000000000E+00 0.  1.
         21   -1    0    0  503  504 -0.00000000000E+00 -0.00000000000E+00 -0.51102661010E+03  0.51102661010E+03  0.00000000000E+00 0.  1.
         25    2    1    2    0    0  0.50089771590E+02 -0.78533072754E+02 -0.31699307880E+03  0.35324933175E+03  0.12499619853E+03 0.  0.
         25    2    1    2    0    0 -0.50089771590E+02  0.78533072754E+02 -0.14136700835E+03  0.21044380130E+03  0.12500213487E+03 0.  0.
          5    1    3    3  501    0  0.46968373793E+02  0.20180817809E+02 -0.66946792048E+02  0.84363834134E+02  0.47000000000E+01 0. -1.
         -5    1    3    3    0  501  0.31213977965E+01 -0.98713890563E+02 -0.25004628675E+03  0.26888549762E+03  0.47000000000E+01 0. -1.
          5    1    4    4  502    0 -0.49502337113E+02  0.42236338721E+02 -0.86037413579E+00  0.65247374904E+02  0.47000000000E+01 0. -1.
         -5    1    4    4    0  502 -0.58743447675E+00  0.36296734034E+02 -0.14050663421E+03  0.14519642640E+03  0.47000000000E+01 0. -1.
<mgrwt>
<rscale>  0 0.32810971E+03</rscale>
<asrwt>0</asrwt>
<pdfrwt beam="1">  1       21 0.81025418E-02 0.32810971E+03</pdfrwt>
<pdfrwt beam="2">  1       21 0.78619480E-01 0.32810971E+03</pdfrwt>
<totfact> 0.16141067E+05</totfact>
</mgrwt>
</event>
<event>
 8    1  0.9175398E-006  0.3420675E+03  0.7546771E-02  0.1065919E+00
         21   -1    0    0  504  503  0.00000000000E+00  0.00000000000E+00  0.12797186823E+04  0.12797186823E+04  0.00000000000E+00 0. -1.
         21   -1    0    0  503  504 -0.00000000000E+00 -0.00000000000E+00 -0.22858571007E+02  0.22858571007E+02  0.00000000000E+00 0. -1.
         25    2    1    2    0    0 -0.39983611180E+02  0.26407405997E+02  0.10337763009E+04  0.10424089166E+04  0.12500747494E+03 0.  0.
         25    2    1    2    0    0  0.39983611180E+02 -0.26407405997E+02  0.22308381041E+03  0.26016833675E+03  0.12500054691E+03 0.  0.
          5    1    3    3  501    0  0.99400922274E+01  0.53060305409E+02  0.21709050069E+03  0.22375114957E+03  0.47000000000E+01 0.  1.
         -5    1    3    3    0  501 -0.49923703407E+02 -0.26652899413E+02  0.81668580020E+03  0.81865776699E+03  0.47000000000E+01 0.  1.
          5    1    4    4  502    0  0.13882246242E+02 -0.73697314470E+02  0.95315643635E+02  0.12137204308E+03  0.47000000000E+01 0. -1.
         -5    1    4    4    0  502  0.26101364938E+02  0.47289908473E+02  0.12776816677E+03  0.13879629367E+03  0.47000000000E+01 0. -1.
<mgrwt>
<rscale>  0 0.34206748E+03</rscale>
<asrwt>0</asrwt>
<pdfrwt beam="1">  1       21 0.19687974E+00 0.34206748E+03</pdfrwt>
<pdfrwt beam="2">  1       21 0.35167042E-02 0.34206748E+03</pdfrwt>
<totfact> 0.63634615E+04</totfact>
</mgrwt>
</event>
<event>
 8    1  0.9175398E-006  0.2655780E+03  0.7546771E-02  0.1103837E+00
         21   -1    0    0  504  503  0.00000000000E+00  0.00000000000E+00  0.48544953083E+02  0.48544953083E+02  0.00000000000E+00 0. -1.
         21   -1    0    0  503  504 -0.00000000000E+00 -0.00000000000E+00 -0.36322856293E+03  0.36322856293E+03  0.00000000000E+00 0. -1.
         25    2    1    2    0    0  0.33827522473E+02 -0.26601469945E+01 -0.11195730391E+03  0.17120202004E+03  0.12499726441E+03 0.  0.
         25    2    1    2    0    0 -0.33827522473E+02  0.26601469945E+01 -0.20272630593E+03  0.24057149597E+03  0.12500124758E+03 0.  0.
          5    1    3    3  501    0  0.32812562459E+02  0.71184516546E+01  0.19622148355E+02  0.39172124210E+02  0.47000000000E+01 0.  1.
         -5    1    3    3    0  501  0.10149600141E+01 -0.97785986490E+01 -0.13157945226E+03  0.13202989583E+03  0.47000000000E+01 0.  1.
          5    1    4    4  502    0  0.91868298232E+01 -0.62632259798E+01 -0.19541769653E+03  0.19579017330E+03  0.47000000000E+01 0. -1.
         -5    1    4    4    0  502 -0.43014352296E+02  0.89233729743E+01 -0.73086094011E+01  0.44781322670E+02  0.47000000000E+01 0. -1.
<mgrwt>
<rscale>  0 0.26557796E+03</rscale>
<asrwt>0</asrwt>
<pdfrwt beam="1">  1       21 0.74684544E-02 0.26557796E+03</pdfrwt>
<pdfrwt beam="2">  1       21 0.55881316E-01 0.26557796E+03</pdfrwt>
<totfact> 0.40123970E+05</totfact>
</mgrwt>
</event>
<event>
 8    1  0.9175398E-006  0.2807756E+03  0.7546771E-02  0.1095266E+00
         21   -1    0    0  504  503  0.00000000000E+00  0.00000000000E+00  0.10738546706E+03  0.10738546706E+03  0.00000000000E+00 0. -1.
         21   -1    0    0  503  504 -0.00000000000E+00 -0.00000000000E+00 -0.18353266057E+03  0.18353266057E+03  0.00000000000E+00 0. -1.
         25    2    1    2    0    0 -0.59165951666E+02 -0.22453184883E+02 -0.47302438164E+02  0.14787467757E+03  0.12499857704E+03 0.  0.
         25    2    1    2    0    0  0.59165951666E+02  0.22453184883E+02 -0.28844755352E+02  0.14304345006E+03  0.12499861338E+03 0.  0.
          5    1    3    3  501    0 -0.27267520712E+02 -0.70841329692E+02 -0.54813594241E+01  0.76250553962E+02  0.47000000000E+01 0. -1.
         -5    1    3    3    0  501 -0.31898430954E+02  0.48388144809E+02 -0.41821078740E+02  0.71624123607E+02  0.47000000000E+01 0. -1.
          5    1    4    4  502    0  0.70357905302E+02  0.36607306907E+02 -0.64810093905E+02  0.10253179034E+03  0.47000000000E+01 0. -1.
         -5    1    4    4    0  502 -0.11191953636E+02 -0.14154122024E+02  0.35965338553E+02  0.40511659725E+02  0.47000000000E+01 0. -1.
<mgrwt>
<rscale>  0 0.28077564E+03</rscale>
<asrwt>0</asrwt>
<pdfrwt beam="1">  1       21 0.16520841E-01 0.28077564E+03</pdfrwt>
<pdfrwt beam="2">  1       21 0.28235794E-01 0.28077564E+03</pdfrwt>
<totfact> 0.38685928E+05</totfact>
</mgrwt>
</event>
<event>
 8    1  0.9175398E-006  0.2737111E+03  0.7546771E-02  0.1099174E+00
         21   -1    0    0  504  503  0.00000000000E+00  0.00000000000E+00  0.29989799403E+03  0.29989799403E+03  0.00000000000E+00 0.  1.
         21   -1    0    0  503  504 -0.00000000000E+00 -0.00000000000E+00 -0.62452722052E+02  0.62452722052E+02  0.00000000000E+00 0.  1.
         25    2    1    2    0    0  0.21880436270E+02 -0.50273886970E+02  0.10560010388E+03  0.17257695914E+03  0.12500083073E+03 0.  0.
         25    2    1    2    0    0 -0.21880436270E+02  0.50273886970E+02  0.13184516811E+03  0.18977375695E+03  0.12499885308E+03 0.  0.
          5    1    3    3  501    0 -0.26179627482E+02 -0.54585394881E+02  0.50272763424E+01  0.60928661045E+02  0.47000000000E+01 0. -1.
         -5    1    3    3    0  501  0.48060063752E+02  0.43115079106E+01  0.10057282753E+03  0.11164829809E+03  0.47000000000E+01 0. -1.
          5    1    4    4  502    0  0.28641273928E+02  0.71849169013E+02  0.54284844903E+02  0.94612684384E+02  0.47000000000E+01 0. -1.
         -5    1    4    4    0  502 -0.50521710198E+02 -0.21575282043E+02  0.77560323202E+02  0.95161072565E+02  0.47000000000E+01 0. -1.
<mgrwt>
<rscale>  0 0.27371113E+03</rscale>
<asrwt>0</asrwt>
<pdfrwt beam="1">  1       21 0.46138152E-01 0.27371113E+03</pdfrwt>
<pdfrwt beam="2">  1       21 0.96081113E-02 0.27371113E+03</pdfrwt>
<totfact> 0.38501875E+05</totfact>
</mgrwt>
</event>
<event>
 8    1  0.9175398E-006  0.6919337E+03  0.7546771E-02  0.9731127E-01
         21   -1    0    0  504  503  0.00000000000E+00  0.00000000000E+00  0.15919904486E+04  0.15919904486E+04  0.00000000000E+00 0. -1.
         21   -1    0    0  503  504 -0.00000000000E+00 -0.00000000000E+00 -0.75184542778E+02  0.75184542778E+02  0.00000000000E+00 0. -1.
         25    2    1    2    0    0  0.26292720803E+03 -0.49351062806E+02  0.11927840414E+04  0.12287905192E+04  0.12500450634E+03 0.  0.
         25    2    1    2    0    0 -0.26292720803E+03  0.49351062806E+02  0.32402186439E+03  0.43838447212E+03  0.12499813066E+03 0.  0.
          5    1    3    3  501    0  0.26189693665E+03 -0.71383463324E+02  0.11273250623E+04  0.11595557298E+04  0.47000000000E+01 0.  1.
         -5    1    3    3    0  501  0.10302713797E+01  0.22032400518E+02  0.65458979047E+02  0.69234789446E+02  0.47000000000E+01 0.  1.
          5    1    4    4  502    0 -0.25164436486E+03  0.78239510734E+02  0.28272415703E+03  0.38652470344E+03  0.47000000000E+01 0.  1.
         -5    1    4    4    0  502 -0.11282843174E+02 -0.28888447928E+02  0.41297707362E+02  0.51859768676E+02  0.47000000000E+01 0.  1.
<mgrwt>
<rscale>  0 0.69193374E+03</rscale>
<asrwt>0</asrwt>
<pdfrwt beam="1">  1       21 0.24492158E+00 0.69193374E+03</pdfrwt>
<pdfrwt beam="2">  1       21 0.11566854E-01 0.69193374E+03</pdfrwt>
<totfact> 0.34652445E+03</totfact>
</mgrwt>
</event>
<event>
 8    1  0.9175398E-006  0.2717556E+03  0.7546771E-02  0.1100279E+00
         21   -1    0    0  504  503  0.00000000000E+00  0.00000000000E+00  0.22781845205E+03  0.22781845205E+03  0.00000000000E+00 0.  1.
         21   -1    0    0  503  504 -0.00000000000E+00 -0.00000000000E+00 -0.81041606701E+02  0.81041606701E+02  0.00000000000E+00 0.  1.
         25    2    1    2    0    0 -0.97870759363E+01  0.18173769949E+02  0.12920010249E+03  0.18095175739E+03  0.12499919700E+03 0.  0.
         25    2    1    2    0    0  0.97870759363E+01 -0.18173769949E+02  0.17576742860E+02  0.12790830136E+03  0.12500207557E+03 0.  0.
          5    1    3    3  501    0 -0.21906346455E+02 -0.28374634716E+02 -0.66506248928E+01  0.36760423307E+02  0.47000000000E+01 0.  1.
         -5    1    3    3    0  501  0.12119270519E+02  0.46548404665E+02  0.13585072738E+03  0.14419133408E+03  0.47000000000E+01 0.  1.
          5    1    4    4  502    0  0.54913545901E+01  0.15809798201E+02 -0.49489748520E+02  0.52454074227E+02  0.47000000000E+01 0.  1.
         -5    1    4    4    0  502  0.42957213461E+01 -0.33983568150E+02  0.67066491380E+02  0.75454227132E+02  0.47000000000E+01 0.  1.
<mgrwt>
<rscale>  0 0.27175558E+03</rscale>
<asrwt>0</asrwt>
<pdfrwt beam="1">  1       21 0.35048992E-01 0.27175558E+03</pdfrwt>
<pdfrwt beam="2">  1       21 0.12467940E-01 0.27175558E+03</pdfrwt>
<totfact> 0.42299706E+05</totfact>
</mgrwt>
</event>
<event>
 8    1  0.9175398E-006  0.3177560E+03  0.7546771E-02  0.1076687E+00
         21   -1    0    0  504  503  0.00000000000E+00  0.00000000000E+00  0.23052178161E+04  0.23052178161E+04  0.00000000000E+00 0.  1.
         21   -1    0    0  503  504 -0.00000000000E+00 -0.00000000000E+00 -0.10950036099E+02  0.10950036099E+02  0.00000000000E+00 0.  1.
         25    2    1    2    0    0 -0.15999031090E+02  0.65276980133E+02  0.62655294077E+03  0.64242499140E+03  0.12499691541E+03 0.  0.
         25    2    1    2    0    0  0.15999031090E+02 -0.65276980133E+02  0.16677148393E+04  0.16737428608E+04  0.12500130373E+03 0.  0.
          5    1    3    3  501    0 -0.22230735056E+02  0.80178713415E+02  0.21586672369E+03  0.23139439073E+03  0.47000000000E+01 0.  1.
         -5    1    3    3    0  501  0.62317039652E+01 -0.14901733283E+02  0.41068621708E+03  0.41103060067E+03  0.47000000000E+01 0.  1.
          5    1    4    4  502    0  0.22176663539E+02 -0.97647549724E+02  0.95403027208E+03  0.95928238722E+03  0.47000000000E+01 0.  1.
         -5    1    4    4    0  502 -0.61776324483E+01  0.32370569592E+02  0.71368456720E+03  0.71446047363E+03  0.47000000000E+01 0.  1.
<mgrwt>
<rscale>  0 0.31775600E+03</rscale>
<asrwt>0</asrwt>
<pdfrwt beam="1">  1       21 0.35464851E+00 0.31775600E+03</pdfrwt>
<pdfrwt beam="2">  1       21 0.16846228E-02 0.31775600E+03</pdfrwt>
<totfact> 0.24004833E+04</totfact>
</mgrwt>
</event>
<event>
 8    1  0.9175398E-006  0.5300244E+03  0.7546771E-02  0.1006226E+00
         21   -1    0    0  504  503  0.00000000000E+00  0.00000000000E+00  0.16014709332E+03  0.16014709332E+03  0.00000000000E+00 0. -1.
         21   -1    0    0  503  504 -0.00000000000E+00 -0.00000000000E+00 -0.43854355183E+03  0.43854355183E+03  0.00000000000E+00 0. -1.
         25    2    1    2    0    0 -0.31999773973E+02  0.23135216712E+03 -0.14773044997E+03  0.30331584629E+03  0.12501362325E+03 0.  0.
         25    2    1    2    0    0  0.31999773973E+02 -0.23135216712E+03 -0.13066600854E+03  0.29537479886E+03  0.12499942097E+03 0.  0.
          5    1    3    3  501    0  0.22624741829E+02  0.13798333042E+03 -0.13478505873E+03  0.19426883557E+03  0.47000000000E+01 0.  1.
         -5    1    3    3    0  501 -0.54624515803E+02  0.93368836700E+02 -0.12945391243E+02  0.10904701072E+03  0.47000000000E+01 0.  1.
          5    1    4    4  502    0  0.41566217219E+02 -0.19007108198E+03 -0.15270770740E+03  0.24737926452E+03  0.47000000000E+01 0. -1.
         -5    1    4    4    0  502 -0.95664432458E+01 -0.41281085148E+02  0.22041698855E+02  0.47995534331E+02  0.47000000000E+01 0. -1.
<mgrwt>
<rscale>  0 0.53002443E+03</rscale>
<asrwt>0</asrwt>
<pdfrwt beam="1">  1       21 0.24638015E-01 0.53002443E+03</pdfrwt>
<pdfrwt beam="2">  1       21 0.67468237E-01 0.53002443E+03</pdfrwt>
<totfact> 0.27976101E+04</totfact>
</mgrwt>
</event>
<event>
 8    1  0.9175398E-006  0.2898707E+03  0.7546771E-02  0.1090417E+00
         21   -1    0    0  504  503  0.00000000000E+00  0.00000000000E+00  0.11545584435E+03  0.11545584435E+03  0.00000000000E+00 0.  1.
         21   -1    0    0  503  504 -0.00000000000E+00 -0.00000000000E+00 -0.18194185235E+03  0.18194185235E+03  0.00000000000E+00 0.  1.
         25    2    1    2    0    0 -0.26327719648E+02  0.64462055905E+02 -0.56926576636E+02  0.15399437586E+03  0.12500050879E+03 0.  0.
         25    2    1    2    0    0  0.26327719648E+02 -0.64462055905E+02 -0.95594313614E+01  0.14340332083E+03  0.12499849689E+03 0.  0.
          5    1    3    3  501    0 -0.12195665655E+02  0.86725626743E+02 -0.79947736660E+02  0.11867518355E+03  0.47000000000E+01 0. -1.
         -5    1    3    3    0  501 -0.14132053994E+02 -0.22263570838E+02  0.23021160024E+02  0.35319192309E+02  0.47000000000E+01 0. -1.
          5    1    4    4  502    0  0.38042288568E+02  0.12369814712E+02 -0.42773924602E+02  0.58753099164E+02  0.47000000000E+01 0.  1.
         -5    1    4    4    0  502 -0.11714568919E+02 -0.76831870617E+02  0.33214493241E+02  0.84650221670E+02  0.47000000000E+01 0.  1.
<mgrwt>
<rscale>  0 0.28987066E+03</rscale>
<asrwt>0</asrwt>
<pdfrwt beam="1">  1       21 0.17762438E-01 0.28987066E+03</pdfrwt>
<pdfrwt beam="2">  1       21 0.27991054E-01 0.28987066E+03</pdfrwt>
<totfact> 0.34334729E+05</totfact>
</mgrwt>
</event>
<event>
 8    1  0.9175398E-006  0.2699581E+03  0.7546771E-02  0.1101304E+00
         21   -1    0    0  504  503  0.00000000000E+00  0.00000000000E+00  0.14093104701E+03  0.14093104701E+03  0.00000000000E+00 0. -1.
         21   -1    0    0  503  504 -0.00000000000E+00 -0.00000000000E+00 -0.12927847153E+03  0.12927847153E+03  0.00000000000E+00 0. -1.
         25    2    1    2    0    0 -0.16276422076E+00 -0.45705372931E+02  0.28133473898E+02  0.13606515850E+03  0.12503290526E+03 0.  0.
         25    2    1    2    0    0  0.16276422076E+00  0.45705372931E+02 -0.16480898421E+02  0.13414436004E+03  0.12503632156E+03 0.  0.
          5    1    3    3  501    0  0.16778042010E+02 -0.64896845567E+02  0.63299899358E+02  0.92315061160E+02  0.47000000000E+01 0.  1.
         -5    1    3    3    0  501 -0.16940806230E+02  0.19191472636E+02 -0.35166425460E+02  0.43750097341E+02  0.47000000000E+01 0.  1.
          5    1    4    4  502    0  0.43583411164E+02 -0.21627236986E+02  0.94833700412E+01  0.49792322859E+02  0.47000000000E+01 0.  1.
         -5    1    4    4    0  502 -0.43420646943E+02  0.67332609916E+02 -0.25964268463E+02  0.84352037177E+02  0.47000000000E+01 0.  1.
<mgrwt>
<rscale>  0 0.26995815E+03</rscale>
<asrwt>0</asrwt>
<pdfrwt beam="1">  1       21 0.21681700E-01 0.26995815E+03</pdfrwt>
<pdfrwt beam="2">  1       21 0.19888996E-01 0.26995815E+03</pdfrwt>
<totfact> 0.45571603E+05</totfact>
</mgrwt>
</event>
<event>
 8    1  0.9175398E-006  0.3873700E+03  0.7546771E-02  0.1048243E+00
         21   -1    0    0  504  503  0.00000000000E+00  0.00000000000E+00  0.83358757490E+03  0.83358757490E+03  0.00000000000E+00 0. -1.
         21   -1    0    0  503  504 -0.00000000000E+00 -0.00000000000E+00 -0.45002919843E+02  0.45002919843E+02  0.00000000000E+00 0. -1.
         25    2    1    2    0    0  0.12309267589E+02  0.14096351798E+03  0.49247831967E+03  0.52741229381E+03  0.12492638172E+03 0.  0.
         25    2    1    2    0    0 -0.12309267589E+02 -0.14096351798E+03  0.29610633539E+03  0.35117820093E+03  0.12499974193E+03 0.  0.
          5    1    3    3  501    0  0.50746376021E+02  0.14901757196E+02  0.19326971127E+03  0.20043085676E+03  0.47000000000E+01 0. -1.
         -5    1    3    3    0  501 -0.38437108432E+02  0.12606176079E+03  0.29920860840E+03  0.32698143705E+03  0.47000000000E+01 0. -1.
          5    1    4    4  502    0 -0.55632258890E+02 -0.86231288330E+02  0.24146123161E+03  0.26240502985E+03  0.47000000000E+01 0. -1.
         -5    1    4    4    0  502  0.43322991301E+02 -0.54732229652E+02  0.54645103771E+02  0.88773171082E+02  0.47000000000E+01 0. -1.
<mgrwt>
<rscale>  0 0.38736998E+03</rscale>
<asrwt>0</asrwt>
<pdfrwt beam="1">  1       21 0.12824423E+00 0.38736998E+03</pdfrwt>
<pdfrwt beam="2">  1       21 0.69235267E-02 0.38736998E+03</pdfrwt>
<totfact> 0.64189697E+04</totfact>
</mgrwt>
</event>
<event>
 8    1  0.9175398E-006  0.3845479E+03  0.7546771E-02  0.1049266E+00
         21   -1    0    0  504  503  0.00000000000E+00  0.00000000000E+00  0.17868585765E+03  0.17868585765E+03  0.00000000000E+00 0. -1.
         21   -1    0    0  503  504 -0.00000000000E+00 -0.00000000000E+00 -0.20689531605E+03  0.20689531605E+03  0.00000000000E+00 0. -1.
         25    2    1    2    0    0  0.12390468712E+03 -0.18344566698E+02  0.61317643720E+02  0.18726529234E+03  0.12497816476E+03 0.  0.
         25    2    1    2    0    0 -0.12390468712E+03  0.18344566698E+02 -0.89527102125E+02  0.19831588136E+03  0.12500076868E+03 0.  0.
          5    1    3    3  501    0  0.18238934891E+02 -0.55969136277E+01 -0.37257290079E+02  0.42121014377E+02  0.47000000000E+01 0.  1.
         -5    1    3    3    0  501  0.10566575222E+03 -0.12747653070E+02  0.98574933800E+02  0.14514427796E+03  0.47000000000E+01 0.  1.
          5    1    4    4  502    0 -0.10491522745E+03  0.59706933403E+02 -0.32307663854E+02  0.12505198115E+03  0.47000000000E+01 0.  1.
         -5    1    4    4    0  502 -0.18989459667E+02 -0.41362366705E+02 -0.57219438271E+02  0.73263900210E+02  0.47000000000E+01 0.  1.
<mgrwt>
<rscale>  0 0.38454787E+03</rscale>
<asrwt>0</asrwt>
<pdfrwt beam="1">  1       21 0.27490132E-01 0.38454787E+03</pdfrwt>
<pdfrwt beam="2">  1       21 0.31830049E-01 0.38454787E+03</pdfrwt>
<totfact> 0.11349935E+05</totfact>
</mgrwt>
</event>
<event>
 8    1  0.9175398E-006  0.4838618E+03  0.7546771E-02  0.1018079E+00
         21   -1    0    0  504  503  0.00000000000E+00  0.00000000000E+00  0.63954356421E+03  0.63954356421E+03  0.00000000000E+00 0.  1.
         21   -1    0    0  503  504 -0.00000000000E+00 -0.00000000000E+00 -0.91519275120E+02  0.91519275120E+02  0.00000000000E+00 0.  1.
         25    2    1    2    0    0  0.18452758643E+03  0.90512895234E+02  0.31292517570E+03  0.39470210546E+03  0.12499828844E+03 0.  0.
         25    2    1    2    0    0 -0.18452758643E+03 -0.90512895234E+02  0.23509911339E+03  0.33636073387E+03  0.12499574318E+03 0.  0.
          5    1    3    3  501    0  0.99933358245E+02  0.11477296612E+03  0.19094557566E+03  0.24421673306E+03  0.47000000000E+01 0.  1.
         -5    1    3    3    0  501  0.84594228188E+02 -0.24260070883E+02  0.12197960004E+03  0.15048537241E+03  0.47000000000E+01 0.  1.
          5    1    4    4  502    0 -0.11588550062E+03 -0.10090046124E+02  0.18660328907E+03  0.21994120982E+03  0.47000000000E+01 0. -1.
         -5    1    4    4    0  502 -0.68642085811E+02 -0.80422849110E+02  0.48495824324E+02  0.11641952405E+03  0.47000000000E+01 0. -1.
<mgrwt>
<rscale>  0 0.48386181E+03</rscale>
<asrwt>0</asrwt>
<pdfrwt beam="1">  1       21 0.98391315E-01 0.48386181E+03</pdfrwt>
<pdfrwt beam="2">  1       21 0.14079889E-01 0.48386181E+03</pdfrwt>
<totfact> 0.33917642E+04</totfact>
</mgrwt>
</event>
<event>
 8    1  0.9175398E-006  0.3471735E+03  0.7546771E-02  0.1063781E+00
         21   -1    0    0  504  503  0.00000000000E+00  0.00000000000E+00  0.12436359351E+04  0.12436359351E+04  0.00000000000E+00 0. -1.
         21   -1    0    0  503  504 -0.00000000000E+00 -0.00000000000E+00 -0.24229239179E+02  0.24229239179E+02  0.00000000000E+00 0. -1.
         25    2    1    2    0    0 -0.42454708680E+02 -0.89639129491E+02  0.85924635865E+03  0.87393727416E+03  0.12499791392E+03 0.  0.
         25    2    1    2    0    0  0.42454708680E+02  0.89639129491E+02  0.36016033723E+03  0.39392790008E+03  0.12500458441E+03 0.  0.
          5    1    3    3  501    0  0.16752097388E+02 -0.97816318159E+02  0.51120785390E+03  0.52077271890E+03  0.47000000000E+01 0.  1.
         -5    1    3    3    0  501 -0.59206806068E+02  0.81771886678E+01  0.34803850475E+03  0.35316455526E+03  0.47000000000E+01 0.  1.
          5    1    4    4  502    0  0.82904178732E+02  0.65006323997E+02  0.29466354188E+03  0.31296584146E+03  0.47000000000E+01 0. -1.
         -5    1    4    4    0  502 -0.40449470051E+02  0.24632805495E+02  0.65496795352E+02  0.80962058616E+02  0.47000000000E+01 0. -1.
<mgrwt>
<rscale>  0 0.34717346E+03</rscale>
<asrwt>0</asrwt>
<pdfrwt beam="1">  1       21 0.19132856E+00 0.34717346E+03</pdfrwt>
<pdfrwt beam="2">  1       21 0.37275762E-02 0.34717346E+03</pdfrwt>
<totfact> 0.62716882E+04</totfact>
</mgrwt>
</event>
<event>
 8    1  0.9175398E-006  0.4679901E+03  0.7546771E-02  0.1022489E+00
         21   -1    0    0  504  503  0.00000000000E+00  0.00000000000E+00  0.21248446749E+03  0.21248446749E+03  0.00000000000E+00 0.  1.
         21   -1    0    0  503  504 -0.00000000000E+00 -0.00000000000E+00 -0.25768324111E+03  0.25768324111E+03  0.00000000000E+00 0.  1.
         25    2    1    2    0    0 -0.44036425038E+02 -0.10287661116E+03  0.14127137762E+03  0.21933184307E+03  0.12500420551E+03 0.  0.
         25    2    1    2    0    0  0.44036425038E+02  0.10287661116E+03 -0.18647015124E+03  0.25083586554E+03  0.12499884113E+03 0.  0.
          5    1    3    3  501    0 -0.72326748068E+02 -0.10491396941E+03  0.14163417569E+03  0.19057919400E+03  0.47000000000E+01 0.  1.
         -5    1    3    3    0  501  0.28290323030E+02  0.20373582551E+01 -0.36279806510E+00  0.28752649065E+02  0.47000000000E+01 0.  1.
          5    1    4    4  502    0  0.34522186228E+02  0.86336157651E+02 -0.37168143702E+02  0.10024606908E+03  0.47000000000E+01 0. -1.
         -5    1    4    4    0  502  0.95142388103E+01  0.16540453504E+02 -0.14930200754E+03  0.15058979646E+03  0.47000000000E+01 0. -1.
<mgrwt>
<rscale>  0 0.46799011E+03</rscale>
<asrwt>0</asrwt>
<pdfrwt beam="1">  1       21 0.32689918E-01 0.46799011E+03</pdfrwt>
<pdfrwt beam="2">  1       21 0.39643575E-01 0.46799011E+03</pdfrwt>
<totfact> 0.50707164E+04</totfact>
</mgrwt>
</event>
<event>
 8    1  0.9175398E-006  0.2655966E+03  0.7546771E-02  0.1103827E+00
         21   -1    0    0  504  503  0.00000000000E+00  0.00000000000E+00  0.20908606921E+03  0.20908606921E+03  0.00000000000E+00 0. -1.
         21   -1    0    0  503  504 -0.00000000000E+00 -0.00000000000E+00 -0.84345122468E+02  0.84345122468E+02  0.00000000000E+00 0. -1.
         25    2    1    2    0    0  0.37027978729E+01 -0.44370472436E+02  0.68743389928E+02  0.14944444716E+03  0.12500215835E+03 0.  0.
         25    2    1    2    0    0 -0.37027978729E+01  0.44370472436E+02  0.55997556817E+02  0.14398674452E+03  0.12495601903E+03 0.  0.
          5    1    3    3  501    0  0.15660851750E+02  0.35321915692E+02 -0.60604200483E+01  0.39391860795E+02  0.47000000000E+01 0. -1.
         -5    1    3    3    0  501 -0.11958053877E+02 -0.79692388129E+02  0.74803809976E+02  0.11005258636E+03  0.47000000000E+01 0. -1.
          5    1    4    4  502    0 -0.96451327110E+01  0.81097700990E+02  0.67439199537E+01  0.82081886840E+02  0.47000000000E+01 0. -1.
         -5    1    4    4    0  502  0.59423348381E+01 -0.36727228553E+02  0.49253636863E+02  0.61904857683E+02  0.47000000000E+01 0. -1.
<mgrwt>
<rscale>  0 0.26559661E+03</rscale>
<asrwt>0</asrwt>
<pdfrwt beam="1">  1       21 0.32167088E-01 0.26559661E+03</pdfrwt>
<pdfrwt beam="2">  1       21 0.12976173E-01 0.26559661E+03</pdfrwt>
<totfact> 0.46728415E+05</totfact>
</mgrwt>
</event>
<event>
 8    1  0.9175398E-006  0.2771296E+03  0.7546771E-02  0.1097267E+00
         21   -1    0    0  504  503  0.00000000000E+00  0.00000000000E+00  0.52806151889E+02  0.52806151889E+02  0.00000000000E+00 0.  1.
         21   -1    0    0  503  504 -0.00000000000E+00 -0.00000000000E+00 -0.36359791205E+03  0.36359791205E+03  0.00000000000E+00 0.  1.
         25    2    1    2    0    0 -0.60443307243E+01  0.63769226582E+01 -0.66528612630E+02  0.14187458906E+03  0.12500057458E+03 0.  0.
         25    2    1    2    0    0  0.60443307243E+01 -0.63769226582E+01 -0.24426314753E+03  0.27452947489E+03  0.12499899304E+03 0.  0.
          5    1    3    3  501    0 -0.49826512374E+02 -0.33309018428E+02 -0.11945906282E+02  0.61294100213E+02  0.47000000000E+01 0. -1.
         -5    1    3    3    0  501  0.43782181650E+02  0.39685941086E+02 -0.54582706348E+02  0.80580488843E+02  0.47000000000E+01 0. -1.
          5    1    4    4  502    0 -0.17661301119E+02 -0.59142414258E+02 -0.86007026491E+02  0.10596718986E+03  0.47000000000E+01 0. -1.
         -5    1    4    4    0  502  0.23705631843E+02  0.52765491600E+02 -0.15825612104E+03  0.16856228502E+03  0.47000000000E+01 0. -1.
<mgrwt>
<rscale>  0 0.27712962E+03</rscale>
<asrwt>0</asrwt>
<pdfrwt beam="1">  1       21 0.81240232E-02 0.27712962E+03</pdfrwt>
<pdfrwt beam="2">  1       21 0.55938141E-01 0.27712962E+03</pdfrwt>
<totfact> 0.34472130E+05</totfact>
</mgrwt>
</event>
<event>
 8    1  0.9175398E-006  0.3123851E+03  0.7546771E-02  0.1079208E+00
         21   -1    0    0  504  503  0.00000000000E+00  0.00000000000E+00  0.79661028200E+03  0.79661028200E+03  0.00000000000E+00 0. -1.
         21   -1    0    0  503  504 -0.00000000000E+00 -0.00000000000E+00 -0.30624906341E+02  0.30624906341E+02  0.00000000000E+00 0. -1.
         25    2    1    2    0    0  0.41775566811E+02  0.83081720511E+02  0.35352899826E+03  0.38633489537E+03  0.12499651398E+03 0.  0.
         25    2    1    2    0    0 -0.41775566811E+02 -0.83081720511E+02  0.41245637740E+03  0.44090029297E+03  0.12500013927E+03 0.  0.
          5    1    3    3  501    0  0.66553936438E+02  0.96007636725E+01  0.95704613778E+02  0.11706008806E+03  0.47000000000E+01 0. -1.
         -5    1    3    3    0  501 -0.24778369627E+02  0.73480956839E+02  0.25782438448E+03  0.26927480731E+03  0.47000000000E+01 0. -1.
          5    1    4    4  502    0  0.84608141508E+01  0.28931092021E+02  0.54616521185E+02  0.62559154790E+02  0.47000000000E+01 0.  1.
         -5    1    4    4    0  502 -0.50236380962E+02 -0.11201281253E+03  0.35783985621E+03  0.37834113818E+03  0.47000000000E+01 0.  1.
<mgrwt>
<rscale>  0 0.31238512E+03</rscale>
<asrwt>0</asrwt>
<pdfrwt beam="1">  1       21 0.12255541E+00 0.31238512E+03</pdfrwt>
<pdfrwt beam="2">  1       21 0.47115247E-02 0.31238512E+03</pdfrwt>
<totfact> 0.14311638E+05</totfact>
</mgrwt>
</event>
<event>
 8    1  0.9175398E-006  0.3767329E+03  0.7546771E-02  0.1052148E+00
         21   -1    0    0  504  503  0.00000000000E+00  0.00000000000E+00  0.31412380262E+03  0.31412380262E+03  0.00000000000E+00 0. -1.
         21   -1    0    0  503  504 -0.00000000000E+00 -0.00000000000E+00 -0.11295519114E+03  0.11295519114E+03  0.00000000000E+00 0. -1.
         25    2    1    2    0    0 -0.61060335683E+02  0.12699665959E+03  0.10013597640E+03  0.21332988816E+03  0.12500364504E+03 0.  0.
         25    2    1    2    0    0  0.61060335683E+02 -0.12699665959E+03  0.10103263508E+03  0.21374910560E+03  0.12499828259E+03 0.  0.
          5    1    3    3  501    0  0.28827877206E+02  0.47612157710E+02  0.70061723964E+02  0.89603009050E+02  0.47000000000E+01 0. -1.
         -5    1    3    3    0  501 -0.89888212889E+02  0.79384501880E+02  0.30074252438E+02  0.12372687911E+03  0.47000000000E+01 0. -1.
          5    1    4    4  502    0 -0.11169656171E+02  0.20500681132E+02  0.92301677593E+01  0.25540656662E+02  0.47000000000E+01 0. -1.
         -5    1    4    4    0  502  0.72229991854E+02 -0.14749734072E+03  0.91802467324E+02  0.18820844893E+03  0.47000000000E+01 0. -1.
<mgrwt>
<rscale>  0 0.37673287E+03</rscale>
<asrwt>0</asrwt>
<pdfrwt beam="1">  1       21 0.48326739E-01 0.37673287E+03</pdfrwt>
<pdfrwt beam="2">  1       21 0.17377722E-01 0.37673287E+03</pdfrwt>
<totfact> 0.11625639E+05</totfact>
</mgrwt>
</event>
<event>
 8    1  0.9175398E-006  0.3558384E+03  0.7546771E-02  0.1060244E+00
         21   -1    0    0  504  503  0.00000000000E+00  0.00000000000E+00  0.54533434438E+03  0.54533434438E+03  0.00000000000E+00 0. -1.
         21   -1    0    0  503  504 -0.00000000000E+00 -0.00000000000E+00 -0.58047392423E+02  0.58047392423E+02  0.00000000000E+00 0. -1.
         25    2    1    2    0    0 -0.22431461234E+02 -0.60957935245E+02  0.59358184382E+02  0.15286368480E+03  0.12499948702E+03 0.  0.
         25    2    1    2    0    0  0.22431461234E+02  0.60957935245E+02  0.42792876758E+03  0.45051805200E+03  0.12499777893E+03 0.  0.
          5    1    3    3  501    0 -0.30055981867E+02 -0.43865545410E+02  0.96912257423E+02  0.11064187163E+03  0.47000000000E+01 0. -1.
         -5    1    3    3    0  501  0.76245206333E+01 -0.17092389835E+02 -0.37554073041E+02  0.42221813167E+02  0.47000000000E+01 0. -1.
          5    1    4    4  502    0  0.22044986120E+02  0.81344011566E+02  0.41958528526E+03  0.42799150837E+03  0.47000000000E+01 0.  1.
         -5    1    4    4    0  502  0.38647511399E+00 -0.20386076321E+02  0.83434823151E+01  0.22526543630E+02  0.47000000000E+01 0.  1.
<mgrwt>
<rscale>  0 0.35583837E+03</rscale>
<asrwt>0</asrwt>
<pdfrwt beam="1">  1       21 0.83897588E-01 0.35583837E+03</pdfrwt>
<pdfrwt beam="2">  1       21 0.89303684E-02 0.35583837E+03</pdfrwt>
<totfact> 0.11626061E+05</totfact>
</mgrwt>
</event>
<event>
 8    1  0.9175398E-006  0.4118052E+03  0.7546771E-02  0.1039767E+00
         21   -1    0    0  504  503  0.00000000000E+00  0.00000000000E+00  0.33378175339E+03  0.33378175339E+03  0.00000000000E+00 0. -1.
         21   -1    0    0  503  504 -0.00000000000E+00 -0.00000000000E+00 -0.12701678609E+03  0.12701678609E+03  0.00000000000E+00 0. -1.
         25    2    1    2    0    0  0.22179991323E+02  0.15459416338E+03  0.15796480627E+03  0.25489103149E+03  0.12500100219E+03 0.  0.
         25    2    1    2    0    0 -0.22179991323E+02 -0.15459416338E+03  0.48800161027E+02  0.20590750799E+03  0.12500055505E+03 0.  0.
          5    1    3    3  501    0 -0.31224777036E+01  0.15560971721E+03  0.84757330192E+02  0.17728516289E+03  0.47000000000E+01 0.  1.
         -5    1    3    3    0  501  0.25302469026E+02 -0.10155538310E+01  0.73207476082E+02  0.77605868610E+02  0.47000000000E+01 0.  1.
          5    1    4    4  502    0  0.22588141107E+01  0.15118971109E+02  0.29161112815E+02  0.33258773717E+02  0.47000000000E+01 0. -1.
         -5    1    4    4    0  502 -0.24438805433E+02 -0.16971313449E+03  0.19639048212E+02  0.17264873427E+03  0.47000000000E+01 0. -1.
<mgrwt>
<rscale>  0 0.41180522E+03</rscale>
<asrwt>0</asrwt>
<pdfrwt beam="1">  1       21 0.51351039E-01 0.41180522E+03</pdfrwt>
<pdfrwt beam="2">  1       21 0.19541044E-01 0.41180522E+03</pdfrwt>
<totfact> 0.81345711E+04</totfact>
</mgrwt>
</event>
<event>
 8    1  0.9175398E-006  0.2984558E+03  0.7546771E-02  0.1086015E+00
         21   -1    0    0  504  503  0.00000000000E+00  0.00000000000E+00  0.35407965464E+03  0.35407965464E+03  0.00000000000E+00 0.  1.
         21   -1    0    0  503  504 -0.00000000000E+00 -0.00000000000E+00 -0.62892544794E+02  0.62892544794E+02  0.00000000000E+00 0.  1.
         25    2    1    2    0    0  0.44925432090E+02  0.60305146009E+02  0.18955984777E+03  0.23919217449E+03  0.12499982146E+03 0.  0.
         25    2    1    2    0    0 -0.44925432090E+02 -0.60305146009E+02  0.10162726207E+03  0.17778002494E+03  0.12499052679E+03 0.  0.
          5    1    3    3  501    0  0.69051978866E+02  0.83738171607E+02  0.16386674077E+03  0.19660787345E+03  0.47000000000E+01 0.  1.
         -5    1    3    3    0  501 -0.24126546777E+02 -0.23433025598E+02  0.25693107001E+02  0.42584301044E+02  0.47000000000E+01 0.  1.
          5    1    4    4  502    0 -0.58787078073E+02 -0.30168217823E+02  0.12181720382E+03  0.13866348857E+03  0.47000000000E+01 0. -1.
         -5    1    4    4    0  502  0.13861645983E+02 -0.30136928186E+02 -0.20189941752E+02  0.39116536373E+02  0.47000000000E+01 0. -1.
<mgrwt>
<rscale>  0 0.29845583E+03</rscale>
<asrwt>0</asrwt>
<pdfrwt beam="1">  1       21 0.54473792E-01 0.29845583E+03</pdfrwt>
<pdfrwt beam="2">  1       21 0.96757764E-02 0.29845583E+03</pdfrwt>
<totfact> 0.26666886E+05</totfact>
</mgrwt>
</event>
<event>
 8    1  0.9175398E-006  0.3301827E+03  0.7546771E-02  0.1071056E+00
         21   -1    0    0  504  503  0.00000000000E+00  0.00000000000E+00  0.31647915191E+02  0.31647915191E+02  0.00000000000E+00 0. -1.
         21   -1    0    0  503  504 -0.00000000000E+00 -0.00000000000E+00 -0.86119881077E+03  0.86119881077E+03  0.00000000000E+00 0. -1.
         25    2    1    2    0    0  0.99172284392E+02  0.42160937214E+02 -0.40316328061E+03  0.43563386665E+03  0.12499419315E+03 0.  0.
         25    2    1    2    0    0 -0.99172284392E+02 -0.42160937214E+02 -0.42638761497E+03  0.45721285932E+03  0.12499805560E+03 0.  0.
          5    1    3    3  501    0  0.11469534537E+02 -0.31415279568E+02 -0.19608627334E+03  0.19897333139E+03  0.47000000000E+01 0.  1.
         -5    1    3    3    0  501  0.87702749854E+02  0.73576216782E+02 -0.20707700727E+03  0.23666053526E+03  0.47000000000E+01 0.  1.
          5    1    4    4  502    0 -0.99621111532E+02  0.20504775051E+02 -0.27840617874E+03  0.29644038528E+03  0.47000000000E+01 0.  1.
         -5    1    4    4    0  502  0.44882713994E+00 -0.62665712265E+02 -0.14798143623E+03  0.16077247404E+03  0.47000000000E+01 0.  1.
<mgrwt>
<rscale>  0 0.33018266E+03</rscale>
<asrwt>0</asrwt>
<pdfrwt beam="1">  1       21 0.48689105E-02 0.33018266E+03</pdfrwt>
<pdfrwt beam="2">  1       21 0.13249211E+00 0.33018266E+03</pdfrwt>
<totfact> 0.11030049E+05</totfact>
</mgrwt>
</event>
<event>
 8    1  0.9175398E-006  0.3313163E+03  0.7546771E-02  0.1070556E+00
         21   -1    0    0  504  503  0.00000000000E+00  0.00000000000E+00  0.62770116101E+03  0.62770116101E+03  0.00000000000E+00 0. -1.
         21   -1    0    0  503  504 -0.00000000000E+00 -0.00000000000E+00 -0.43719236056E+02  0.43719236056E+02  0.00000000000E+00 0. -1.
         25    2    1    2    0    0 -0.11433027630E+02 -0.96585875641E+02  0.39037716971E+03  0.42128159225E+03  0.12499719935E+03 0.  0.
         25    2    1    2    0    0  0.11433027630E+02  0.96585875641E+02  0.19360475525E+03  0.25013880482E+03  0.12500829944E+03 0.  0.
          5    1    3    3  501    0 -0.19455373732E+02 -0.12583455045E+03  0.30442824984E+03  0.33001741613E+03  0.47000000000E+01 0.  1.
         -5    1    3    3    0  501  0.80223461014E+01  0.29248674806E+02  0.85948919875E+02  0.91264176118E+02  0.47000000000E+01 0.  1.
          5    1    4    4  502    0 -0.41639342533E+02  0.90118427248E+02  0.15460964798E+03  0.18379716816E+03  0.47000000000E+01 0. -1.
         -5    1    4    4    0  502  0.53072370164E+02  0.64674483934E+01  0.38995107270E+02  0.66341636658E+02  0.47000000000E+01 0. -1.
<mgrwt>
<rscale>  0 0.33131626E+03</rscale>
<asrwt>0</asrwt>
<pdfrwt beam="1">  1       21 0.96569403E-01 0.33131626E+03</pdfrwt>
<pdfrwt beam="2">  1       21 0.67260368E-02 0.33131626E+03</pdfrwt>
<totfact> 0.13832394E+05</totfact>
</mgrwt>
</event>
<event>
 8    1  0.9175398E-006  0.3458317E+03  0.7546771E-02  0.1064339E+00
         21   -1    0    0  504  503  0.00000000000E+00  0.00000000000E+00  0.73460064452E+03  0.73460064452E+03  0.00000000000E+00 0. -1.
         21   -1    0    0  503  504 -0.00000000000E+00 -0.00000000000E+00 -0.40702241725E+02  0.40702241725E+02  0.00000000000E+00 0. -1.
         25    2    1    2    0    0  0.58143682659E+02 -0.65170496395E+02  0.16412788657E+03  0.22403189335E+03  0.12499777860E+03 0.  0.
         25    2    1    2    0    0 -0.58143682659E+02  0.65170496395E+02  0.52977051623E+03  0.55127099289E+03  0.12496009886E+03 0.  0.
          5    1    3    3  501    0  0.65222517136E+02 -0.69134946389E+02  0.18113527267E+03  0.20461108123E+03  0.47000000000E+01 0.  1.
         -5    1    3    3    0  501 -0.70788344771E+01  0.39644499936E+01 -0.17007386109E+02  0.19420812124E+02  0.47000000000E+01 0.  1.
          5    1    4    4  502    0  0.35301808558E+01  0.39721756811E+02  0.42551699144E+03  0.42740739365E+03  0.47000000000E+01 0. -1.
         -5    1    4    4    0  502 -0.61673863515E+02  0.25448739584E+02  0.10425352479E+03  0.12386359925E+03  0.47000000000E+01 0. -1.
<mgrwt>
<rscale>  0 0.34583171E+03</rscale>
<asrwt>0</asrwt>
<pdfrwt beam="1">  1       21 0.11301547E+00 0.34583171E+03</pdfrwt>
<pdfrwt beam="2">  1       21 0.62618839E-02 0.34583171E+03</pdfrwt>
<totfact> 0.10641718E+05</totfact>
</mgrwt>
</event>
<event>
 8    1  0.9175398E-006  0.2574879E+03  0.7546771E-02  0.1108662E+00
         21   -1    0    0  504  503  0.00000000000E+00  0.00000000000E+00  0.73386857863E+02  0.73386857863E+02  0.00000000000E+00 0. -1.
         21   -1    0    0  503  504 -0.00000000000E+00 -0.00000000000E+00 -0.22585793400E+03  0.22585793400E+03  0.00000000000E+00 0. -1.
         25    2    1    2    0    0  0.40247916123E+00 -0.28685914698E+02 -0.89345365002E+02  0.15630219524E+03  0.12499895318E+03 0.  0.
         25    2    1    2    0    0 -0.40247916123E+00  0.28685914698E+02 -0.63125711138E+02  0.14294259663E+03  0.12499874732E+03 0.  0.
          5    1    3    3  501    0 -0.51801073546E+02 -0.33201875530E+00 -0.39434909942E+01  0.52164188657E+02  0.47000000000E+01 0.  1.
         -5    1    3    3    0  501  0.52203552707E+02 -0.28353895943E+02 -0.85401874007E+02  0.10413800658E+03  0.47000000000E+01 0.  1.
          5    1    4    4  502    0  0.15166549877E+02 -0.35965870818E+02  0.13321311503E+02  0.41510425666E+02  0.47000000000E+01 0.  1.
         -5    1    4    4    0  502 -0.15569029038E+02  0.64651785516E+02 -0.76447022641E+02  0.10143217096E+03  0.47000000000E+01 0.  1.
<mgrwt>
<rscale>  0 0.25748790E+03</rscale>
<asrwt>0</asrwt>
<pdfrwt beam="1">  1       21 0.11290286E-01 0.25748790E+03</pdfrwt>
<pdfrwt beam="2">  1       21 0.34747374E-01 0.25748790E+03</pdfrwt>
<totfact> 0.51585489E+05</totfact>
</mgrwt>
</event>
<event>
 8    1  0.9175398E-006  0.2607547E+03  0.7546771E-02  0.1106691E+00
         21   -1    0    0  504  503  0.00000000000E+00  0.00000000000E+00  0.17456603859E+03  0.17456603859E+03  0.00000000000E+00 0. -1.
         21   -1    0    0  503  504 -0.00000000000E+00 -0.00000000000E+00 -0.97374348934E+02  0.97374348934E+02  0.00000000000E+00 0. -1.
         25    2    1    2    0    0  0.15562985987E+02  0.30424244429E+02  0.53501778086E+02  0.14019933578E+03  0.12500228923E+03 0.  0.
         25    2    1    2    0    0 -0.15562985987E+02 -0.30424244429E+02  0.23689911566E+02  0.13174105174E+03  0.12500660631E+03 0.  0.
          5    1    3    3  501    0  0.37894531918E+02 -0.25628791387E+02  0.63965045535E+02  0.78781010069E+02  0.47000000000E+01 0.  1.
         -5    1    3    3    0  501 -0.22331545931E+02  0.56053035816E+02 -0.10463267449E+02  0.61418325715E+02  0.47000000000E+01 0.  1.
          5    1    4    4  502    0 -0.52285198686E+01 -0.29713230253E+02  0.74057435959E+02  0.80104976705E+02  0.47000000000E+01 0.  1.
         -5    1    4    4    0  502 -0.10334466118E+02 -0.71101417573E+00 -0.50367524393E+02  0.51636075031E+02  0.47000000000E+01 0.  1.
<mgrwt>
<rscale>  0 0.26075471E+03</rscale>
<asrwt>0</asrwt>
<pdfrwt beam="1">  1       21 0.26856314E-01 0.26075471E+03</pdfrwt>
<pdfrwt beam="2">  1       21 0.14980669E-01 0.26075471E+03</pdfrwt>
<totfact> 0.51251590E+05</totfact>
</mgrwt>
</event>
<event>
 8    1  0.9175398E-006  0.2723785E+03  0.7546771E-02  0.1099926E+00
         21   -1    0    0  504  503  0.00000000000E+00  0.00000000000E+00  0.13694840510E+03  0.13694840510E+03  0.00000000000E+00 0.  1.
         21   -1    0    0  503  504 -0.00000000000E+00 -0.00000000000E+00 -0.13543426017E+03  0.13543426017E+03  0.00000000000E+00 0.  1.
         25    2    1    2    0    0  0.27488373433E+02 -0.68829254843E+01 -0.45265928249E+02  0.13593376425E+03  0.12500399459E+03 0.  0.
         25    2    1    2    0    0 -0.27488373433E+02  0.68829254843E+01  0.46780073176E+02  0.13644890103E+03  0.12500776779E+03 0.  0.
          5    1    3    3  501    0 -0.42512829273E+02 -0.32230662253E+02 -0.17669619141E+02  0.56395582120E+02  0.47000000000E+01 0. -1.
         -5    1    3    3    0  501  0.70001202705E+02  0.25347736768E+02 -0.27596309108E+02  0.79538182126E+02  0.47000000000E+01 0. -1.
          5    1    4    4  502    0 -0.11469030706E+02 -0.17553850963E+02 -0.39646534113E+02  0.45095609722E+02  0.47000000000E+01 0.  1.
         -5    1    4    4    0  502 -0.16019342727E+02  0.24436776448E+02  0.86426607289E+02  0.91353291304E+02  0.47000000000E+01 0.  1.
<mgrwt>
<rscale>  0 0.27237846E+03</rscale>
<asrwt>0</asrwt>
<pdfrwt beam="1">  1       21 0.21068986E-01 0.27237846E+03</pdfrwt>
<pdfrwt beam="2">  1       21 0.20836040E-01 0.27237846E+03</pdfrwt>
<totfact> 0.44055300E+05</totfact>
</mgrwt>
</event>
<event>
 8    1  0.9175398E-006  0.2980548E+03  0.7546771E-02  0.1086217E+00
         21   -1    0    0  504  503  0.00000000000E+00  0.00000000000E+00  0.27088755002E+02  0.27088755002E+02  0.00000000000E+00 0.  1.
         21   -1    0    0  503  504 -0.00000000000E+00 -0.00000000000E+00 -0.81986665245E+03  0.81986665245E+03  0.00000000000E+00 0.  1.
         25    2    1    2    0    0 -0.48510241581E+02  0.61178890622E+02 -0.33346752709E+03  0.36457946728E+03  0.12498598379E+03 0.  0.
         25    2    1    2    0    0  0.48510241581E+02 -0.61178890622E+02 -0.45931037036E+03  0.48237594017E+03  0.12499772454E+03 0.  0.
          5    1    3    3  501    0 -0.50016485547E+02  0.72721408218E+02 -0.11161904619E+03  0.14237609881E+03  0.47000000000E+01 0.  1.
         -5    1    3    3    0  501  0.15062439664E+01 -0.11542517596E+02 -0.22184848090E+03  0.22220336847E+03  0.47000000000E+01 0.  1.
          5    1    4    4  502    0  0.40696912437E+02  0.28372846076E+01 -0.36913858018E+03  0.37141576467E+03  0.47000000000E+01 0. -1.
         -5    1    4    4    0  502  0.78133291438E+01 -0.64016175230E+02 -0.90171790178E+02  0.11096017550E+03  0.47000000000E+01 0. -1.
<mgrwt>
<rscale>  0 0.29805481E+03</rscale>
<asrwt>0</asrwt>
<pdfrwt beam="1">  1       21 0.41675013E-02 0.29805481E+03</pdfrwt>
<pdfrwt beam="2">  1       21 0.12613332E+00 0.29805481E+03</pdfrwt>
<totfact> 0.16458044E+05</totfact>
</mgrwt>
</event>
<event>
 8    1  0.9175398E-006  0.5253491E+03  0.7546771E-02  0.1007366E+00
         21   -1    0    0  504  503  0.00000000000E+00  0.00000000000E+00  0.53539725824E+02  0.53539725824E+02  0.00000000000E+00 0. -1.
         21   -1    0    0  503  504 -0.00000000000E+00 -0.00000000000E+00 -0.12887237137E+04  0.12887237137E+04  0.00000000000E+00 0. -1.
         25    2    1    2    0    0 -0.11464750409E+03 -0.16129888167E+02 -0.10679224616E+03  0.20108084519E+03  0.12499879591E+03 0.  0.
         25    2    1    2    0    0  0.11464750409E+03  0.16129888167E+02 -0.11283917417E+04  0.11411825944E+04  0.12500226931E+03 0.  0.
          5    1    3    3  501    0 -0.19425897286E+02 -0.58885045170E+02 -0.20217639441E+02  0.65388507970E+02  0.47000000000E+01 0.  1.
         -5    1    3    3    0  501 -0.95221606806E+02  0.42755157003E+02 -0.86574606715E+02  0.13569233722E+03  0.47000000000E+01 0.  1.
          5    1    4    4  502    0  0.14115015079E+03  0.19909506620E+02 -0.97966709392E+03  0.98999467596E+03  0.47000000000E+01 0. -1.
         -5    1    4    4    0  502 -0.26502646697E+02 -0.37796184531E+01 -0.14872464782E+03  0.15118791839E+03  0.47000000000E+01 0. -1.
<mgrwt>
<rscale>  0 0.52534908E+03</rscale>
<asrwt>0</asrwt>
<pdfrwt beam="1">  1       21 0.82368812E-02 0.52534908E+03</pdfrwt>
<pdfrwt beam="2">  1       21 0.19826518E+00 0.52534908E+03</pdfrwt>
<totfact> 0.13450774E+04</totfact>
</mgrwt>
</event>
<event>
 8    1  0.9175398E-006  0.4059242E+03  0.7546771E-02  0.1041747E+00
         21   -1    0    0  504  503  0.00000000000E+00  0.00000000000E+00  0.80691621887E+02  0.80691621887E+02  0.00000000000E+00 0.  1.
         21   -1    0    0  503  504 -0.00000000000E+00 -0.00000000000E+00 -0.51050661694E+03  0.51050661694E+03  0.00000000000E+00 0.  1.
         25    2    1    2    0    0  0.91062017096E+02 -0.10786872287E+03 -0.10552546158E+03  0.21607543548E+03  0.12500007379E+03 0.  0.
         25    2    1    2    0    0 -0.91062017096E+02  0.10786872287E+03 -0.32428953347E+03  0.37512280334E+03  0.12500185492E+03 0.  0.
          5    1    3    3  501    0  0.68481898783E+02 -0.13421006107E+03 -0.70029146349E+02  0.16621757516E+03  0.47000000000E+01 0.  1.
         -5    1    3    3    0  501  0.22580118314E+02  0.26341338201E+02 -0.35496315229E+02  0.49857860324E+02  0.47000000000E+01 0.  1.
          5    1    4    4  502    0 -0.10523640240E+03  0.85352197501E+02 -0.16499698034E+03  0.21355512527E+03  0.47000000000E+01 0. -1.
         -5    1    4    4    0  502  0.14174385301E+02  0.22516525369E+02 -0.15929255313E+03  0.16156767807E+03  0.47000000000E+01 0. -1.
<mgrwt>
<rscale>  0 0.40592416E+03</rscale>
<asrwt>0</asrwt>
<pdfrwt beam="1">  1       21 0.12414095E-01 0.40592416E+03</pdfrwt>
<pdfrwt beam="2">  1       21 0.78539484E-01 0.40592416E+03</pdfrwt>
<totfact> 0.73983485E+04</totfact>
</mgrwt>
</event>
<event>
 8    1  0.9175398E-006  0.4026546E+03  0.7546771E-02  0.1042864E+00
         21   -1    0    0  504  503  0.00000000000E+00  0.00000000000E+00  0.15815310349E+03  0.15815310349E+03  0.00000000000E+00 0.  1.
         21   -1    0    0  503  504 -0.00000000000E+00 -0.00000000000E+00 -0.25628759409E+03  0.25628759409E+03  0.00000000000E+00 0.  1.
         25    2    1    2    0    0  0.14302460941E+03 -0.43613954252E+02 -0.10104665909E+03  0.21952573535E+03  0.12499162079E+03 0.  0.
         25    2    1    2    0    0 -0.14302460941E+03  0.43613954252E+02  0.29121684873E+01  0.19491496223E+03  0.12500058349E+03 0.  0.
          5    1    3    3  501    0  0.93184654375E+02  0.36578658189E+02 -0.56075624088E+02  0.11483877247E+03  0.47000000000E+01 0. -1.
         -5    1    3    3    0  501  0.49839955031E+02 -0.80192612441E+02 -0.44971035000E+02  0.10468696288E+03  0.47000000000E+01 0. -1.
          5    1    4    4  502    0 -0.35111733727E+02  0.74511072217E+02 -0.77687816843E+00  0.82507134648E+02  0.47000000000E+01 0.  1.
         -5    1    4    4    0  502 -0.10791287568E+03 -0.30897117965E+02  0.36890466558E+01  0.11240782758E+03  0.47000000000E+01 0.  1.
<mgrwt>
<rscale>  0 0.40265458E+03</rscale>
<asrwt>0</asrwt>
<pdfrwt beam="1">  1       21 0.24331247E-01 0.40265458E+03</pdfrwt>
<pdfrwt beam="2">  1       21 0.39428860E-01 0.40265458E+03</pdfrwt>
<totfact> 0.93038379E+04</totfact>
</mgrwt>
</event>
<event>
 8    1  0.9175398E-006  0.3233141E+03  0.7546771E-02  0.1074134E+00
         21   -1    0    0  504  503  0.00000000000E+00  0.00000000000E+00  0.10139788333E+04  0.10139788333E+04  0.00000000000E+00 0. -1.
         21   -1    0    0  503  504 -0.00000000000E+00 -0.00000000000E+00 -0.25772725040E+02  0.25772725040E+02  0.00000000000E+00 0. -1.
         25    2    1    2    0    0 -0.43007150216E+02 -0.31164066874E+02  0.21214546886E+03  0.25189598345E+03  0.12500028995E+03 0.  0.
         25    2    1    2    0    0  0.43007150216E+02  0.31164066874E+02  0.77606063938E+03  0.78785557487E+03  0.12500190727E+03 0.  0.
          5    1    3    3  501    0 -0.69880287632E+02 -0.38446130330E+02  0.20867496301E+03  0.22344728623E+03  0.47000000000E+01 0. -1.
         -5    1    3    3    0  501  0.26873137416E+02  0.72820634554E+01  0.34705058503E+01  0.28448697221E+02  0.47000000000E+01 0. -1.
          5    1    4    4  502    0  0.24896257060E+02  0.30113805008E+02  0.76516850557E+03  0.76617987235E+03  0.47000000000E+01 0. -1.
         -5    1    4    4    0  502  0.18110893156E+02  0.10502618661E+01  0.10892133807E+02  0.21675702521E+02  0.47000000000E+01 0. -1.
<mgrwt>
<rscale>  0 0.32331407E+03</rscale>
<asrwt>0</asrwt>
<pdfrwt beam="1">  1       21 0.15599671E+00 0.32331407E+03</pdfrwt>
<pdfrwt beam="2">  1       21 0.39650354E-02 0.32331407E+03</pdfrwt>
<totfact> 0.10170751E+05</totfact>
</mgrwt>
</event>
<event>
 8    1  0.9175398E-006  0.2543552E+03  0.7546771E-02  0.1110583E+00
         21   -1    0    0  504  503  0.00000000000E+00  0.00000000000E+00  0.46242528139E+03  0.46242528139E+03  0.00000000000E+00 0. -1.
         21   -1    0    0  503  504 -0.00000000000E+00 -0.00000000000E+00 -0.34976776430E+02  0.34976776430E+02  0.00000000000E+00 0. -1.
         25    2    1    2    0    0  0.10394400772E+02  0.18224960578E+02  0.23421963974E+03  0.26631276082E+03  0.12499381656E+03 0.  0.
         25    2    1    2    0    0 -0.10394400772E+02 -0.18224960578E+02  0.19322886522E+03  0.23108929700E+03  0.12499870431E+03 0.  0.
          5    1    3    3  501    0 -0.55744637245E+02  0.22353657725E+02  0.10713257404E+03  0.12290902740E+03  0.47000000000E+01 0.  1.
         -5    1    3    3    0  501  0.66139038017E+02 -0.41286971468E+01  0.12708706570E+03  0.14340373342E+03  0.47000000000E+01 0.  1.
          5    1    4    4  502    0 -0.50669832086E+02 -0.46953253457E+02  0.71131649745E+02  0.99266517463E+02  0.47000000000E+01 0. -1.
         -5    1    4    4    0  502  0.40275431314E+02  0.28728292879E+02  0.12209721547E+03  0.13182277954E+03  0.47000000000E+01 0. -1.
<mgrwt>
<rscale>  0 0.25435523E+03</rscale>
<asrwt>0</asrwt>
<pdfrwt beam="1">  1       21 0.71142347E-01 0.25435523E+03</pdfrwt>
<pdfrwt beam="2">  1       21 0.53810428E-02 0.25435523E+03</pdfrwt>
<totfact> 0.41848422E+05</totfact>
</mgrwt>
</event>
<event>
 8    1  0.9175398E-006  0.3986160E+03  0.7546771E-02  0.1044260E+00
         21   -1    0    0  504  503  0.00000000000E+00  0.00000000000E+00  0.51771046239E+03  0.51771046239E+03  0.00000000000E+00 0.  1.
         21   -1    0    0  503  504 -0.00000000000E+00 -0.00000000000E+00 -0.76729519812E+02  0.76729519812E+02  0.00000000000E+00 0.  1.
         25    2    1    2    0    0  0.11477125231E+03 -0.23796708512E+02  0.68700951184E+02  0.18461649561E+03  0.12499882425E+03 0.  0.
         25    2    1    2    0    0 -0.11477125231E+03  0.23796708512E+02  0.37227999139E+03  0.40982348659E+03  0.12499669788E+03 0.  0.
          5    1    3    3  501    0  0.26114381187E+02 -0.39812128037E+02 -0.25474307669E+02  0.54203291366E+02  0.47000000000E+01 0.  1.
         -5    1    3    3    0  501  0.88656871124E+02  0.16015419525E+02  0.94175258854E+02  0.13041320424E+03  0.47000000000E+01 0.  1.
          5    1    4    4  502    0 -0.93598406739E+02 -0.29787555287E+02  0.30826889022E+03  0.32357342115E+03  0.47000000000E+01 0. -1.
         -5    1    4    4    0  502 -0.21172845573E+02  0.53584263799E+02  0.64011101167E+02  0.86250065444E+02  0.47000000000E+01 0. -1.
<mgrwt>
<rscale>  0 0.39861598E+03</rscale>
<asrwt>0</asrwt>
<pdfrwt beam="1">  1       21 0.79647761E-01 0.39861598E+03</pdfrwt>
<pdfrwt beam="2">  1       21 0.11804542E-01 0.39861598E+03</pdfrwt>
<totfact> 0.78641236E+04</totfact>
</mgrwt>
</event>
<event>
 8    1  0.9175398E-006  0.3450116E+03  0.7546771E-02  0.1064681E+00
         21   -1    0    0  504  503  0.00000000000E+00  0.00000000000E+00  0.71449425615E+03  0.71449425615E+03  0.00000000000E+00 0. -1.
         21   -1    0    0  503  504 -0.00000000000E+00 -0.00000000000E+00 -0.41649385074E+02  0.41649385074E+02  0.00000000000E+00 0. -1.
         25    2    1    2    0    0  0.86793640881E+02 -0.76106715168E+02  0.39870569795E+03  0.43349449917E+03  0.12500351611E+03 0.  0.
         25    2    1    2    0    0 -0.86793640881E+02  0.76106715168E+02  0.27413917312E+03  0.32264914205E+03  0.12499925774E+03 0.  0.
          5    1    3    3  501    0  0.95686387318E+02 -0.23076194729E+02  0.15342471172E+03  0.18234480428E+03  0.47000000000E+01 0. -1.
         -5    1    3    3    0  501 -0.88927464371E+01 -0.53030520438E+02  0.24528098624E+03  0.25114969490E+03  0.47000000000E+01 0. -1.
          5    1    4    4  502    0 -0.10282702579E+02  0.80975799817E+02  0.19925188591E+03  0.21537459963E+03  0.47000000000E+01 0. -1.
         -5    1    4    4    0  502 -0.76510938302E+02 -0.48690846498E+01  0.74887287219E+02  0.10727454242E+03  0.47000000000E+01 0. -1.
<mgrwt>
<rscale>  0 0.34501157E+03</rscale>
<asrwt>0</asrwt>
<pdfrwt beam="1">  1       21 0.10992218E+00 0.34501157E+03</pdfrwt>
<pdfrwt beam="2">  1       21 0.64075982E-02 0.34501157E+03</pdfrwt>
<totfact> 0.10951706E+05</totfact>
</mgrwt>
</event>
<event>
 8    1  0.9175398E-006  0.3286477E+03  0.7546771E-02  0.1071737E+00
         21   -1    0    0  504  503  0.00000000000E+00  0.00000000000E+00  0.10646369154E+02  0.10646369154E+02  0.00000000000E+00 0.  1.
         21   -1    0    0  503  504 -0.00000000000E+00 -0.00000000000E+00 -0.25362943469E+04  0.25362943469E+04  0.00000000000E+00 0.  1.
         25    2    1    2    0    0 -0.10222293103E+03  0.46391928128E+01 -0.14962670430E+04  0.15049621676E+04  0.12500004918E+03 0.  0.
         25    2    1    2    0    0  0.10222293103E+03 -0.46391928128E+01 -0.10293809348E+04  0.10419785485E+04  0.12499254704E+03 0.  0.
          5    1    3    3  501    0  0.33776601344E+00 -0.94821994821E+01 -0.84682024468E+01  0.13558268532E+02  0.47000000000E+01 0. -1.
         -5    1    3    3    0  501 -0.10256069704E+03  0.14121392295E+02 -0.14877988405E+04  0.14914038991E+04  0.47000000000E+01 0. -1.
          5    1    4    4  502    0  0.35539523168E+02 -0.59711341318E+02 -0.33103645327E+03  0.33828349854E+03  0.47000000000E+01 0. -1.
         -5    1    4    4    0  502  0.66683407863E+02  0.55072148505E+02 -0.69834448153E+03  0.70369504993E+03  0.47000000000E+01 0. -1.
<mgrwt>
<rscale>  0 0.32864769E+03</rscale>
<asrwt>0</asrwt>
<pdfrwt beam="1">  1       21 0.16379017E-02 0.32864769E+03</pdfrwt>
<pdfrwt beam="2">  1       21 0.39019944E+00 0.32864769E+03</pdfrwt>
<totfact> 0.15052178E+04</totfact>
</mgrwt>
</event>
<event>
 8    1  0.9175398E-006  0.3980971E+03  0.7546771E-02  0.1044441E+00
         21   -1    0    0  504  503  0.00000000000E+00  0.00000000000E+00  0.20597804493E+03  0.20597804493E+03  0.00000000000E+00 0.  1.
         21   -1    0    0  503  504 -0.00000000000E+00 -0.00000000000E+00 -0.19235218681E+03  0.19235218681E+03  0.00000000000E+00 0.  1.
         25    2    1    2    0    0 -0.18576674523E+02  0.84039648800E+02 -0.12205699354E+03  0.19475517708E+03  0.12499565561E+03 0.  0.
         25    2    1    2    0    0  0.18576674523E+02 -0.84039648800E+02  0.13568285167E+03  0.20357505466E+03  0.12500084494E+03 0.  0.
          5    1    3    3  501    0  0.43346190691E+02 -0.20493963422E+00 -0.18002129948E+02  0.47170975508E+02  0.47000000000E+01 0. -1.
         -5    1    3    3    0  501 -0.61922865214E+02  0.84244588434E+02 -0.10405486360E+03  0.14758420158E+03  0.47000000000E+01 0. -1.
          5    1    4    4  502    0  0.15759668504E+02 -0.73795687582E+02  0.87487773206E+01  0.76110457637E+02  0.47000000000E+01 0. -1.
         -5    1    4    4    0  502  0.28170060193E+01 -0.10243961218E+02  0.12693407435E+03  0.12746459702E+03  0.47000000000E+01 0. -1.
<mgrwt>
<rscale>  0 0.39809711E+03</rscale>
<asrwt>0</asrwt>
<pdfrwt beam="1">  1       21 0.31688930E-01 0.39809711E+03</pdfrwt>
<pdfrwt beam="2">  1       21 0.29592644E-01 0.39809711E+03</pdfrwt>
<totfact> 0.98758366E+04</totfact>
</mgrwt>
</event>
<event>
 8    1  0.9175398E-006  0.3608296E+03  0.7546771E-02  0.1058256E+00
         21   -1    0    0  504  503  0.00000000000E+00  0.00000000000E+00  0.13007971684E+03  0.13007971684E+03  0.00000000000E+00 0.  1.
         21   -1    0    0  503  504 -0.00000000000E+00 -0.00000000000E+00 -0.25022732255E+03  0.25022732255E+03  0.00000000000E+00 0.  1.
         25    2    1    2    0    0  0.68634418336E+02 -0.10214102213E+03 -0.15591775949E+02  0.17609452482E+03  0.12499082532E+03 0.  0.
         25    2    1    2    0    0 -0.68634418336E+02  0.10214102213E+03 -0.10455582976E+03  0.20421251457E+03  0.12500943080E+03 0.  0.
          5    1    3    3  501    0 -0.23288559033E+02 -0.58896090434E+02 -0.35074257166E+02  0.72549293352E+02  0.47000000000E+01 0.  1.
         -5    1    3    3    0  501  0.91922977369E+02 -0.43244931696E+02  0.19482481217E+02  0.10354523147E+03  0.47000000000E+01 0.  1.
          5    1    4    4  502    0 -0.58387651360E+02  0.12938443748E+03 -0.68635573644E+02  0.15774150520E+03  0.47000000000E+01 0.  1.
         -5    1    4    4    0  502 -0.10246766976E+02 -0.27243415345E+02 -0.35920256112E+02  0.46471009375E+02  0.47000000000E+01 0.  1.
<mgrwt>
<rscale>  0 0.36082960E+03</rscale>
<asrwt>0</asrwt>
<pdfrwt beam="1">  1       21 0.20012264E-01 0.36082960E+03</pdfrwt>
<pdfrwt beam="2">  1       21 0.38496511E-01 0.36082960E+03</pdfrwt>
<totfact> 0.14329235E+05</totfact>
</mgrwt>
</event>
<event>
 8    1  0.9175398E-006  0.2850298E+03  0.7546771E-02  0.1092973E+00
         21   -1    0    0  504  503  0.00000000000E+00  0.00000000000E+00  0.47082744130E+02  0.47082744130E+02  0.00000000000E+00 0. -1.
         21   -1    0    0  503  504 -0.00000000000E+00 -0.00000000000E+00 -0.43137877052E+03  0.43137877052E+03  0.00000000000E+00 0. -1.
         25    2    1    2    0    0  0.68416582424E+02 -0.17546228856E+01 -0.19312356996E+03  0.24001092328E+03  0.12499849026E+03 0.  0.
         25    2    1    2    0    0 -0.68416582424E+02  0.17546228856E+01 -0.19117245643E+03  0.23845059137E+03  0.12501147538E+03 0.  0.
          5    1    3    3  501    0  0.63116970899E+02 -0.52376586840E+02 -0.15771651335E+03  0.17783038955E+03  0.47000000000E+01 0. -1.
         -5    1    3    3    0  501  0.52996115257E+01  0.50621963954E+02 -0.35407056612E+02  0.62180533729E+02  0.47000000000E+01 0. -1.
          5    1    4    4  502    0 -0.72474203348E+02  0.35302125171E+02 -0.54107204080E+02  0.97203033522E+02  0.47000000000E+01 0.  1.
         -5    1    4    4    0  502  0.40576209237E+01 -0.33547502285E+02 -0.13706525234E+03  0.14124755785E+03  0.47000000000E+01 0.  1.
<mgrwt>
<rscale>  0 0.28502980E+03</rscale>
<asrwt>0</asrwt>
<pdfrwt beam="1">  1       21 0.72434993E-02 0.28502980E+03</pdfrwt>
<pdfrwt beam="2">  1       21 0.66365963E-01 0.28502980E+03</pdfrwt>
<totfact> 0.29016231E+05</totfact>
</mgrwt>
</event>
<event>
 8    1  0.9175398E-006  0.2981672E+03  0.7546771E-02  0.1086160E+00
         21   -1    0    0  504  503  0.00000000000E+00  0.00000000000E+00  0.88556395140E+02  0.88556395140E+02  0.00000000000E+00 0.  1.
         21   -1    0    0  503  504 -0.00000000000E+00 -0.00000000000E+00 -0.25098038918E+03  0.25098038918E+03  0.00000000000E+00 0.  1.
         25    2    1    2    0    0  0.43857986308E+02  0.15369699609E+02 -0.15709579184E+03  0.20606423404E+03  0.12499452032E+03 0.  0.
         25    2    1    2    0    0 -0.43857986308E+02 -0.15369699609E+02 -0.53282022091E+01  0.13347255028E+03  0.12500712504E+03 0.  0.
          5    1    3    3  501    0 -0.93647351705E+01  0.48773932824E+02 -0.17433860403E+02  0.52845286228E+02  0.47000000000E+01 0.  1.
         -5    1    3    3    0  501  0.53222721478E+02 -0.33404233216E+02 -0.13966193143E+03  0.15321894782E+03  0.47000000000E+01 0.  1.
          5    1    4    4  502    0  0.99768631959E+01  0.48267485562E+02 -0.67807266863E+01  0.49973555168E+02  0.47000000000E+01 0. -1.
         -5    1    4    4    0  502 -0.53834849503E+02 -0.63637185171E+02  0.14525244773E+01  0.83498995113E+02  0.47000000000E+01 0. -1.
<mgrwt>
<rscale>  0 0.29816719E+03</rscale>
<asrwt>0</asrwt>
<pdfrwt beam="1">  1       21 0.13624061E-01 0.29816719E+03</pdfrwt>
<pdfrwt beam="2">  1       21 0.38612368E-01 0.29816719E+03</pdfrwt>
<totfact> 0.29472591E+05</totfact>
</mgrwt>
</event>
<event>
 8    1  0.9175398E-006  0.3255992E+03  0.7546771E-02  0.1073101E+00
         21   -1    0    0  504  503  0.00000000000E+00  0.00000000000E+00  0.52113371901E+02  0.52113371901E+02  0.00000000000E+00 0. -1.
         21   -1    0    0  503  504 -0.00000000000E+00 -0.00000000000E+00 -0.50857789751E+03  0.50857789751E+03  0.00000000000E+00 0. -1.
         25    2    1    2    0    0 -0.32406063653E+02  0.28869834723E+02 -0.39150120590E+03  0.41325302522E+03  0.12498499238E+03 0.  0.
         25    2    1    2    0    0  0.32406063653E+02 -0.28869834723E+02 -0.64963319714E+02  0.14743824419E+03  0.12503672510E+03 0.  0.
          5    1    3    3  501    0  0.47579356705E+02  0.11578536794E+02 -0.17395888801E+03  0.18078064724E+03  0.47000000000E+01 0. -1.
         -5    1    3    3    0  501 -0.79985420357E+02  0.17291297929E+02 -0.21754231788E+03  0.23247237798E+03  0.47000000000E+01 0. -1.
          5    1    4    4  502    0  0.36662684745E+02 -0.75402539078E+02 -0.31137983082E+02  0.89562041862E+02  0.47000000000E+01 0. -1.
         -5    1    4    4    0  502 -0.42566210920E+01  0.46532704354E+02 -0.33825336632E+02  0.57876202328E+02  0.47000000000E+01 0. -1.
<mgrwt>
<rscale>  0 0.32559920E+03</rscale>
<asrwt>0</asrwt>
<pdfrwt beam="1">  1       21 0.80174416E-02 0.32559920E+03</pdfrwt>
<pdfrwt beam="2">  1       21 0.78242756E-01 0.32559920E+03</pdfrwt>
<totfact> 0.16635082E+05</totfact>
</mgrwt>
</event>
<event>
 8    1  0.9175398E-006  0.4260833E+03  0.7546771E-02  0.1035104E+00
         21   -1    0    0  504  503  0.00000000000E+00  0.00000000000E+00  0.11187734465E+04  0.11187734465E+04  0.00000000000E+00 0. -1.
         21   -1    0    0  503  504 -0.00000000000E+00 -0.00000000000E+00 -0.40568299385E+02  0.40568299385E+02  0.00000000000E+00 0. -1.
         25    2    1    2    0    0 -0.25989582034E+02 -0.16648023498E+03  0.63982004061E+03  0.67333962146E+03  0.12500173777E+03 0.  0.
         25    2    1    2    0    0  0.25989582034E+02  0.16648023498E+03  0.43838510647E+03  0.48600212439E+03  0.12500174528E+03 0.  0.
          5    1    3    3  501    0 -0.73863784539E+01 -0.81459867846E+01  0.27402543014E+03  0.27428624109E+03  0.47000000000E+01 0. -1.
         -5    1    3    3    0  501 -0.18603203581E+02 -0.15833424820E+03  0.36579461047E+03  0.39905338037E+03  0.47000000000E+01 0. -1.
          5    1    4    4  502    0  0.63386422778E+02  0.97592516669E+02  0.34423718777E+03  0.36340537881E+03  0.47000000000E+01 0. -1.
         -5    1    4    4    0  502 -0.37396840744E+02  0.68887718314E+02  0.94147918702E+02  0.12259674559E+03  0.47000000000E+01 0. -1.
<mgrwt>
<rscale>  0 0.42608326E+03</rscale>
<asrwt>0</asrwt>
<pdfrwt beam="1">  1       21 0.17211897E+00 0.42608326E+03</pdfrwt>
<pdfrwt beam="2">  1       21 0.62412777E-02 0.42608326E+03</pdfrwt>
<totfact> 0.34341267E+04</totfact>
</mgrwt>
</event>
<event>
 8    1  0.9175398E-006  0.2693409E+03  0.7546771E-02  0.1101657E+00
         21   -1    0    0  504  503  0.00000000000E+00  0.00000000000E+00  0.16919025076E+02  0.16919025076E+02  0.00000000000E+00 0. -1.
         21   -1    0    0  503  504 -0.00000000000E+00 -0.00000000000E+00 -0.10719367982E+04  0.10719367982E+04  0.00000000000E+00 0. -1.
         25    2    1    2    0    0 -0.11179407296E+02  0.44061004276E+02 -0.44121461052E+03  0.46080658971E+03  0.12492409433E+03 0.  0.
         25    2    1    2    0    0  0.11179407296E+02 -0.44061004276E+02 -0.61380316264E+03  0.62804923359E+03  0.12500066443E+03 0.  0.
          5    1    3    3  501    0 -0.33002737916E+02  0.81910850795E+02 -0.27421563961E+03  0.28812302094E+03  0.47000000000E+01 0.  1.
         -5    1    3    3    0  501  0.21823330620E+02 -0.37849846519E+02 -0.16699897090E+03  0.17268356877E+03  0.47000000000E+01 0.  1.
          5    1    4    4  502    0  0.25345145971E+02 -0.74752212234E+02 -0.23997520201E+03  0.25266669198E+03  0.47000000000E+01 0. -1.
         -5    1    4    4    0  502 -0.14165738675E+02  0.30691207958E+02 -0.37382796063E+03  0.37538254161E+03  0.47000000000E+01 0. -1.
<mgrwt>
<rscale>  0 0.26934087E+03</rscale>
<asrwt>0</asrwt>
<pdfrwt beam="1">  1       21 0.26029266E-02 0.26934087E+03</pdfrwt>
<pdfrwt beam="2">  1       21 0.16491337E+00 0.26934087E+03</pdfrwt>
<totfact> 0.17985740E+05</totfact>
</mgrwt>
</event>
<event>
 8    1  0.9175398E-006  0.2948325E+03  0.7546771E-02  0.1087853E+00
         21   -1    0    0  504  503  0.00000000000E+00  0.00000000000E+00  0.65305095036E+03  0.65305095036E+03  0.00000000000E+00 0.  1.
         21   -1    0    0  503  504 -0.00000000000E+00 -0.00000000000E+00 -0.33276969996E+02  0.33276969996E+02  0.00000000000E+00 0.  1.
         25    2    1    2    0    0  0.76081578800E+02 -0.13215721455E+02  0.28190192305E+03  0.31788970252E+03  0.12498842676E+03 0.  0.
         25    2    1    2    0    0 -0.76081578800E+02  0.13215721455E+02  0.33787205731E+03  0.36843821784E+03  0.12500452521E+03 0.  0.
          5    1    3    3  501    0  0.72515205868E+02  0.34606314117E+02  0.93250676195E+02  0.12318210369E+03  0.47000000000E+01 0. -1.
         -5    1    3    3    0  501  0.35663729320E+01 -0.47822035572E+02  0.18865124685E+03  0.19470759883E+03  0.47000000000E+01 0. -1.
          5    1    4    4  502    0 -0.75966892259E+02 -0.30072996206E+02  0.29923608986E+03  0.31022521061E+03  0.47000000000E+01 0.  1.
         -5    1    4    4    0  502 -0.11468654159E+00  0.43288717661E+02  0.38635967454E+02  0.58213007231E+02  0.47000000000E+01 0.  1.
<mgrwt>
<rscale>  0 0.29483254E+03</rscale>
<asrwt>0</asrwt>
<pdfrwt beam="1">  1       21 0.10046937E+00 0.29483254E+03</pdfrwt>
<pdfrwt beam="2">  1       21 0.51195343E-02 0.29483254E+03</pdfrwt>
<totfact> 0.20345585E+05</totfact>
</mgrwt>
</event>
<event>
 8    1  0.9175398E-006  0.3061986E+03  0.7546771E-02  0.1082182E+00
         21   -1    0    0  504  503  0.00000000000E+00  0.00000000000E+00  0.45476651824E+03  0.45476651824E+03  0.00000000000E+00 0. -1.
         21   -1    0    0  503  504 -0.00000000000E+00 -0.00000000000E+00 -0.51541594080E+02  0.51541594080E+02  0.00000000000E+00 0. -1.
         25    2    1    2    0    0 -0.62108139215E+02 -0.45409083252E+02  0.12963280864E+03  0.19582980876E+03  0.12500097249E+03 0.  0.
         25    2    1    2    0    0  0.62108139215E+02  0.45409083252E+02  0.27359211552E+03  0.31047830357E+03  0.12499890204E+03 0.  0.
          5    1    3    3  501    0 -0.56895492686E+01  0.41652709561E+02  0.29532249277E+02  0.51590337583E+02  0.47000000000E+01 0. -1.
         -5    1    3    3    0  501 -0.56418589947E+02 -0.87061792813E+02  0.10010055936E+03  0.14423947117E+03  0.47000000000E+01 0. -1.
          5    1    4    4  502    0 -0.40405544554E+01 -0.38704623812E+02  0.62699384443E+02  0.73943740737E+02  0.47000000000E+01 0. -1.
         -5    1    4    4    0  502  0.66148693671E+02  0.84113707064E+02  0.21089273108E+03  0.23653456283E+03  0.47000000000E+01 0. -1.
<mgrwt>
<rscale>  0 0.30619857E+03</rscale>
<asrwt>0</asrwt>
<pdfrwt beam="1">  1       21 0.69964077E-01 0.30619857E+03</pdfrwt>
<pdfrwt beam="2">  1       21 0.79294763E-02 0.30619857E+03</pdfrwt>
<totfact> 0.21924677E+05</totfact>
</mgrwt>
</event>
<event>
 8    1  0.9175398E-006  0.3146443E+03  0.7546771E-02  0.1078141E+00
         21   -1    0    0  504  503  0.00000000000E+00  0.00000000000E+00  0.26565312767E+03  0.26565312767E+03  0.00000000000E+00 0.  1.
         21   -1    0    0  503  504 -0.00000000000E+00 -0.00000000000E+00 -0.93167586839E+02  0.93167586839E+02  0.00000000000E+00 0.  1.
         25    2    1    2    0    0  0.86568932579E+02  0.37079574851E+02  0.10451638530E+03  0.18819391358E+03  0.12499679738E+03 0.  0.
         25    2    1    2    0    0 -0.86568932579E+02 -0.37079574851E+02  0.67969155531E+02  0.17062680093E+03  0.12499849652E+03 0.  0.
          5    1    3    3  501    0  0.76274658247E+00  0.31449152605E+02 -0.19425179483E+02  0.37270076199E+02  0.47000000000E+01 0.  1.
         -5    1    3    3    0  501  0.85806185997E+02  0.56304222456E+01  0.12394156478E+03  0.15092383739E+03  0.47000000000E+01 0.  1.
          5    1    4    4  502    0 -0.94033023495E+01 -0.35106329794E+02 -0.28902604369E+02  0.46672551098E+02  0.47000000000E+01 0.  1.
         -5    1    4    4    0  502 -0.77165630230E+02 -0.19732450571E+01  0.96871759900E+02  0.12395424983E+03  0.47000000000E+01 0.  1.
<mgrwt>
<rscale>  0 0.31464431E+03</rscale>
<asrwt>0</asrwt>
<pdfrwt beam="1">  1       21 0.40869712E-01 0.31464431E+03</pdfrwt>
<pdfrwt beam="2">  1       21 0.14333475E-01 0.31464431E+03</pdfrwt>
<totfact> 0.23839548E+05</totfact>
</mgrwt>
</event>
<event>
 8    1  0.9175398E-006  0.3090189E+03  0.7546771E-02  0.1080817E+00
         21   -1    0    0  504  503  0.00000000000E+00  0.00000000000E+00  0.57606548138E+03  0.57606548138E+03  0.00000000000E+00 0. -1.
         21   -1    0    0  503  504 -0.00000000000E+00 -0.00000000000E+00 -0.41441774012E+02  0.41441774012E+02  0.00000000000E+00 0. -1.
         25    2    1    2    0    0  0.79608204912E+02 -0.10415217955E+02  0.18249382682E+03  0.23531888989E+03  0.12500016022E+03 0.  0.
         25    2    1    2    0    0 -0.79608204912E+02  0.10415217955E+02  0.35212988055E+03  0.38218836550E+03  0.12500620344E+03 0.  0.
          5    1    3    3  501    0  0.19938256018E+02 -0.63972622791E+02  0.97289441544E+02  0.11822586839E+03  0.47000000000E+01 0. -1.
         -5    1    3    3    0  501  0.59669948893E+02  0.53557404836E+02  0.85204385276E+02  0.11709302150E+03  0.47000000000E+01 0. -1.
          5    1    4    4  502    0 -0.24032554802E+02 -0.46697942588E+02  0.62566023955E+02  0.81822117339E+02  0.47000000000E+01 0. -1.
         -5    1    4    4    0  502 -0.55575650110E+02  0.57113160543E+02  0.28956385659E+03  0.30036624816E+03  0.47000000000E+01 0. -1.
<mgrwt>
<rscale>  0 0.30901893E+03</rscale>
<asrwt>0</asrwt>
<pdfrwt beam="1">  1       21 0.88625453E-01 0.30901893E+03</pdfrwt>
<pdfrwt beam="2">  1       21 0.63756580E-02 0.30901893E+03</pdfrwt>
<totfact> 0.18694552E+05</totfact>
</mgrwt>
</event>
<event>
 8    1  0.9175398E-006  0.2899441E+03  0.7546771E-02  0.1090378E+00
         21   -1    0    0  504  503  0.00000000000E+00  0.00000000000E+00  0.26748315570E+02  0.26748315570E+02  0.00000000000E+00 0.  1.
         21   -1    0    0  503  504 -0.00000000000E+00 -0.00000000000E+00 -0.78572757749E+03  0.78572757749E+03  0.00000000000E+00 0.  1.
         25    2    1    2    0    0 -0.34613487755E+02  0.59852248849E+02 -0.44861447954E+03  0.47080716318E+03  0.12499619363E+03 0.  0.
         25    2    1    2    0    0  0.34613487755E+02 -0.59852248849E+02 -0.31036478238E+03  0.34166872988E+03  0.12502334825E+03 0.  0.
          5    1    3    3  501    0 -0.16097038882E+02 -0.35184157514E+02 -0.20391098273E+03  0.20760254930E+03  0.47000000000E+01 0.  1.
         -5    1    3    3    0  501 -0.18516448873E+02  0.95036406363E+02 -0.24470349681E+03  0.26320461388E+03  0.47000000000E+01 0.  1.
          5    1    4    4  502    0  0.60181779061E+02 -0.85454781327E+02 -0.25174944587E+03  0.27262472316E+03  0.47000000000E+01 0. -1.
         -5    1    4    4    0  502 -0.25568291306E+02  0.25602532478E+02 -0.58615336514E+02  0.69044006722E+02  0.47000000000E+01 0. -1.
<mgrwt>
<rscale>  0 0.28994406E+03</rscale>
<asrwt>0</asrwt>
<pdfrwt beam="1">  1       21 0.41151260E-02 0.28994406E+03</pdfrwt>
<pdfrwt beam="2">  1       21 0.12088115E+00 0.28994406E+03</pdfrwt>
<totfact> 0.18767653E+05</totfact>
</mgrwt>
</event>
<event>
 8    1  0.9175398E-006  0.2689182E+03  0.7546771E-02  0.1101900E+00
         21   -1    0    0  504  503  0.00000000000E+00  0.00000000000E+00  0.22440818082E+03  0.22440818082E+03  0.00000000000E+00 0.  1.
         21   -1    0    0  503  504 -0.00000000000E+00 -0.00000000000E+00 -0.80564149515E+02  0.80564149515E+02  0.00000000000E+00 0.  1.
         25    2    1    2    0    0  0.17824684882E+02  0.41339605262E+02  0.95370734484E+02  0.16354684568E+03  0.12500124552E+03 0.  0.
         25    2    1    2    0    0 -0.17824684882E+02 -0.41339605262E+02  0.48473296825E+02  0.14142548466E+03  0.12499929941E+03 0.  0.
          5    1    3    3  501    0  0.68914887499E+02  0.17501243300E+02  0.30605836647E+02  0.77552320874E+02  0.47000000000E+01 0. -1.
         -5    1    3    3    0  501 -0.51090202617E+02  0.23838361962E+02  0.64764897837E+02  0.85994524804E+02  0.47000000000E+01 0. -1.
          5    1    4    4  502    0  0.24054851997E+02  0.15126934042E+02  0.63191483678E+02  0.69445760472E+02  0.47000000000E+01 0.  1.
         -5    1    4    4    0  502 -0.41879536879E+02 -0.56466539304E+02 -0.14718186853E+02  0.71979724190E+02  0.47000000000E+01 0.  1.
<mgrwt>
<rscale>  0 0.26891823E+03</rscale>
<asrwt>0</asrwt>
<pdfrwt beam="1">  1       21 0.34524335E-01 0.26891823E+03</pdfrwt>
<pdfrwt beam="2">  1       21 0.12394485E-01 0.26891823E+03</pdfrwt>
<totfact> 0.44085462E+05</totfact>
</mgrwt>
</event>
<event>
 8    1  0.9175398E-006  0.2918413E+03  0.7546771E-02  0.1089392E+00
         21   -1    0    0  504  503  0.00000000000E+00  0.00000000000E+00  0.12713454910E+03  0.12713454910E+03  0.00000000000E+00 0.  1.
         21   -1    0    0  503  504 -0.00000000000E+00 -0.00000000000E+00 -0.16748271391E+03  0.16748271391E+03  0.00000000000E+00 0.  1.
         25    2    1    2    0    0 -0.38477159830E+02  0.63695936551E+02 -0.31677899339E+02  0.14888646860E+03  0.12500410819E+03 0.  0.
         25    2    1    2    0    0  0.38477159830E+02 -0.63695936551E+02 -0.86702654765E+01  0.14573079441E+03  0.12499850708E+03 0.  0.
          5    1    3    3  501    0 -0.34060210339E+02  0.26887520763E+02  0.45553579418E+02  0.63089264530E+02  0.47000000000E+01 0. -1.
         -5    1    3    3    0  501 -0.44169494916E+01  0.36808415788E+02 -0.77231478757E+02  0.85797204073E+02  0.47000000000E+01 0. -1.
          5    1    4    4  502    0  0.69342281163E+02 -0.76844309362E+01  0.23785999221E+02  0.73859773860E+02  0.47000000000E+01 0.  1.
         -5    1    4    4    0  502 -0.30865121333E+02 -0.56011505615E+02 -0.32456264697E+02  0.71871020545E+02  0.47000000000E+01 0.  1.
<mgrwt>
<rscale>  0 0.29184132E+03</rscale>
<asrwt>0</asrwt>
<pdfrwt beam="1">  1       21 0.19559162E-01 0.29184132E+03</pdfrwt>
<pdfrwt beam="2">  1       21 0.25766571E-01 0.29184132E+03</pdfrwt>
<totfact> 0.33656087E+05</totfact>
</mgrwt>
</event>
<event>
 8    1  0.9175398E-006  0.3239609E+03  0.7546771E-02  0.1073841E+00
         21   -1    0    0  504  503  0.00000000000E+00  0.00000000000E+00  0.13092769277E+04  0.13092769277E+04  0.00000000000E+00 0.  1.
         21   -1    0    0  503  504 -0.00000000000E+00 -0.00000000000E+00 -0.20039820040E+02  0.20039820040E+02  0.00000000000E+00 0.  1.
         25    2    1    2    0    0 -0.76736651808E+02  0.40662461594E+02  0.87198710211E+03  0.88517102778E+03  0.12499717064E+03 0.  0.
         25    2    1    2    0    0  0.76736651808E+02 -0.40662461594E+02  0.41725000555E+03  0.44414571996E+03  0.12500361559E+03 0.  0.
          5    1    3    3  501    0  0.90497736130E+01 -0.15962289890E+02  0.46473963957E+03  0.46512548381E+03  0.47000000000E+01 0.  1.
         -5    1    3    3    0  501 -0.85786425421E+02  0.56624751484E+02  0.40724746254E+03  0.42004554397E+03  0.47000000000E+01 0.  1.
          5    1    4    4  502    0  0.21357852727E+02 -0.62946199182E+02  0.92976699283E+02  0.11439029012E+03  0.47000000000E+01 0. -1.
         -5    1    4    4    0  502  0.55378799081E+02  0.22283737588E+02  0.32427330627E+03  0.32975542984E+03  0.47000000000E+01 0. -1.
<mgrwt>
<rscale>  0 0.32396095E+03</rscale>
<asrwt>0</asrwt>
<pdfrwt beam="1">  1       21 0.20142715E+00 0.32396095E+03</pdfrwt>
<pdfrwt beam="2">  1       21 0.30830503E-02 0.32396095E+03</pdfrwt>
<totfact> 0.74593985E+04</totfact>
</mgrwt>
</event>
<event>
 8    1  0.9175398E-006  0.4351758E+03  0.7546771E-02  0.1032237E+00
         21   -1    0    0  504  503  0.00000000000E+00  0.00000000000E+00  0.35467141877E+02  0.35467141877E+02  0.00000000000E+00 0.  1.
         21   -1    0    0  503  504 -0.00000000000E+00 -0.00000000000E+00 -0.13348832532E+04  0.13348832532E+04  0.00000000000E+00 0.  1.
         25    2    1    2    0    0 -0.22842913174E+02 -0.17656606331E+03 -0.66705189934E+03  0.70161618624E+03  0.12493863684E+03 0.  0.
         25    2    1    2    0    0  0.22842913174E+02  0.17656606331E+03 -0.63236421201E+03  0.66873420887E+03  0.12499428821E+03 0.  0.
          5    1    3    3  501    0 -0.60031171494E+02 -0.70447609420E+02 -0.42051150513E+03  0.43060262792E+03  0.47000000000E+01 0. -1.
         -5    1    3    3    0  501  0.37188258319E+02 -0.10611845389E+03 -0.24654039421E+03  0.27101355832E+03  0.47000000000E+01 0. -1.
          5    1    4    4  502    0  0.23989952937E+02  0.18741913401E+03 -0.47946354921E+03  0.51537252028E+03  0.47000000000E+01 0.  1.
         -5    1    4    4    0  502 -0.11470397621E+01 -0.10853070696E+02 -0.15290066279E+03  0.15336168859E+03  0.47000000000E+01 0.  1.
<mgrwt>
<rscale>  0 0.43517580E+03</rscale>
<asrwt>0</asrwt>
<pdfrwt beam="1">  1       21 0.54564836E-02 0.43517580E+03</pdfrwt>
<pdfrwt beam="2">  1       21 0.20536665E+00 0.43517580E+03</pdfrwt>
<totfact> 0.25563329E+04</totfact>
</mgrwt>
</event>
<event>
 8    1  0.9175398E-006  0.2542755E+03  0.7546771E-02  0.1110632E+00
         21   -1    0    0  504  503  0.00000000000E+00  0.00000000000E+00  0.86504911672E+02  0.86504911672E+02  0.00000000000E+00 0.  1.
         21   -1    0    0  503  504 -0.00000000000E+00 -0.00000000000E+00 -0.18685645870E+03  0.18685645870E+03  0.00000000000E+00 0.  1.
         25    2    1    2    0    0  0.91905513540E+01 -0.16873914516E+02 -0.64144549062E+02  0.14180906384E+03  0.12500436867E+03 0.  0.
         25    2    1    2    0    0 -0.91905513540E+01  0.16873914516E+02 -0.36206997964E+02  0.13155230653E+03  0.12500346966E+03 0.  0.
          5    1    3    3  501    0  0.18190973234E+01  0.36106438646E+02 -0.78219619026E+02  0.86298220302E+02  0.47000000000E+01 0. -1.
         -5    1    3    3    0  501  0.73714540307E+01 -0.52980353163E+02  0.14075069963E+02  0.55510843537E+02  0.47000000000E+01 0. -1.
          5    1    4    4  502    0  0.13649899609E+02  0.65027774888E+02 -0.40366978905E+02  0.77887831220E+02  0.47000000000E+01 0.  1.
         -5    1    4    4    0  502 -0.22840450963E+02 -0.48153860372E+02  0.41599809416E+01  0.53664475310E+02  0.47000000000E+01 0.  1.
<mgrwt>
<rscale>  0 0.25427545E+03</rscale>
<asrwt>0</asrwt>
<pdfrwt beam="1">  1       21 0.13308448E-01 0.25427545E+03</pdfrwt>
<pdfrwt beam="2">  1       21 0.28747147E-01 0.25427545E+03</pdfrwt>
<totfact> 0.55780134E+05</totfact>
</mgrwt>
</event>
<event>
 8    1  0.9175398E-006  0.4372426E+03  0.7546771E-02  0.1031596E+00
         21   -1    0    0  504  503  0.00000000000E+00  0.00000000000E+00  0.85931042835E+03  0.85931042835E+03  0.00000000000E+00 0. -1.
         21   -1    0    0  503  504 -0.00000000000E+00 -0.00000000000E+00 -0.55620486031E+02  0.55620486031E+02  0.00000000000E+00 0. -1.
         25    2    1    2    0    0 -0.16185179521E+03 -0.76960211704E+02  0.38683937033E+03  0.44428632257E+03  0.12500704054E+03 0.  0.
         25    2    1    2    0    0  0.16185179521E+03  0.76960211704E+02  0.41685057199E+03  0.47064459182E+03  0.12499221831E+03 0.  0.
          5    1    3    3  501    0 -0.20877387861E+02  0.71929823061E+01 -0.15146122742E+01  0.22627159979E+02  0.47000000000E+01 0. -1.
         -5    1    3    3    0  501 -0.14097440735E+03 -0.84153194010E+02  0.38835398261E+03  0.42165916259E+03  0.47000000000E+01 0. -1.
          5    1    4    4  502    0  0.93474184463E+02  0.34342313610E+02  0.35564248766E+03  0.36935144063E+03  0.47000000000E+01 0. -1.
         -5    1    4    4    0  502  0.68377610749E+02  0.42617898094E+02  0.61208084327E+02  0.10129315118E+03  0.47000000000E+01 0. -1.
<mgrwt>
<rscale>  0 0.43724256E+03</rscale>
<asrwt>0</asrwt>
<pdfrwt beam="1">  1       21 0.13220159E+00 0.43724256E+03</pdfrwt>
<pdfrwt beam="2">  1       21 0.85569985E-02 0.43724256E+03</pdfrwt>
<totfact> 0.40292380E+04</totfact>
</mgrwt>
</event>
<event>
 8    1  0.9175398E-006  0.3515063E+03  0.7546771E-02  0.1061998E+00
         21   -1    0    0  504  503  0.00000000000E+00  0.00000000000E+00  0.26932210509E+03  0.26932210509E+03  0.00000000000E+00 0. -1.
         21   -1    0    0  503  504 -0.00000000000E+00 -0.00000000000E+00 -0.11469232211E+03  0.11469232211E+03  0.00000000000E+00 0. -1.
         25    2    1    2    0    0 -0.61218753125E+02  0.41694502863E+02 -0.30713964355E+02  0.14850783127E+03  0.12500024416E+03 0.  0.
         25    2    1    2    0    0  0.61218753125E+02 -0.41694502863E+02  0.18534374734E+03  0.23550659593E+03  0.12499953899E+03 0.  0.
          5    1    3    3  501    0 -0.91495574573E+02  0.30931993561E+02  0.91056984154E+01  0.97124827597E+02  0.47000000000E+01 0. -1.
         -5    1    3    3    0  501  0.30276821448E+02  0.10762509302E+02 -0.39819662771E+02  0.51383003675E+02  0.47000000000E+01 0. -1.
          5    1    4    4  502    0 -0.47774687865E+01 -0.61561953496E+02  0.13941723484E+03  0.15255147884E+03  0.47000000000E+01 0. -1.
         -5    1    4    4    0  502  0.65996221911E+02  0.19867450633E+02  0.45926512495E+02  0.82955117088E+02  0.47000000000E+01 0. -1.
<mgrwt>
<rscale>  0 0.35150634E+03</rscale>
<asrwt>0</asrwt>
<pdfrwt beam="1">  1       21 0.41434170E-01 0.35150634E+03</pdfrwt>
<pdfrwt beam="2">  1       21 0.17644973E-01 0.35150634E+03</pdfrwt>
<totfact> 0.15651452E+05</totfact>
</mgrwt>
</event>
<event>
 8    1  0.9175398E-006  0.3043718E+03  0.7546771E-02  0.1083075E+00
         21   -1    0    0  504  503  0.00000000000E+00  0.00000000000E+00  0.13344972063E+04  0.13344972063E+04  0.00000000000E+00 0. -1.
         21   -1    0    0  503  504 -0.00000000000E+00 -0.00000000000E+00 -0.17355261638E+02  0.17355261638E+02  0.00000000000E+00 0. -1.
         25    2    1    2    0    0  0.70780292459E+01  0.27089819380E+02  0.10235679421E+04  0.10315524974E+04  0.12500106438E+03 0.  0.
         25    2    1    2    0    0 -0.70780292459E+01 -0.27089819380E+02  0.29357400262E+03  0.32029997054E+03  0.12498967679E+03 0.  0.
          5    1    3    3  501    0 -0.56081283640E+02 -0.57458409111E+01  0.48062754426E+03  0.48394529791E+03  0.47000000000E+01 0. -1.
         -5    1    3    3    0  501  0.63159312886E+02  0.32835660291E+02  0.54294039780E+03  0.54760719951E+03  0.47000000000E+01 0. -1.
          5    1    4    4  502    0  0.50131875126E+02 -0.21939080940E+01  0.59347032947E+02  0.77859992653E+02  0.47000000000E+01 0. -1.
         -5    1    4    4    0  502 -0.57209904372E+02 -0.24895911286E+02  0.23422696967E+03  0.24243997789E+03  0.47000000000E+01 0. -1.
<mgrwt>
<rscale>  0 0.30437180E+03</rscale>
<asrwt>0</asrwt>
<pdfrwt beam="1">  1       21 0.20530718E+00 0.30437180E+03</pdfrwt>
<pdfrwt beam="2">  1       21 0.26700413E-02 0.30437180E+03</pdfrwt>
<totfact> 0.90152352E+04</totfact>
</mgrwt>
</event>
<event>
 8    1  0.9175398E-006  0.3037973E+03  0.7546771E-02  0.1083358E+00
         21   -1    0    0  504  503  0.00000000000E+00  0.00000000000E+00  0.69793344335E+03  0.69793344335E+03  0.00000000000E+00 0. -1.
         21   -1    0    0  503  504 -0.00000000000E+00 -0.00000000000E+00 -0.33059317817E+02  0.33059317817E+02  0.00000000000E+00 0. -1.
         25    2    1    2    0    0  0.78271546812E+02  0.21874788718E+02  0.26253893360E+03  0.30192066447E+03  0.12499781822E+03 0.  0.
         25    2    1    2    0    0 -0.78271546812E+02 -0.21874788718E+02  0.40233519194E+03  0.42907209670E+03  0.12499726426E+03 0.  0.
          5    1    3    3  501    0  0.50134789463E+02  0.73332809460E+02  0.17705658693E+03  0.19814722565E+03  0.47000000000E+01 0.  1.
         -5    1    3    3    0  501  0.28136757349E+02 -0.51458020743E+02  0.85482346669E+02  0.10377343882E+03  0.47000000000E+01 0.  1.
          5    1    4    4  502    0 -0.19269825773E+02 -0.69525784865E+02  0.21852976113E+03  0.23017929413E+03  0.47000000000E+01 0. -1.
         -5    1    4    4    0  502 -0.59001721039E+02  0.47650996148E+02  0.18380543081E+03  0.19889280257E+03  0.47000000000E+01 0. -1.
<mgrwt>
<rscale>  0 0.30379732E+03</rscale>
<asrwt>0</asrwt>
<pdfrwt beam="1">  1       21 0.10737437E+00 0.30379732E+03</pdfrwt>
<pdfrwt beam="2">  1       21 0.50860494E-02 0.30379732E+03</pdfrwt>
<totfact> 0.17469527E+05</totfact>
</mgrwt>
</event>
<event>
 8    1  0.9175398E-006  0.3377871E+03  0.7546771E-02  0.1067742E+00
         21   -1    0    0  504  503  0.00000000000E+00  0.00000000000E+00  0.22282051862E+03  0.22282051862E+03  0.00000000000E+00 0.  1.
         21   -1    0    0  503  504 -0.00000000000E+00 -0.00000000000E+00 -0.12801799021E+03  0.12801799021E+03  0.00000000000E+00 0.  1.
         25    2    1    2    0    0  0.32915488790E+02  0.28980928203E+01 -0.65464422155E+02  0.14492392813E+03  0.12500210411E+03 0.  0.
         25    2    1    2    0    0 -0.32915488790E+02 -0.28980928203E+01  0.16026695056E+03  0.20591458070E+03  0.12499396289E+03 0.  0.
          5    1    3    3  501    0  0.41453027757E+02 -0.46053064783E+02  0.57803839455E+00  0.62142275582E+02  0.47000000000E+01 0.  1.
         -5    1    3    3    0  501 -0.85375389670E+01  0.48951157604E+02 -0.66042460550E+02  0.82781652543E+02  0.47000000000E+01 0.  1.
          5    1    4    4  502    0 -0.73983404639E+02  0.22449085232E+02  0.74957261357E+02  0.10778769234E+03  0.47000000000E+01 0.  1.
         -5    1    4    4    0  502  0.41067915850E+02 -0.25347178052E+02  0.85309689205E+02  0.98126888362E+02  0.47000000000E+01 0.  1.
<mgrwt>
<rscale>  0 0.33778712E+03</rscale>
<asrwt>0</asrwt>
<pdfrwt beam="1">  1       21 0.34280080E-01 0.33778712E+03</pdfrwt>
<pdfrwt beam="2">  1       21 0.19695075E-01 0.33778712E+03</pdfrwt>
<totfact> 0.18762208E+05</totfact>
</mgrwt>
</event>
<event>
 8    1  0.9175398E-006  0.2745399E+03  0.7546771E-02  0.1098709E+00
         21   -1    0    0  504  503  0.00000000000E+00  0.00000000000E+00  0.94541495164E+02  0.94541495164E+02  0.00000000000E+00 0. -1.
         21   -1    0    0  503  504 -0.00000000000E+00 -0.00000000000E+00 -0.19930971377E+03  0.19930971377E+03  0.00000000000E+00 0. -1.
         25    2    1    2    0    0  0.17526695070E+02  0.21409913649E+02  0.62391756323E+00  0.12802741260E+03  0.12500023865E+03 0.  0.
         25    2    1    2    0    0 -0.17526695070E+02 -0.21409913649E+02 -0.10539213617E+03  0.16582379633E+03  0.12499783846E+03 0.  0.
          5    1    3    3  501    0  0.23646138996E+01  0.73106539429E+02 -0.60178690574E+01  0.73542248090E+02  0.47000000000E+01 0. -1.
         -5    1    3    3    0  501  0.15162081170E+02 -0.51696625780E+02  0.66417866206E+01  0.54485164513E+02  0.47000000000E+01 0. -1.
          5    1    4    4  502    0 -0.13399767688E+02 -0.67703075384E+02 -0.95751164505E+02  0.11812550823E+03  0.47000000000E+01 0. -1.
         -5    1    4    4    0  502 -0.41269273819E+01  0.46293161735E+02 -0.96409716629E+01  0.47698288100E+02  0.47000000000E+01 0. -1.
<mgrwt>
<rscale>  0 0.27453989E+03</rscale>
<asrwt>0</asrwt>
<pdfrwt beam="1">  1       21 0.14544846E-01 0.27453989E+03</pdfrwt>
<pdfrwt beam="2">  1       21 0.30663032E-01 0.27453989E+03</pdfrwt>
<totfact> 0.41652742E+05</totfact>
</mgrwt>
</event>
<event>
 8    1  0.9175398E-006  0.2885482E+03  0.7546771E-02  0.1091110E+00
         21   -1    0    0  504  503  0.00000000000E+00  0.00000000000E+00  0.78468065808E+02  0.78468065808E+02  0.00000000000E+00 0. -1.
         21   -1    0    0  503  504 -0.00000000000E+00 -0.00000000000E+00 -0.26526740601E+03  0.26526740601E+03  0.00000000000E+00 0. -1.
         25    2    1    2    0    0  0.33134733647E+02  0.61013234445E+02 -0.70435796752E+02  0.15938238756E+03  0.12498407359E+03 0.  0.
         25    2    1    2    0    0 -0.33134733647E+02 -0.61013234445E+02 -0.11636354345E+03  0.18435308425E+03  0.12500024031E+03 0.  0.
          5    1    3    3  501    0  0.42513238198E+02  0.13256017305E+02 -0.94732416261E+02  0.10478271855E+03  0.47000000000E+01 0. -1.
         -5    1    3    3    0  501 -0.93785045515E+01  0.47757217141E+02  0.24296619508E+02  0.54599669012E+02  0.47000000000E+01 0. -1.
          5    1    4    4  502    0 -0.25691705264E+02  0.36600839727E+02 -0.35413583097E+02  0.57235452789E+02  0.47000000000E+01 0. -1.
         -5    1    4    4    0  502 -0.74430283823E+01 -0.97614074173E+02 -0.80949960351E+02  0.12711763146E+03  0.47000000000E+01 0. -1.
<mgrwt>
<rscale>  0 0.28854823E+03</rscale>
<asrwt>0</asrwt>
<pdfrwt beam="1">  1       21 0.12072010E-01 0.28854823E+03</pdfrwt>
<pdfrwt beam="2">  1       21 0.40810370E-01 0.28854823E+03</pdfrwt>
<totfact> 0.32853880E+05</totfact>
</mgrwt>
</event>
<event>
 8    1  0.9175398E-006  0.2738266E+03  0.7546771E-02  0.1099109E+00
         21   -1    0    0  504  503  0.00000000000E+00  0.00000000000E+00  0.13543874759E+04  0.13543874759E+04  0.00000000000E+00 0.  1.
         21   -1    0    0  503  504 -0.00000000000E+00 -0.00000000000E+00 -0.13840393991E+02  0.13840393991E+02  0.00000000000E+00 0.  1.
         25    2    1    2    0    0  0.18419300088E+02 -0.49113460101E+02  0.57409976221E+03  0.58988677874E+03  0.12499788872E+03 0.  0.
         25    2    1    2    0    0 -0.18419300088E+02  0.49113460101E+02  0.76644731973E+03  0.77834109119E+03  0.12498783030E+03 0.  0.
          5    1    3    3  501    0  0.68606390163E+02 -0.49266385443E+02  0.33329885322E+03  0.34386658614E+03  0.47000000000E+01 0. -1.
         -5    1    3    3    0  501 -0.50187090075E+02  0.15292534158E+00  0.24080090899E+03  0.24602019260E+03  0.47000000000E+01 0. -1.
          5    1    4    4  502    0 -0.19587534059E+02 -0.26800195944E+02  0.68538248002E+02  0.76298777397E+02  0.47000000000E+01 0.  1.
         -5    1    4    4    0  502  0.11682339708E+01  0.75913656045E+02  0.69790907173E+03  0.70204231379E+03  0.47000000000E+01 0.  1.
<mgrwt>
<rscale>  0 0.27382663E+03</rscale>
<asrwt>0</asrwt>
<pdfrwt beam="1">  1       21 0.20836720E+00 0.27382663E+03</pdfrwt>
<pdfrwt beam="2">  1       21 0.21292924E-02 0.27382663E+03</pdfrwt>
<totfact> 0.12681181E+05</totfact>
</mgrwt>
</event>
<event>
 8    1  0.9175398E-006  0.2968702E+03  0.7546771E-02  0.1086816E+00
         21   -1    0    0  504  503  0.00000000000E+00  0.00000000000E+00  0.47692749073E+03  0.47692749073E+03  0.00000000000E+00 0.  1.
         21   -1    0    0  503  504 -0.00000000000E+00 -0.00000000000E+00 -0.46197756714E+02  0.46197756714E+02  0.00000000000E+00 0.  1.
         25    2    1    2    0    0  0.59431256673E+02 -0.57845252421E+01  0.30930933207E+03  0.33891482852E+03  0.12500185231E+03 0.  0.
         25    2    1    2    0    0 -0.59431256673E+02  0.57845252421E+01  0.12142040195E+03  0.18421041893E+03  0.12500011772E+03 0.  0.
          5    1    3    3  501    0  0.33393153191E+02 -0.21368669085E+02  0.14444453391E+02  0.42455328668E+02  0.47000000000E+01 0.  1.
         -5    1    3    3    0  501  0.26038103482E+02  0.15584143843E+02  0.29486487868E+03  0.29645949985E+03  0.47000000000E+01 0.  1.
          5    1    4    4  502    0 -0.39561636595E+01  0.33933035868E+02 -0.12332874412E+02  0.36623652813E+02  0.47000000000E+01 0.  1.
         -5    1    4    4    0  502 -0.55475093014E+02 -0.28148510625E+02  0.13375327636E+03  0.14758676612E+03  0.47000000000E+01 0.  1.
<mgrwt>
<rscale>  0 0.29687021E+03</rscale>
<asrwt>0</asrwt>
<pdfrwt beam="1">  1       21 0.73373457E-01 0.29687021E+03</pdfrwt>
<pdfrwt beam="2">  1       21 0.71073475E-02 0.29687021E+03</pdfrwt>
<totfact> 0.23922231E+05</totfact>
</mgrwt>
</event>
<event>
 8    1  0.9175398E-006  0.2996348E+03  0.7546771E-02  0.1085423E+00
         21   -1    0    0  504  503  0.00000000000E+00  0.00000000000E+00  0.56283766281E+02  0.56283766281E+02  0.00000000000E+00 0. -1.
         21   -1    0    0  503  504 -0.00000000000E+00 -0.00000000000E+00 -0.39878745211E+03  0.39878745211E+03  0.00000000000E+00 0. -1.
         25    2    1    2    0    0  0.58085308670E+02 -0.49344034125E+02 -0.21950717640E+03  0.26386172298E+03  0.12502348410E+03 0.  0.
         25    2    1    2    0    0 -0.58085308670E+02  0.49344034125E+02 -0.12299650943E+03  0.19120949542E+03  0.12499677203E+03 0.  0.
          5    1    3    3  501    0 -0.20686643799E+01 -0.77874024952E+01  0.15283921839E+02  0.17905621372E+02  0.47000000000E+01 0.  1.
         -5    1    3    3    0  501  0.60153973050E+02 -0.41556631630E+02 -0.23479109823E+03  0.24595610160E+03  0.47000000000E+01 0.  1.
          5    1    4    4  502    0 -0.71900993523E+02  0.78023742684E+02 -0.63973588992E+02  0.12398454493E+03  0.47000000000E+01 0. -1.
         -5    1    4    4    0  502  0.13815684853E+02 -0.28679708558E+02 -0.59022920441E+02  0.67224950490E+02  0.47000000000E+01 0. -1.
<mgrwt>
<rscale>  0 0.29963484E+03</rscale>
<asrwt>0</asrwt>
<pdfrwt beam="1">  1       21 0.86590414E-02 0.29963484E+03</pdfrwt>
<pdfrwt beam="2">  1       21 0.61351913E-01 0.29963484E+03</pdfrwt>
<totfact> 0.25117520E+05</totfact>
</mgrwt>
</event>
<event>
 8    1  0.9175398E-006  0.2860928E+03  0.7546771E-02  0.1092407E+00
         21   -1    0    0  504  503  0.00000000000E+00  0.00000000000E+00  0.51485206110E+03  0.51485206110E+03  0.00000000000E+00 0.  1.
         21   -1    0    0  503  504 -0.00000000000E+00 -0.00000000000E+00 -0.39743983308E+02  0.39743983308E+02  0.00000000000E+00 0.  1.
         25    2    1    2    0    0 -0.25844774618E+02  0.64508382680E+02  0.24259873287E+03  0.28162165693E+03  0.12500931427E+03 0.  0.
         25    2    1    2    0    0  0.25844774618E+02 -0.64508382680E+02  0.23250934493E+03  0.27297438748E+03  0.12500054771E+03 0.  0.
          5    1    3    3  501    0  0.12710141209E+02 -0.26299554800E+02  0.14269677579E+02  0.32847038990E+02  0.47000000000E+01 0.  1.
         -5    1    3    3    0  501 -0.38554915827E+02  0.90807937480E+02  0.22832905529E+03  0.24877461794E+03  0.47000000000E+01 0.  1.
          5    1    4    4  502    0 -0.39497935179E+02  0.93895182596E+01  0.97345167057E+02  0.10557661429E+03  0.47000000000E+01 0. -1.
         -5    1    4    4    0  502  0.65342709797E+02 -0.73897900940E+02  0.13516417787E+03  0.16739777318E+03  0.47000000000E+01 0. -1.
<mgrwt>
<rscale>  0 0.28609279E+03</rscale>
<asrwt>0</asrwt>
<pdfrwt beam="1">  1       21 0.79208005E-01 0.28609279E+03</pdfrwt>
<pdfrwt beam="2">  1       21 0.61144593E-02 0.28609279E+03</pdfrwt>
<totfact> 0.26189347E+05</totfact>
</mgrwt>
</event>
<event>
 8    1  0.9175398E-006  0.4111732E+03  0.7546771E-02  0.1039978E+00
         21   -1    0    0  504  503  0.00000000000E+00  0.00000000000E+00  0.34731215625E+03  0.34731215625E+03  0.00000000000E+00 0. -1.
         21   -1    0    0  503  504 -0.00000000000E+00 -0.00000000000E+00 -0.12169413547E+03  0.12169413547E+03  0.00000000000E+00 0. -1.
         25    2    1    2    0    0  0.83279150631E+02 -0.13428979867E+03  0.15945072939E+03  0.25693817069E+03  0.12499408585E+03 0.  0.
         25    2    1    2    0    0 -0.83279150631E+02  0.13428979867E+03  0.66167291386E+02  0.21206812103E+03  0.12500244218E+03 0.  0.
          5    1    3    3  501    0 -0.12631027466E+02  0.63791428121E+01 -0.89768765966E+01  0.17404327947E+02  0.47000000000E+01 0.  1.
         -5    1    3    3    0  501  0.95910178097E+02 -0.14066894149E+03  0.16842760598E+03  0.23953384274E+03  0.47000000000E+01 0.  1.
          5    1    4    4  502    0 -0.19107399283E+01  0.17720735222E+01 -0.29132385040E+02  0.29623926643E+02  0.47000000000E+01 0.  1.
         -5    1    4    4    0  502 -0.81368410703E+02  0.13251772515E+03  0.95299676426E+02  0.18244419439E+03  0.47000000000E+01 0.  1.
<mgrwt>
<rscale>  0 0.41117321E+03</rscale>
<asrwt>0</asrwt>
<pdfrwt beam="1">  1       21 0.53432639E-01 0.41117321E+03</pdfrwt>
<pdfrwt beam="2">  1       21 0.18722175E-01 0.41117321E+03</pdfrwt>
<totfact> 0.81034993E+04</totfact>
</mgrwt>
</event>
<event>
 8    1  0.9175398E-006  0.3174472E+03  0.7546771E-02  0.1076830E+00
         21   -1    0    0  504  503  0.00000000000E+00  0.00000000000E+00  0.14574837481E+03  0.14574837481E+03  0.00000000000E+00 0.  1.
         21   -1    0    0  503  504 -0.00000000000E+00 -0.00000000000E+00 -0.17285394801E+03  0.17285394801E+03  0.00000000000E+00 0.  1.
         25    2    1    2    0    0 -0.29628758220E+02  0.86204680403E+02  0.22042656168E+02  0.15626852743E+03  0.12499945495E+03 0.  0.
         25    2    1    2    0    0  0.29628758220E+02 -0.86204680403E+02 -0.49148229366E+02  0.16233379540E+03  0.12501040933E+03 0.  0.
          5    1    3    3  501    0  0.42457751754E+02  0.67741881720E+02  0.13568149886E+02  0.81226891571E+02  0.47000000000E+01 0.  1.
         -5    1    3    3    0  501 -0.72086509974E+02  0.18462798684E+02  0.84745062820E+01  0.75041635858E+02  0.47000000000E+01 0.  1.
          5    1    4    4  502    0  0.21772856172E+02  0.15390981162E+02  0.24503321799E+02  0.36516329857E+02  0.47000000000E+01 0.  1.
         -5    1    4    4    0  502  0.78559020475E+01 -0.10159566157E+03 -0.73651551165E+02  0.12581746554E+03  0.47000000000E+01 0.  1.
<mgrwt>
<rscale>  0 0.31744721E+03</rscale>
<asrwt>0</asrwt>
<pdfrwt beam="1">  1       21 0.22422827E-01 0.31744721E+03</pdfrwt>
<pdfrwt beam="2">  1       21 0.26592915E-01 0.31744721E+03</pdfrwt>
<totfact> 0.24312227E+05</totfact>
</mgrwt>
</event>
<event>
 8    1  0.9175398E-006  0.2831856E+03  0.7546771E-02  0.1093962E+00
         21   -1    0    0  504  503  0.00000000000E+00  0.00000000000E+00  0.44637399619E+03  0.44637399619E+03  0.00000000000E+00 0.  1.
         21   -1    0    0  503  504 -0.00000000000E+00 -0.00000000000E+00 -0.44914180103E+02  0.44914180103E+02  0.00000000000E+00 0.  1.
         25    2    1    2    0    0  0.31010048374E+02 -0.35566353563E+02  0.28205860780E+03  0.31210190891E+03  0.12499581874E+03 0.  0.
         25    2    1    2    0    0 -0.31010048374E+02  0.35566353563E+02  0.11940120829E+03  0.17918626739E+03  0.12499792508E+03 0.  0.
          5    1    3    3  501    0  0.41977621501E+02 -0.24332970174E+02  0.25488204345E+02  0.55008660274E+02  0.47000000000E+01 0. -1.
         -5    1    3    3    0  501 -0.10967573127E+02 -0.11233383389E+02  0.25657040346E+03  0.25709324863E+03  0.47000000000E+01 0. -1.
          5    1    4    4  502    0 -0.52739452143E+02  0.37663440944E+02  0.13642361430E+03  0.15110750192E+03  0.47000000000E+01 0.  1.
         -5    1    4    4    0  502  0.21729403769E+02 -0.20970873807E+01 -0.17022406018E+02  0.28078765469E+02  0.47000000000E+01 0.  1.
<mgrwt>
<rscale>  0 0.28318561E+03</rscale>
<asrwt>0</asrwt>
<pdfrwt beam="1">  1       21 0.68672919E-01 0.28318561E+03</pdfrwt>
<pdfrwt beam="2">  1       21 0.69098742E-02 0.28318561E+03</pdfrwt>
<totfact> 0.29219350E+05</totfact>
</mgrwt>
</event>
<event>
 8    1  0.9175398E-006  0.3234896E+03  0.7546771E-02  0.1074054E+00
         21   -1    0    0  504  503  0.00000000000E+00  0.00000000000E+00  0.21210074797E+03  0.21210074797E+03  0.00000000000E+00 0.  1.
         21   -1    0    0  503  504 -0.00000000000E+00 -0.00000000000E+00 -0.12334409040E+03  0.12334409040E+03  0.00000000000E+00 0.  1.
         25    2    1    2    0    0 -0.68174088028E+02 -0.97094552078E+01 -0.34583193680E+02  0.14684029850E+03  0.12499638467E+03 0.  0.
         25    2    1    2    0    0  0.68174088028E+02  0.97094552078E+01  0.12333985126E+03  0.18860453987E+03  0.12496789088E+03 0.  0.
          5    1    3    3  501    0 -0.89450374617E+02  0.29791447090E+02 -0.37638349641E+02  0.10162497332E+03  0.47000000000E+01 0. -1.
         -5    1    3    3    0  501  0.21276286590E+02 -0.39500902298E+02  0.30551559608E+01  0.45215325182E+02  0.47000000000E+01 0. -1.
          5    1    4    4  502    0  0.45989290393E+02 -0.54975095427E+02  0.46165007228E+02  0.85384857208E+02  0.47000000000E+01 0.  1.
         -5    1    4    4    0  502  0.22184797635E+02  0.64684550635E+02  0.77174844032E+02  0.10321968266E+03  0.47000000000E+01 0.  1.
<mgrwt>
<rscale>  0 0.32348956E+03</rscale>
<asrwt>0</asrwt>
<pdfrwt beam="1">  1       21 0.32630884E-01 0.32348956E+03</pdfrwt>
<pdfrwt beam="2">  1       21 0.18976014E-01 0.32348956E+03</pdfrwt>
<totfact> 0.22273673E+05</totfact>
</mgrwt>
</event>
<event>
 8    1  0.9175398E-006  0.2586698E+03  0.7546771E-02  0.1107945E+00
         21   -1    0    0  504  503  0.00000000000E+00  0.00000000000E+00  0.25043827294E+02  0.25043827294E+02  0.00000000000E+00 0.  1.
         21   -1    0    0  503  504 -0.00000000000E+00 -0.00000000000E+00 -0.66792987814E+03  0.66792987814E+03  0.00000000000E+00 0.  1.
         25    2    1    2    0    0 -0.25143165973E+02 -0.18636288085E+02 -0.35156265969E+03  0.37443513659E+03  0.12500351113E+03 0.  0.
         25    2    1    2    0    0  0.25143165973E+02  0.18636288085E+02 -0.29132339116E+03  0.31853856884E+03  0.12497204319E+03 0.  0.
          5    1    3    3  501    0 -0.32295814212E+02 -0.60536395715E+02 -0.29831741839E+03  0.30614220051E+03  0.47000000000E+01 0. -1.
         -5    1    3    3    0  501  0.71526482389E+01  0.41900107631E+02 -0.53245241298E+02  0.68292936071E+02  0.47000000000E+01 0. -1.
          5    1    4    4  502    0 -0.32132269392E+02 -0.31884996092E+02 -0.62885791966E+02  0.77626339237E+02  0.47000000000E+01 0.  1.
         -5    1    4    4    0  502  0.57275435365E+02  0.50521284177E+02 -0.22843759919E+03  0.24091222961E+03  0.47000000000E+01 0.  1.
<mgrwt>
<rscale>  0 0.25866983E+03</rscale>
<asrwt>0</asrwt>
<pdfrwt beam="1">  1       21 0.38528960E-02 0.25866983E+03</pdfrwt>
<pdfrwt beam="2">  1       21 0.10275846E+00 0.25866983E+03</pdfrwt>
<totfact> 0.31511741E+05</totfact>
</mgrwt>
</event>
<event>
 8    1  0.9175398E-006  0.2684355E+03  0.7546771E-02  0.1102178E+00
         21   -1    0    0  504  503  0.00000000000E+00  0.00000000000E+00  0.14829528848E+02  0.14829528848E+02  0.00000000000E+00 0. -1.
         21   -1    0    0  503  504 -0.00000000000E+00 -0.00000000000E+00 -0.12147661703E+04  0.12147661703E+04  0.00000000000E+00 0. -1.
         25    2    1    2    0    0 -0.40414789664E+01 -0.47665690797E+02 -0.55345845489E+03  0.56941115898E+03  0.12499782018E+03 0.  0.
         25    2    1    2    0    0  0.40414789664E+01  0.47665690797E+02 -0.64647818652E+03  0.66018454013E+03  0.12498491807E+03 0.  0.
          5    1    3    3  501    0 -0.63574818090E+02 -0.28584436963E+02 -0.33067239479E+03  0.33797211454E+03  0.47000000000E+01 0. -1.
         -5    1    3    3    0  501  0.59533339124E+02 -0.19081253834E+02 -0.22278606010E+03  0.23143904444E+03  0.47000000000E+01 0. -1.
          5    1    4    4  502    0  0.14298105483E+02  0.90089469086E+01 -0.59290419181E+03  0.59316360948E+03  0.47000000000E+01 0. -1.
         -5    1    4    4    0  502 -0.10256626517E+02  0.38656743888E+02 -0.53573994710E+02  0.67020930647E+02  0.47000000000E+01 0. -1.
<mgrwt>
<rscale>  0 0.26843554E+03</rscale>
<asrwt>0</asrwt>
<pdfrwt beam="1">  1       21 0.22814653E-02 0.26843554E+03</pdfrwt>
<pdfrwt beam="2">  1       21 0.18688716E+00 0.26843554E+03</pdfrwt>
<totfact> 0.15697481E+05</totfact>
</mgrwt>
</event>
<event>
 8    1  0.9175398E-006  0.5843484E+03  0.7546771E-02  0.9938421E-01
         21   -1    0    0  504  503  0.00000000000E+00  0.00000000000E+00  0.80985914348E+03  0.80985914348E+03  0.00000000000E+00 0.  1.
         21   -1    0    0  503  504 -0.00000000000E+00 -0.00000000000E+00 -0.10540816735E+03  0.10540816735E+03  0.00000000000E+00 0.  1.
         25    2    1    2    0    0 -0.44261692526E+02  0.10838294988E+03  0.72299080477E+03  0.74299865389E+03  0.12500133862E+03 0.  0.
         25    2    1    2    0    0  0.44261692526E+02 -0.10838294988E+03 -0.18539828634E+02  0.17226865695E+03  0.12500721447E+03 0.  0.
          5    1    3    3  501    0 -0.62224262118E+02  0.23458504280E+02  0.15995069667E+03  0.17328726319E+03  0.47000000000E+01 0.  1.
         -5    1    3    3    0  501  0.17962569592E+02  0.84924445603E+02  0.56304010810E+03  0.56971139070E+03  0.47000000000E+01 0.  1.
          5    1    4    4  502    0  0.85021672425E+02 -0.72610839980E+02 -0.31613227948E+02  0.11628630636E+03  0.47000000000E+01 0. -1.
         -5    1    4    4    0  502 -0.40759979899E+02 -0.35772109902E+02  0.13073399314E+02  0.55982350592E+02  0.47000000000E+01 0. -1.
<mgrwt>
<rscale>  0 0.58434842E+03</rscale>
<asrwt>0</asrwt>
<pdfrwt beam="1">  1       21 0.12459371E+00 0.58434842E+03</pdfrwt>
<pdfrwt beam="2">  1       21 0.16216642E-01 0.58434842E+03</pdfrwt>
<totfact> 0.14119484E+04</totfact>
</mgrwt>
</event>
<event>
 8    1  0.9175398E-006  0.6546061E+03  0.7546771E-02  0.9798174E-01
         21   -1    0    0  504  503  0.00000000000E+00  0.00000000000E+00  0.10888044418E+04  0.10888044418E+04  0.00000000000E+00 0.  1.
         21   -1    0    0  503  504 -0.00000000000E+00 -0.00000000000E+00 -0.98389834223E+02  0.98389834223E+02  0.00000000000E+00 0.  1.
         25    2    1    2    0    0 -0.28040178371E+03 -0.11294061158E+03  0.47651546187E+03  0.57800197292E+03  0.12505420123E+03 0.  0.
         25    2    1    2    0    0  0.28040178371E+03  0.11294061158E+03  0.51389914572E+03  0.60919230312E+03  0.12506873369E+03 0.  0.
          5    1    3    3  501    0 -0.21849780656E+03 -0.13881354575E+03  0.35936356814E+03  0.44291619531E+03  0.47000000000E+01 0. -1.
         -5    1    3    3    0  501 -0.61903977150E+02  0.25872934170E+02  0.11715189372E+03  0.13508577761E+03  0.47000000000E+01 0. -1.
          5    1    4    4  502    0  0.66372094881E+02  0.82944941109E+02  0.12377229329E+03  0.16317717004E+03  0.47000000000E+01 0. -1.
         -5    1    4    4    0  502  0.21402968883E+03  0.29995670475E+02  0.39012685243E+03  0.44601513308E+03  0.47000000000E+01 0. -1.
<mgrwt>
<rscale>  0 0.65460611E+03</rscale>
<asrwt>0</asrwt>
<pdfrwt beam="1">  1       21 0.16750837E+00 0.65460611E+03</pdfrwt>
<pdfrwt beam="2">  1       21 0.15136898E-01 0.65460611E+03</pdfrwt>
<totfact> 0.70746570E+03</totfact>
</mgrwt>
</event>
<event>
 8    1  0.9175398E-006  0.3594264E+03  0.7546771E-02  0.1058811E+00
         21   -1    0    0  504  503  0.00000000000E+00  0.00000000000E+00  0.81721845946E+03  0.81721845946E+03  0.00000000000E+00 0.  1.
         21   -1    0    0  503  504 -0.00000000000E+00 -0.00000000000E+00 -0.39520432500E+02  0.39520432500E+02  0.00000000000E+00 0.  1.
         25    2    1    2    0    0 -0.97665266342E+02  0.84353931178E+02  0.37762212764E+03  0.41817367684E+03  0.12496664660E+03 0.  0.
         25    2    1    2    0    0  0.97665266342E+02 -0.84353931178E+02  0.40007589931E+03  0.43856521512E+03  0.12499853096E+03 0.  0.
          5    1    3    3  501    0  0.11729502831E+01  0.68773685146E+02  0.88463661343E+02  0.11215660907E+03  0.47000000000E+01 0. -1.
         -5    1    3    3    0  501 -0.98838216625E+02  0.15580246032E+02  0.28915846630E+03  0.30601706777E+03  0.47000000000E+01 0. -1.
          5    1    4    4  502    0  0.95880491544E+01  0.31305863902E+02  0.94879764817E+02  0.10048008545E+03  0.47000000000E+01 0. -1.
         -5    1    4    4    0  502  0.88077217187E+02 -0.11565979508E+03  0.30519613450E+03  0.33808512966E+03  0.47000000000E+01 0. -1.
<mgrwt>
<rscale>  0 0.35942636E+03</rscale>
<asrwt>0</asrwt>
<pdfrwt beam="1">  1       21 0.12572590E+00 0.35942636E+03</pdfrwt>
<pdfrwt beam="2">  1       21 0.60800672E-02 0.35942636E+03</pdfrwt>
<totfact> 0.85355269E+04</totfact>
</mgrwt>
</event>
<event>
 8    1  0.9175398E-006  0.3193442E+03  0.7546771E-02  0.1075952E+00
         21   -1    0    0  504  503  0.00000000000E+00  0.00000000000E+00  0.76708251351E+02  0.76708251351E+02  0.00000000000E+00 0.  1.
         21   -1    0    0  503  504 -0.00000000000E+00 -0.00000000000E+00 -0.33236550980E+03  0.33236550980E+03  0.00000000000E+00 0.  1.
         25    2    1    2    0    0  0.28152357548E+01  0.41939831070E+02 -0.12523743458E+02  0.13247580272E+03  0.12500447662E+03 0.  0.
         25    2    1    2    0    0 -0.28152357548E+01 -0.41939831070E+02 -0.24313351499E+03  0.27659795843E+03  0.12500259802E+03 0.  0.
          5    1    3    3  501    0  0.43718633751E+02  0.29676436354E+02 -0.51889924144E+02  0.74206900214E+02  0.47000000000E+01 0. -1.
         -5    1    3    3    0  501 -0.40903397996E+02  0.12263394716E+02  0.39366180686E+02  0.58268902507E+02  0.47000000000E+01 0. -1.
          5    1    4    4  502    0 -0.24304118331E+02 -0.13667199649E+02 -0.23885337812E+03  0.24052132702E+03  0.47000000000E+01 0.  1.
         -5    1    4    4    0  502  0.21488882577E+02 -0.28272631421E+02 -0.42801368696E+01  0.36076631404E+02  0.47000000000E+01 0.  1.
<mgrwt>
<rscale>  0 0.31934418E+03</rscale>
<asrwt>0</asrwt>
<pdfrwt beam="1">  1       21 0.11801269E-01 0.31934418E+03</pdfrwt>
<pdfrwt beam="2">  1       21 0.51133155E-01 0.31934418E+03</pdfrwt>
<totfact> 0.21274580E+05</totfact>
</mgrwt>
</event>
<event>
 8    1  0.9175398E-006  0.3358551E+03  0.7546771E-02  0.1068575E+00
         21   -1    0    0  504  503  0.00000000000E+00  0.00000000000E+00  0.47087496516E+03  0.47087496516E+03  0.00000000000E+00 0. -1.
         21   -1    0    0  503  504 -0.00000000000E+00 -0.00000000000E+00 -0.59887783999E+02  0.59887783999E+02  0.00000000000E+00 0. -1.
         25    2    1    2    0    0  0.16980206765E+02  0.77519529322E+02  0.33078245205E+03  0.36240825387E+03  0.12500042815E+03 0.  0.
         25    2    1    2    0    0 -0.16980206765E+02 -0.77519529322E+02  0.80204729113E+02  0.16835449529E+03  0.12495132118E+03 0.  0.
          5    1    3    3  501    0  0.77778878742E+01  0.94324217593E+02  0.13114344916E+03  0.16179693391E+03  0.47000000000E+01 0. -1.
         -5    1    3    3    0  501  0.92023188913E+01 -0.16804688272E+02  0.19963900289E+03  0.20061131996E+03  0.47000000000E+01 0. -1.
          5    1    4    4  502    0 -0.15345337789E+02  0.16743911431E+02 -0.20047047990E+02  0.30656354887E+02  0.47000000000E+01 0. -1.
         -5    1    4    4    0  502 -0.16348689764E+01 -0.94263440753E+02  0.10025177710E+03  0.13769814041E+03  0.47000000000E+01 0. -1.
<mgrwt>
<rscale>  0 0.33585508E+03</rscale>
<asrwt>0</asrwt>
<pdfrwt beam="1">  1       21 0.72442300E-01 0.33585508E+03</pdfrwt>
<pdfrwt beam="2">  1       21 0.92135056E-02 0.33585508E+03</pdfrwt>
<totfact> 0.15450732E+05</totfact>
</mgrwt>
</event>
<event>
 8    1  0.9175398E-006  0.2919007E+03  0.7546771E-02  0.1089361E+00
         21   -1    0    0  504  503  0.00000000000E+00  0.00000000000E+00  0.80536565847E+02  0.80536565847E+02  0.00000000000E+00 0.  1.
         21   -1    0    0  503  504 -0.00000000000E+00 -0.00000000000E+00 -0.26449486805E+03  0.26449486805E+03  0.00000000000E+00 0.  1.
         25    2    1    2    0    0 -0.23189165575E+02 -0.14150916953E+02 -0.17506314662E+03  0.21681816235E+03  0.12500009748E+03 0.  0.
         25    2    1    2    0    0  0.23189165575E+02  0.14150916953E+02 -0.88951555873E+01  0.12821327155E+03  0.12498613266E+03 0.  0.
          5    1    3    3  501    0 -0.37576980291E+02  0.47616682680E+02 -0.60577048971E+02  0.85854800560E+02  0.47000000000E+01 0. -1.
         -5    1    3    3    0  501  0.14387814716E+02 -0.61767599633E+02 -0.11448609764E+03  0.13096336179E+03  0.47000000000E+01 0. -1.
          5    1    4    4  502    0  0.69289576116E+02  0.25685692344E+02  0.13832075388E+02  0.75327395143E+02  0.47000000000E+01 0. -1.
         -5    1    4    4    0  502 -0.46100410541E+02 -0.11534775390E+02 -0.22727230975E+02  0.52885876406E+02  0.47000000000E+01 0. -1.
<mgrwt>
<rscale>  0 0.29190073E+03</rscale>
<asrwt>0</asrwt>
<pdfrwt beam="1">  1       21 0.12390241E-01 0.29190073E+03</pdfrwt>
<pdfrwt beam="2">  1       21 0.40691517E-01 0.29190073E+03</pdfrwt>
<totfact> 0.31510879E+05</totfact>
</mgrwt>
</event>
<event>
 8    1  0.9175398E-006  0.4713137E+03  0.7546771E-02  0.1021550E+00
         21   -1    0    0  504  503  0.00000000000E+00  0.00000000000E+00  0.10950839128E+04  0.10950839128E+04  0.00000000000E+00 0.  1.
         21   -1    0    0  503  504 -0.00000000000E+00 -0.00000000000E+00 -0.50712241967E+02  0.50712241967E+02  0.00000000000E+00 0.  1.
         25    2    1    2    0    0  0.37071288454E+02  0.19161037983E+03  0.41848744188E+03  0.47837751185E+03  0.12499794698E+03 0.  0.
         25    2    1    2    0    0 -0.37071288454E+02 -0.19161037983E+03  0.62588422893E+03  0.66741864289E+03  0.12501103460E+03 0.  0.
          5    1    3    3  501    0 -0.15486307679E+02  0.17574771334E+03  0.31095820589E+03  0.35755304541E+03  0.47000000000E+01 0. -1.
         -5    1    3    3    0  501  0.52557596133E+02  0.15862666490E+02  0.10752923599E+03  0.12082446644E+03  0.47000000000E+01 0. -1.
          5    1    4    4  502    0 -0.82638146266E+02 -0.11102001045E+03  0.39790761479E+03  0.42131587419E+03  0.47000000000E+01 0. -1.
         -5    1    4    4    0  502  0.45566857813E+02 -0.80590369377E+02  0.22797661415E+03  0.24610276870E+03  0.47000000000E+01 0. -1.
<mgrwt>
<rscale>  0 0.47131374E+03</rscale>
<asrwt>0</asrwt>
<pdfrwt beam="1">  1       21 0.16847443E+00 0.47131374E+03</pdfrwt>
<pdfrwt beam="2">  1       21 0.78018842E-02 0.47131374E+03</pdfrwt>
<totfact> 0.24334561E+04</totfact>
</mgrwt>
</event>
<event>
 8    1  0.9175398E-006  0.5060953E+03  0.7546771E-02  0.1012200E+00
         21   -1    0    0  504  503  0.00000000000E+00  0.00000000000E+00  0.15083537846E+03  0.15083537846E+03  0.00000000000E+00 0. -1.
         21   -1    0    0  503  504 -0.00000000000E+00 -0.00000000000E+00 -0.42452321070E+03  0.42452321070E+03  0.00000000000E+00 0. -1.
         25    2    1    2    0    0  0.14264113929E+03  0.60106917233E+02  0.40900625945E+02  0.20313053476E+03  0.12501926585E+03 0.  0.
         25    2    1    2    0    0 -0.14264113929E+03 -0.60106917233E+02 -0.31458845819E+03  0.37222805440E+03  0.12501396059E+03 0.  0.
          5    1    3    3  501    0  0.14296773064E+03  0.31267521973E+02 -0.74761120063E+01  0.14661313783E+03  0.47000000000E+01 0. -1.
         -5    1    3    3    0  501 -0.32659135295E+00  0.28839395260E+02  0.48376737951E+02  0.56517396929E+02  0.47000000000E+01 0. -1.
          5    1    4    4  502    0 -0.41974255201E+02  0.31262004263E+02 -0.40865881676E+02  0.66567719620E+02  0.47000000000E+01 0.  1.
         -5    1    4    4    0  502 -0.10066688409E+03 -0.91368921495E+02 -0.27372257651E+03  0.30566033478E+03  0.47000000000E+01 0.  1.
<mgrwt>
<rscale>  0 0.50609532E+03</rscale>
<asrwt>0</asrwt>
<pdfrwt beam="1">  1       21 0.23205443E-01 0.50609532E+03</pdfrwt>
<pdfrwt beam="2">  1       21 0.65311262E-01 0.50609532E+03</pdfrwt>
<totfact> 0.33967076E+04</totfact>
</mgrwt>
</event>
<event>
 8    1  0.9175398E-006  0.3893365E+03  0.7546771E-02  0.1047536E+00
         21   -1    0    0  504  503  0.00000000000E+00  0.00000000000E+00  0.92292661818E+02  0.92292661818E+02  0.00000000000E+00 0.  1.
         21   -1    0    0  503  504 -0.00000000000E+00 -0.00000000000E+00 -0.41060382463E+03  0.41060382463E+03  0.00000000000E+00 0.  1.
         25    2    1    2    0    0  0.30756935480E+02 -0.73572229656E+02  0.37806150980E+01  0.14831669607E+03  0.12499874890E+03 0.  0.
         25    2    1    2    0    0 -0.30756935480E+02  0.73572229656E+02 -0.32209177791E+03  0.35457979037E+03  0.12499940915E+03 0.  0.
          5    1    3    3  501    0  0.28010939713E+02 -0.73617667539E+02 -0.50552635967E+02  0.93711433245E+02  0.47000000000E+01 0.  1.
         -5    1    3    3    0  501  0.27459957667E+01  0.45437883787E-01  0.54333251065E+02  0.54605262829E+02  0.47000000000E+01 0.  1.
          5    1    4    4  502    0  0.13664935183E+02  0.44777493494E+02 -0.28714212987E+03  0.29097155724E+03  0.47000000000E+01 0.  1.
         -5    1    4    4    0  502 -0.44421870663E+02  0.28794736161E+02 -0.34949648035E+02  0.63608233127E+02  0.47000000000E+01 0.  1.
<mgrwt>
<rscale>  0 0.38933646E+03</rscale>
<asrwt>0</asrwt>
<pdfrwt beam="1">  1       21 0.14198871E-01 0.38933646E+03</pdfrwt>
<pdfrwt beam="2">  1       21 0.63169820E-01 0.38933646E+03</pdfrwt>
<totfact> 0.94736582E+04</totfact>
</mgrwt>
</event>
<event>
 8    1  0.9175398E-006  0.2977034E+03  0.7546771E-02  0.1086394E+00
         21   -1    0    0  504  503  0.00000000000E+00  0.00000000000E+00  0.16105889571E+03  0.16105889571E+03  0.00000000000E+00 0.  1.
         21   -1    0    0  503  504 -0.00000000000E+00 -0.00000000000E+00 -0.13756970925E+03  0.13756970925E+03  0.00000000000E+00 0.  1.
         25    2    1    2    0    0 -0.46046573615E+01  0.80107576040E+02  0.21243776558E+02  0.15007026604E+03  0.12502543780E+03 0.  0.
         25    2    1    2    0    0  0.46046573615E+01 -0.80107576040E+02  0.22454099017E+01  0.14855833891E+03  0.12500444627E+03 0.  0.
          5    1    3    3  501    0 -0.33846778807E+02  0.48936726430E+02  0.65328336901E+02  0.88488921519E+02  0.47000000000E+01 0. -1.
         -5    1    3    3    0  501  0.29242121445E+02  0.31170849610E+02 -0.44084560343E+02  0.61581344518E+02  0.47000000000E+01 0. -1.
          5    1    4    4  502    0 -0.57548025249E+02 -0.46451229750E+02 -0.15102786485E+02  0.75628540346E+02  0.47000000000E+01 0. -1.
         -5    1    4    4    0  502  0.62152682610E+02 -0.33656346291E+02  0.17348196387E+02  0.72929798568E+02  0.47000000000E+01 0. -1.
<mgrwt>
<rscale>  0 0.29770338E+03</rscale>
<asrwt>0</asrwt>
<pdfrwt beam="1">  1       21 0.24778292E-01 0.29770338E+03</pdfrwt>
<pdfrwt beam="2">  1       21 0.21164571E-01 0.29770338E+03</pdfrwt>
<totfact> 0.31234511E+05</totfact>
</mgrwt>
</event>
<event>
 8    1  0.9175398E-006  0.2708398E+03  0.7546771E-02  0.1100800E+00
         21   -1    0    0  504  503  0.00000000000E+00  0.00000000000E+00  0.80242801016E+02  0.80242801016E+02  0.00000000000E+00 0. -1.
         21   -1    0    0  503  504 -0.00000000000E+00 -0.00000000000E+00 -0.22853821355E+03  0.22853821355E+03  0.00000000000E+00 0. -1.
         25    2    1    2    0    0  0.29924703256E+02  0.38792356388E+02 -0.53982901123E+02  0.14470797652E+03  0.12500364025E+03 0.  0.
         25    2    1    2    0    0 -0.29924703256E+02 -0.38792356388E+02 -0.94312511411E+02  0.16407303805E+03  0.12499910891E+03 0.  0.
          5    1    3    3  501    0 -0.61376601459E+01 -0.34470591331E+01  0.37029186612E+02  0.37984256606E+02  0.47000000000E+01 0.  1.
         -5    1    3    3    0  501  0.36062363402E+02  0.42239415521E+02 -0.91012087736E+02  0.10672371991E+03  0.47000000000E+01 0.  1.
          5    1    4    4  502    0  0.32214589302E+02  0.25150191366E+02 -0.12560823687E+02  0.43013674353E+02  0.47000000000E+01 0.  1.
         -5    1    4    4    0  502 -0.62139292558E+02 -0.63942547754E+02 -0.81751687724E+02  0.12105936370E+03  0.47000000000E+01 0.  1.
<mgrwt>
<rscale>  0 0.27083978E+03</rscale>
<asrwt>0</asrwt>
<pdfrwt beam="1">  1       21 0.12345047E-01 0.27083978E+03</pdfrwt>
<pdfrwt beam="2">  1       21 0.35159724E-01 0.27083978E+03</pdfrwt>
<totfact> 0.42799843E+05</totfact>
</mgrwt>
</event>
<event>
 8    1  0.9175398E-006  0.3559552E+03  0.7546771E-02  0.1060197E+00
         21   -1    0    0  504  503  0.00000000000E+00  0.00000000000E+00  0.50189086038E+03  0.50189086038E+03  0.00000000000E+00 0.  1.
         21   -1    0    0  503  504 -0.00000000000E+00 -0.00000000000E+00 -0.63113378318E+02  0.63113378318E+02  0.00000000000E+00 0.  1.
         25    2    1    2    0    0  0.11480140672E+03 -0.81776716167E+01  0.30345641100E+03  0.34778905531E+03  0.12500078528E+03 0.  0.
         25    2    1    2    0    0 -0.11480140672E+03  0.81776716167E+01  0.13532107106E+03  0.21721518339E+03  0.12499762527E+03 0.  0.
          5    1    3    3  501    0  0.12447816473E+03  0.54211328782E+01  0.15785052696E+03  0.20115437116E+03  0.47000000000E+01 0. -1.
         -5    1    3    3    0  501 -0.96767580090E+01 -0.13598804495E+02  0.14560588404E+03  0.14663468415E+03  0.47000000000E+01 0. -1.
          5    1    4    4  502    0  0.11178756179E+02  0.24887667577E+02 -0.46811687213E+01  0.28077819142E+02  0.47000000000E+01 0.  1.
         -5    1    4    4    0  502 -0.12598016290E+03 -0.16709995961E+02  0.14000223978E+03  0.18913736424E+03  0.47000000000E+01 0.  1.
<mgrwt>
<rscale>  0 0.35595521E+03</rscale>
<asrwt>0</asrwt>
<pdfrwt beam="1">  1       21 0.77213976E-01 0.35595521E+03</pdfrwt>
<pdfrwt beam="2">  1       21 0.97097508E-02 0.35595521E+03</pdfrwt>
<totfact> 0.12122173E+05</totfact>
</mgrwt>
</event>
<event>
 8    1  0.9175398E-006  0.3673668E+03  0.7546771E-02  0.1055704E+00
         21   -1    0    0  504  503  0.00000000000E+00  0.00000000000E+00  0.40110978470E+02  0.40110978470E+02  0.00000000000E+00 0. -1.
         21   -1    0    0  503  504 -0.00000000000E+00 -0.00000000000E+00 -0.84115610063E+03  0.84115610063E+03  0.00000000000E+00 0. -1.
         25    2    1    2    0    0 -0.72463756593E+02 -0.11176289118E+03 -0.35419313108E+03  0.39852071583E+03  0.12499618787E+03 0.  0.
         25    2    1    2    0    0  0.72463756593E+02  0.11176289118E+03 -0.44685199108E+03  0.48274636327E+03  0.12500163779E+03 0.  0.
          5    1    3    3  501    0 -0.49582342741E+02  0.14032239911E+02 -0.71872587910E+02  0.88561116532E+02  0.47000000000E+01 0. -1.
         -5    1    3    3    0  501 -0.22881413852E+02 -0.12579513109E+03 -0.28232054317E+03  0.30995959930E+03  0.47000000000E+01 0. -1.
          5    1    4    4  502    0  0.60564535057E+02  0.12452442912E+03 -0.44314530855E+03  0.46429974246E+03  0.47000000000E+01 0. -1.
         -5    1    4    4    0  502  0.11899221536E+02 -0.12761537947E+02 -0.37066825325E+01  0.18446620811E+02  0.47000000000E+01 0. -1.
<mgrwt>
<rscale>  0 0.36736682E+03</rscale>
<asrwt>0</asrwt>
<pdfrwt beam="1">  1       21 0.61709196E-02 0.36736682E+03</pdfrwt>
<pdfrwt beam="2">  1       21 0.12940863E+00 0.36736682E+03</pdfrwt>
<totfact> 0.77077792E+04</totfact>
</mgrwt>
</event>
<event>
 8    1  0.9175398E-006  0.4364688E+03  0.7546771E-02  0.1031836E+00
         21   -1    0    0  504  503  0.00000000000E+00  0.00000000000E+00  0.76092798261E+03  0.76092798261E+03  0.00000000000E+00 0.  1.
         21   -1    0    0  503  504 -0.00000000000E+00 -0.00000000000E+00 -0.62589685342E+02  0.62589685342E+02  0.00000000000E+00 0.  1.
         25    2    1    2    0    0 -0.16810717423E+03  0.43658498708E+02  0.42996696925E+03  0.48027037031E+03  0.12498778904E+03 0.  0.
         25    2    1    2    0    0  0.16810717423E+03 -0.43658498708E+02  0.26837132802E+03  0.34324729764E+03  0.12501780313E+03 0.  0.
          5    1    3    3  501    0 -0.14038034003E+03  0.77823537347E+02  0.26853887137E+03  0.31288713344E+03  0.47000000000E+01 0.  1.
         -5    1    3    3    0  501 -0.27726834199E+02 -0.34165038639E+02  0.16142809788E+03  0.16738323687E+03  0.47000000000E+01 0.  1.
          5    1    4    4  502    0  0.39109972715E+01 -0.49176628183E+02  0.58088121584E+02  0.76354152003E+02  0.47000000000E+01 0.  1.
         -5    1    4    4    0  502  0.16419617696E+03  0.55181294745E+01  0.21028320643E+03  0.26689314564E+03  0.47000000000E+01 0.  1.
<mgrwt>
<rscale>  0 0.43646875E+03</rscale>
<asrwt>0</asrwt>
<pdfrwt beam="1">  1       21 0.11706584E+00 0.43646875E+03</pdfrwt>
<pdfrwt beam="2">  1       21 0.96291829E-02 0.43646875E+03</pdfrwt>
<totfact> 0.44580396E+04</totfact>
</mgrwt>
</event>
<event>
 8    1  0.9175398E-006  0.3491835E+03  0.7546771E-02  0.1062951E+00
         21   -1    0    0  504  503  0.00000000000E+00  0.00000000000E+00  0.44732352407E+02  0.44732352407E+02  0.00000000000E+00 0. -1.
         21   -1    0    0  503  504 -0.00000000000E+00 -0.00000000000E+00 -0.68143712575E+03  0.68143712575E+03  0.00000000000E+00 0. -1.
         25    2    1    2    0    0 -0.65382389716E+02 -0.30669365434E+02 -0.11411314364E+03  0.18400489147E+03  0.12498209341E+03 0.  0.
         25    2    1    2    0    0  0.65382389716E+02  0.30669365434E+02 -0.52259162971E+03  0.54216458669E+03  0.12499984304E+03 0.  0.
          5    1    3    3  501    0 -0.56943384813E+01  0.44571116589E+02 -0.19833366389E+02  0.49340271048E+02  0.47000000000E+01 0.  1.
         -5    1    3    3    0  501 -0.59688051234E+02 -0.75240482023E+02 -0.94279777250E+02  0.13466462042E+03  0.47000000000E+01 0.  1.
          5    1    4    4  502    0  0.79760999079E+01 -0.33836606159E+02 -0.46316514443E+02  0.58102010260E+02  0.47000000000E+01 0. -1.
         -5    1    4    4    0  502  0.57406289808E+02  0.64505971593E+02 -0.47627511526E+03  0.48406257643E+03  0.47000000000E+01 0. -1.
<mgrwt>
<rscale>  0 0.34918354E+03</rscale>
<asrwt>0</asrwt>
<pdfrwt beam="1">  1       21 0.68819006E-02 0.34918354E+03</pdfrwt>
<pdfrwt beam="2">  1       21 0.10483648E+00 0.34918354E+03</pdfrwt>
<totfact> 0.10849368E+05</totfact>
</mgrwt>
</event>
<event>
 8    1  0.9175398E-006  0.4094492E+03  0.7546771E-02  0.1040556E+00
         21   -1    0    0  504  503  0.00000000000E+00  0.00000000000E+00  0.95569249539E+02  0.95569249539E+02  0.00000000000E+00 0.  1.
         21   -1    0    0  503  504 -0.00000000000E+00 -0.00000000000E+00 -0.43855277939E+03  0.43855277939E+03  0.00000000000E+00 0.  1.
         25    2    1    2    0    0  0.73901633442E+02 -0.81431707968E+02 -0.32691454637E+03  0.36686524863E+03  0.12499766212E+03 0.  0.
         25    2    1    2    0    0 -0.73901633442E+02  0.81431707968E+02 -0.16068983477E+02  0.16725678029E+03  0.12499617529E+03 0.  0.
          5    1    3    3  501    0 -0.12112370310E+02  0.25084793575E+02 -0.40540575340E+02  0.49412393507E+02  0.47000000000E+01 0. -1.
         -5    1    3    3    0  501  0.86014003751E+02 -0.10651650154E+03 -0.28637397103E+03  0.31745285513E+03  0.47000000000E+01 0. -1.
          5    1    4    4  502    0  0.17171453534E+01 -0.29543290418E+02  0.73677057283E+01  0.30856566313E+02  0.47000000000E+01 0. -1.
         -5    1    4    4    0  502 -0.75618778795E+02  0.11097499839E+03 -0.23436689205E+02  0.13640021398E+03  0.47000000000E+01 0. -1.
<mgrwt>
<rscale>  0 0.40944919E+03</rscale>
<asrwt>0</asrwt>
<pdfrwt beam="1">  1       21 0.14702961E-01 0.40944919E+03</pdfrwt>
<pdfrwt beam="2">  1       21 0.67469660E-01 0.40944919E+03</pdfrwt>
<totfact> 0.76420443E+04</totfact>
</mgrwt>
</event>
<event>
 8    1  0.9175398E-006  0.4263268E+03  0.7546771E-02  0.1035027E+00
         21   -1    0    0  504  503  0.00000000000E+00  0.00000000000E+00  0.27568341012E+02  0.27568341012E+02  0.00000000000E+00 0. -1.
         21   -1    0    0  503  504 -0.00000000000E+00 -0.00000000000E+00 -0.16482176835E+04  0.16482176835E+04  0.00000000000E+00 0. -1.
         25    2    1    2    0    0 -0.91508392711E+01  0.12203054499E+03 -0.33154528453E+03  0.37486721330E+03  0.12501184001E+03 0.  0.
         25    2    1    2    0    0  0.91508392711E+01 -0.12203054499E+03 -0.12891040580E+04  0.13009188112E+04  0.12500115740E+03 0.  0.
          5    1    3    3  501    0 -0.26119013337E+02 -0.17620374024E+02 -0.40109859685E+02  0.51220809076E+02  0.47000000000E+01 0.  1.
         -5    1    3    3    0  501  0.16968174066E+02  0.13965091901E+03 -0.29143542484E+03  0.32364640422E+03  0.47000000000E+01 0.  1.
          5    1    4    4  502    0 -0.21320336161E+02 -0.13265254450E+03 -0.84585883979E+03  0.85647563955E+03  0.47000000000E+01 0. -1.
         -5    1    4    4    0  502  0.30471175432E+02  0.10621999507E+02 -0.44324521820E+03  0.44444317169E+03  0.47000000000E+01 0. -1.
<mgrwt>
<rscale>  0 0.42632676E+03</rscale>
<asrwt>0</asrwt>
<pdfrwt beam="1">  1       21 0.42412826E-02 0.42632676E+03</pdfrwt>
<pdfrwt beam="2">  1       21 0.25357199E+00 0.42632676E+03</pdfrwt>
<totfact> 0.19650968E+04</totfact>
</mgrwt>
</event>
<event>
 8    1  0.9175398E-006  0.2671706E+03  0.7546771E-02  0.1102910E+00
         21   -1    0    0  504  503  0.00000000000E+00  0.00000000000E+00  0.34360958702E+03  0.34360958702E+03  0.00000000000E+00 0. -1.
         21   -1    0    0  503  504 -0.00000000000E+00 -0.00000000000E+00 -0.51934020496E+02  0.51934020496E+02  0.00000000000E+00 0. -1.
         25    2    1    2    0    0  0.14882597112E+02 -0.11750756642E+02  0.81966672224E+02  0.15067261370E+03  0.12499651669E+03 0.  0.
         25    2    1    2    0    0 -0.14882597112E+02  0.11750756642E+02  0.20970889430E+03  0.24487099381E+03  0.12499764512E+03 0.  0.
          5    1    3    3  501    0  0.20460211337E+02  0.40849270066E+02  0.85917280114E+02  0.97422544286E+02  0.47000000000E+01 0.  1.
         -5    1    3    3    0  501 -0.55776142247E+01 -0.52600026707E+02 -0.39506078901E+01  0.53250069415E+02  0.47000000000E+01 0.  1.
          5    1    4    4  502    0 -0.56675301675E+02 -0.26364226619E+02  0.14958916331E+03  0.16219176935E+03  0.47000000000E+01 0.  1.
         -5    1    4    4    0  502  0.41792704562E+02  0.38114983261E+02  0.60119730984E+02  0.82679224460E+02  0.47000000000E+01 0.  1.
<mgrwt>
<rscale>  0 0.26717056E+03</rscale>
<asrwt>0</asrwt>
<pdfrwt beam="1">  1       21 0.52863012E-01 0.26717056E+03</pdfrwt>
<pdfrwt beam="2">  1       21 0.79898495E-02 0.26717056E+03</pdfrwt>
<totfact> 0.40116582E+05</totfact>
</mgrwt>
</event>
<event>
 8    1  0.9175398E-006  0.5969871E+03  0.7546771E-02  0.9911677E-01
         21   -1    0    0  504  503  0.00000000000E+00  0.00000000000E+00  0.64663382404E+02  0.64663382404E+02  0.00000000000E+00 0. -1.
         21   -1    0    0  503  504 -0.00000000000E+00 -0.00000000000E+00 -0.13778804917E+04  0.13778804917E+04  0.00000000000E+00 0. -1.
         25    2    1    2    0    0 -0.12094590297E+03  0.31119586204E+02 -0.12379313036E+04  0.12504789450E+04  0.12500935738E+03 0.  0.
         25    2    1    2    0    0  0.12094590297E+03 -0.31119586204E+02 -0.75285805671E+02  0.19206492905E+03  0.12499857737E+03 0.  0.
          5    1    3    3  501    0 -0.13284928725E+03  0.23368910054E+02 -0.73280202530E+03  0.74512813486E+03  0.47000000000E+01 0.  1.
         -5    1    3    3    0  501  0.11903384277E+02  0.77506761501E+01 -0.50512927831E+03  0.50535081017E+03  0.47000000000E+01 0.  1.
          5    1    4    4  502    0  0.92438973406E+02 -0.77837734691E+02 -0.60249862765E+02  0.13511407295E+03  0.47000000000E+01 0.  1.
         -5    1    4    4    0  502  0.28506929569E+02  0.46718148487E+02 -0.15035942906E+02  0.56950856101E+02  0.47000000000E+01 0.  1.
<mgrwt>
<rscale>  0 0.59698715E+03</rscale>
<asrwt>0</asrwt>
<pdfrwt beam="1">  1       21 0.99482132E-02 0.59698715E+03</pdfrwt>
<pdfrwt beam="2">  1       21 0.21198160E+00 0.59698715E+03</pdfrwt>
<totfact> 0.76126620E+03</totfact>
</mgrwt>
</event>
<event>
 8    1  0.9175398E-006  0.3497763E+03  0.7546771E-02  0.1062707E+00
         21   -1    0    0  504  503  0.00000000000E+00  0.00000000000E+00  0.26194523617E+02  0.26194523617E+02  0.00000000000E+00 0. -1.
         21   -1    0    0  503  504 -0.00000000000E+00 -0.00000000000E+00 -0.11676435730E+04  0.11676435730E+04  0.00000000000E+00 0. -1.
         25    2    1    2    0    0 -0.46006808656E+02  0.87733704296E+02 -0.81559173256E+03  0.83104041937E+03  0.12499790038E+03 0.  0.
         25    2    1    2    0    0  0.46006808656E+02 -0.87733704296E+02 -0.32585731680E+03  0.36279767722E+03  0.12500133748E+03 0.  0.
          5    1    3    3  501    0  0.10019213669E+02  0.15136712143E+01 -0.47741992971E+03  0.47755057861E+03  0.47000000000E+01 0. -1.
         -5    1    3    3    0  501 -0.56026022325E+02  0.86220033081E+02 -0.33817180284E+03  0.35348984076E+03  0.47000000000E+01 0. -1.
          5    1    4    4  502    0  0.85914094662E+02 -0.49872836799E+02 -0.24933932366E+03  0.26844127819E+03  0.47000000000E+01 0. -1.
         -5    1    4    4    0  502 -0.39907286006E+02 -0.37860867497E+02 -0.76517993136E+02  0.94356399028E+02  0.47000000000E+01 0. -1.
<mgrwt>
<rscale>  0 0.34977631E+03</rscale>
<asrwt>0</asrwt>
<pdfrwt beam="1">  1       21 0.40299276E-02 0.34977631E+03</pdfrwt>
<pdfrwt beam="2">  1       21 0.17963743E+00 0.34977631E+03</pdfrwt>
<totfact> 0.66037830E+04</totfact>
</mgrwt>
</event>
<event>
 8    1  0.9175398E-006  0.3012778E+03  0.7546771E-02  0.1084604E+00
         21   -1    0    0  504  503  0.00000000000E+00  0.00000000000E+00  0.64146838494E+03  0.64146838494E+03  0.00000000000E+00 0. -1.
         21   -1    0    0  503  504 -0.00000000000E+00 -0.00000000000E+00 -0.35375207946E+02  0.35375207946E+02  0.00000000000E+00 0. -1.
         25    2    1    2    0    0 -0.74094777531E+02 -0.30479357380E+02  0.36022480670E+03  0.38962221352E+03  0.12499812250E+03 0.  0.
         25    2    1    2    0    0  0.74094777531E+02  0.30479357380E+02  0.24586837030E+03  0.28722137936E+03  0.12500335182E+03 0.  0.
          5    1    3    3  501    0  0.14933763339E+02  0.10110256618E+01  0.21964215549E+03  0.22020173916E+03  0.47000000000E+01 0. -1.
         -5    1    3    3    0  501 -0.89028540870E+02 -0.31490383042E+02  0.14058265120E+03  0.16942047436E+03  0.47000000000E+01 0. -1.
          5    1    4    4  502    0  0.53158040288E+02  0.49452683013E+02  0.24804555254E+03  0.25849570836E+03  0.47000000000E+01 0.  1.
         -5    1    4    4    0  502  0.20936737243E+02 -0.18973325632E+02 -0.21771822451E+01  0.28725671001E+02  0.47000000000E+01 0.  1.
<mgrwt>
<rscale>  0 0.30127780E+03</rscale>
<asrwt>0</asrwt>
<pdfrwt beam="1">  1       21 0.98687435E-01 0.30127780E+03</pdfrwt>
<pdfrwt beam="2">  1       21 0.54423402E-02 0.30127780E+03</pdfrwt>
<totfact> 0.19091630E+05</totfact>
</mgrwt>
</event>
<event>
 8    1  0.9175398E-006  0.3572473E+03  0.7546771E-02  0.1059679E+00
         21   -1    0    0  504  503  0.00000000000E+00  0.00000000000E+00  0.91373744005E+03  0.91373744005E+03  0.00000000000E+00 0. -1.
         21   -1    0    0  503  504 -0.00000000000E+00 -0.00000000000E+00 -0.34918579674E+02  0.34918579674E+02  0.00000000000E+00 0. -1.
         25    2    1    2    0    0  0.86176223663E+02 -0.85069639357E+02  0.54626407717E+03  0.57331577012E+03  0.12499338060E+03 0.  0.
         25    2    1    2    0    0 -0.86176223663E+02  0.85069639357E+02  0.33255478320E+03  0.37534024960E+03  0.12499773628E+03 0.  0.
          5    1    3    3  501    0  0.11153198026E+03 -0.34536748309E+02  0.34799032769E+03  0.36708517781E+03  0.47000000000E+01 0. -1.
         -5    1    3    3    0  501 -0.25355756592E+02 -0.50532891048E+02  0.19827374949E+03  0.20623059231E+03  0.47000000000E+01 0. -1.
          5    1    4    4  502    0  0.10059419118E+02 -0.22514812651E+02  0.24337573276E+02  0.34964498776E+02  0.47000000000E+01 0. -1.
         -5    1    4    4    0  502 -0.96235642781E+02  0.10758445201E+03  0.30821720992E+03  0.34037575082E+03  0.47000000000E+01 0. -1.
<mgrwt>
<rscale>  0 0.35724733E+03</rscale>
<asrwt>0</asrwt>
<pdfrwt beam="1">  1       21 0.14057497E+00 0.35724733E+03</pdfrwt>
<pdfrwt beam="2">  1       21 0.53720899E-02 0.35724733E+03</pdfrwt>
<totfact> 0.79194483E+04</totfact>
</mgrwt>
</event>
<event>
 8    1  0.9175398E-006  0.2711202E+03  0.7546771E-02  0.1100640E+00
         21   -1    0    0  504  503  0.00000000000E+00  0.00000000000E+00  0.80460929745E+03  0.80460929745E+03  0.00000000000E+00 0. -1.
         21   -1    0    0  503  504 -0.00000000000E+00 -0.00000000000E+00 -0.22839089471E+02  0.22839089471E+02  0.00000000000E+00 0. -1.
         25    2    1    2    0    0  0.33284522226E+02  0.36581167383E+02  0.33750027815E+03  0.36328939724E+03  0.12500682851E+03 0.  0.
         25    2    1    2    0    0 -0.33284522226E+02 -0.36581167383E+02  0.44426992983E+03  0.46415898968E+03  0.12498702299E+03 0.  0.
          5    1    3    3  501    0  0.64198700215E+02 -0.14433367362E+02  0.23992419723E+03  0.24882826531E+03  0.47000000000E+01 0. -1.
         -5    1    3    3    0  501 -0.30914177989E+02  0.51014534745E+02  0.97576080917E+02  0.11446113193E+03  0.47000000000E+01 0. -1.
          5    1    4    4  502    0 -0.67808574508E+02 -0.41959882272E+02  0.39827636971E+03  0.40620781770E+03  0.47000000000E+01 0.  1.
         -5    1    4    4    0  502  0.34524052282E+02  0.53787148894E+01  0.45993560127E+02  0.57951171973E+02  0.47000000000E+01 0.  1.
<mgrwt>
<rscale>  0 0.27112022E+03</rscale>
<asrwt>0</asrwt>
<pdfrwt beam="1">  1       21 0.12378602E+00 0.27112022E+03</pdfrwt>
<pdfrwt beam="2">  1       21 0.35137067E-02 0.27112022E+03</pdfrwt>
<totfact> 0.23192667E+05</totfact>
</mgrwt>
</event>
<event>
 8    1  0.9175398E-006  0.3039880E+03  0.7546771E-02  0.1083264E+00
         21   -1    0    0  504  503  0.00000000000E+00  0.00000000000E+00  0.18177174991E+03  0.18177174991E+03  0.00000000000E+00 0. -1.
         21   -1    0    0  503  504 -0.00000000000E+00 -0.00000000000E+00 -0.12709444485E+03  0.12709444485E+03  0.00000000000E+00 0. -1.
         25    2    1    2    0    0  0.24688446913E+02  0.51204074843E+02  0.93504535139E+02  0.16613123561E+03  0.12500045065E+03 0.  0.
         25    2    1    2    0    0 -0.24688446913E+02 -0.51204074843E+02 -0.38827230076E+02  0.14273495915E+03  0.12503734672E+03 0.  0.
          5    1    3    3  501    0 -0.25289694917E+02 -0.21592185464E+02  0.65104520120E+02  0.73256260361E+02  0.47000000000E+01 0.  1.
         -5    1    3    3    0  501  0.49978141830E+02  0.72796260306E+02  0.28400015019E+02  0.92874975254E+02  0.47000000000E+01 0.  1.
          5    1    4    4  502    0  0.19729789788E+02  0.14063935805E+02  0.29328093556E+02  0.38331266181E+02  0.47000000000E+01 0. -1.
         -5    1    4    4    0  502 -0.44418236701E+02 -0.65268010647E+02 -0.68155323632E+02  0.10440369297E+03  0.47000000000E+01 0. -1.
<mgrwt>
<rscale>  0 0.30398802E+03</rscale>
<asrwt>0</asrwt>
<pdfrwt beam="1">  1       21 0.27964885E-01 0.30398802E+03</pdfrwt>
<pdfrwt beam="2">  1       21 0.19552992E-01 0.30398802E+03</pdfrwt>
<totfact> 0.28654913E+05</totfact>
</mgrwt>
</event>
<event>
 8    1  0.9175398E-006  0.3655208E+03  0.7546771E-02  0.1056419E+00
         21   -1    0    0  504  503  0.00000000000E+00  0.00000000000E+00  0.25391162117E+02  0.25391162117E+02  0.00000000000E+00 0.  1.
         21   -1    0    0  503  504 -0.00000000000E+00 -0.00000000000E+00 -0.13154722492E+04  0.13154722492E+04  0.00000000000E+00 0.  1.
         25    2    1    2    0    0  0.99070762758E+02  0.31241610911E+02 -0.33843477422E+03  0.37543822403E+03  0.12499883750E+03 0.  0.
         25    2    1    2    0    0 -0.99070762758E+02 -0.31241610911E+02 -0.95164631282E+03  0.96542518724E+03  0.12499613265E+03 0.  0.
          5    1    3    3  501    0 -0.17209484324E+02  0.26280198085E+02 -0.15444051292E+03  0.15767300718E+03  0.47000000000E+01 0. -1.
         -5    1    3    3    0  501  0.11628024708E+03  0.49614128259E+01 -0.18399426130E+03  0.21776521685E+03  0.47000000000E+01 0. -1.
          5    1    4    4  502    0 -0.76240305742E+02 -0.28979903661E+02 -0.24249597974E+03  0.25588827489E+03  0.47000000000E+01 0. -1.
         -5    1    4    4    0  502 -0.22830457016E+02 -0.22617072505E+01 -0.70915033308E+03  0.70953691235E+03  0.47000000000E+01 0. -1.
<mgrwt>
<rscale>  0 0.36552083E+03</rscale>
<asrwt>0</asrwt>
<pdfrwt beam="1">  1       21 0.39063323E-02 0.36552083E+03</pdfrwt>
<pdfrwt beam="2">  1       21 0.20238036E+00 0.36552083E+03</pdfrwt>
<totfact> 0.48585003E+04</totfact>
</mgrwt>
</event>
<event>
 8    1  0.9175398E-006  0.3631299E+03  0.7546771E-02  0.1057351E+00
         21   -1    0    0  504  503  0.00000000000E+00  0.00000000000E+00  0.60979345296E+03  0.60979345296E+03  0.00000000000E+00 0.  1.
         21   -1    0    0  503  504 -0.00000000000E+00 -0.00000000000E+00 -0.54060641765E+02  0.54060641765E+02  0.00000000000E+00 0.  1.
         25    2    1    2    0    0 -0.30288641334E+02 -0.12360426712E+03  0.33964477098E+03  0.38363832270E+03  0.12499750216E+03 0.  0.
         25    2    1    2    0    0  0.30288641334E+02  0.12360426712E+03  0.21608804021E+03  0.28021577202E+03  0.12502568186E+03 0.  0.
          5    1    3    3  501    0 -0.26385478123E+02 -0.12898780374E+03  0.34792064173E+03  0.37202810366E+03  0.47000000000E+01 0. -1.
         -5    1    3    3    0  501 -0.39031632115E+01  0.53835366212E+01 -0.82758707488E+01  0.11610219044E+02  0.47000000000E+01 0. -1.
          5    1    4    4  502    0 -0.23575501436E+02  0.92218000204E+02  0.61386928767E+02  0.11335964385E+03  0.47000000000E+01 0. -1.
         -5    1    4    4    0  502  0.53864142771E+02  0.31386266911E+02  0.15470111144E+03  0.16685612817E+03  0.47000000000E+01 0. -1.
<mgrwt>
<rscale>  0 0.36312987E+03</rscale>
<asrwt>0</asrwt>
<pdfrwt beam="1">  1       21 0.93814373E-01 0.36312987E+03</pdfrwt>
<pdfrwt beam="2">  1       21 0.83170222E-02 0.36312987E+03</pdfrwt>
<totfact> 0.10128451E+05</totfact>
</mgrwt>
</event>
<event>
 8    1  0.9175398E-006  0.2824103E+03  0.7546771E-02  0.1094380E+00
         21   -1    0    0  504  503  0.00000000000E+00  0.00000000000E+00  0.28495623447E+02  0.28495623447E+02  0.00000000000E+00 0. -1.
         21   -1    0    0  503  504 -0.00000000000E+00 -0.00000000000E+00 -0.69971775598E+03  0.69971775598E+03  0.00000000000E+00 0. -1.
         25    2    1    2    0    0 -0.18456112427E+01  0.18395229395E+02 -0.17307248806E+03  0.21428942729E+03  0.12499632706E+03 0.  0.
         25    2    1    2    0    0  0.18456112427E+01 -0.18395229395E+02 -0.49814964447E+03  0.51392395213E+03  0.12499187793E+03 0.  0.
          5    1    3    3  501    0 -0.10367954501E+02  0.63545517247E+02 -0.14860453549E+03  0.16202137270E+03  0.47000000000E+01 0. -1.
         -5    1    3    3    0  501  0.85223432579E+01 -0.45150287852E+02 -0.24467952568E+02  0.52268054589E+02  0.47000000000E+01 0. -1.
          5    1    4    4  502    0 -0.43924854066E+02 -0.34004446375E+02 -0.40543585149E+03  0.40925055266E+03  0.47000000000E+01 0.  1.
         -5    1    4    4    0  502  0.45770465309E+02  0.15609216980E+02 -0.92713792979E+02  0.10467339948E+03  0.47000000000E+01 0.  1.
<mgrwt>
<rscale>  0 0.28241030E+03</rscale>
<asrwt>0</asrwt>
<pdfrwt beam="1">  1       21 0.43839419E-02 0.28241030E+03</pdfrwt>
<pdfrwt beam="2">  1       21 0.10764889E+00 0.28241030E+03</pdfrwt>
<totfact> 0.22491498E+05</totfact>
</mgrwt>
</event>
<event>
 8    1  0.9175398E-006  0.4370193E+03  0.7546771E-02  0.1031665E+00
         21   -1    0    0  504  503  0.00000000000E+00  0.00000000000E+00  0.25792158809E+03  0.25792158809E+03  0.00000000000E+00 0. -1.
         21   -1    0    0  503  504 -0.00000000000E+00 -0.00000000000E+00 -0.18512006960E+03  0.18512006960E+03  0.00000000000E+00 0. -1.
         25    2    1    2    0    0 -0.12730989481E+03 -0.12613691093E+03  0.34354307199E+02  0.22118101875E+03  0.12498997967E+03 0.  0.
         25    2    1    2    0    0  0.12730989481E+03  0.12613691093E+03  0.38447211288E+02  0.22186063894E+03  0.12500250173E+03 0.  0.
          5    1    3    3  501    0 -0.29720123823E+02 -0.95804779126E+02  0.58296508493E+02  0.11611379921E+03  0.47000000000E+01 0. -1.
         -5    1    3    3    0  501 -0.97589770986E+02 -0.30332131803E+02 -0.23942201293E+02  0.10506721955E+03  0.47000000000E+01 0. -1.
          5    1    4    4  502    0  0.14212289656E+03  0.70902617638E+02  0.42056496561E+02  0.16436829930E+03  0.47000000000E+01 0.  1.
         -5    1    4    4    0  502 -0.14813001746E+02  0.55234293291E+02 -0.36092852735E+01  0.57492339632E+02  0.47000000000E+01 0.  1.
<mgrwt>
<rscale>  0 0.43701928E+03</rscale>
<asrwt>0</asrwt>
<pdfrwt beam="1">  1       21 0.39680245E-01 0.43701928E+03</pdfrwt>
<pdfrwt beam="2">  1       21 0.28480010E-01 0.43701928E+03</pdfrwt>
<totfact> 0.67027772E+04</totfact>
</mgrwt>
</event>
<event>
 8    1  0.9175398E-006  0.3440653E+03  0.7546771E-02  0.1065078E+00
         21   -1    0    0  504  503  0.00000000000E+00  0.00000000000E+00  0.50235839996E+02  0.50235839996E+02  0.00000000000E+00 0. -1.
         21   -1    0    0  503  504 -0.00000000000E+00 -0.00000000000E+00 -0.58912590957E+03  0.58912590957E+03  0.00000000000E+00 0. -1.
         25    2    1    2    0    0  0.79546736597E+02  0.27355820888E+02 -0.11514409219E+03  0.18962838678E+03  0.12499895546E+03 0.  0.
         25    2    1    2    0    0 -0.79546736597E+02 -0.27355820888E+02 -0.42374597739E+03  0.44973336279E+03  0.12499367990E+03 0.  0.
          5    1    3    3  501    0  0.98699769377E+01  0.18060414372E+02  0.25030981961E+02  0.32745000686E+02  0.47000000000E+01 0. -1.
         -5    1    3    3    0  501  0.69676759659E+02  0.92954065164E+01 -0.14017507415E+03  0.15688338609E+03  0.47000000000E+01 0. -1.
          5    1    4    4  502    0 -0.11133860020E+03 -0.18234423096E+02 -0.36596820749E+03  0.38299294638E+03  0.47000000000E+01 0. -1.
         -5    1    4    4    0  502  0.31791863602E+02 -0.91213977924E+01 -0.57777769895E+02  0.66740416414E+02  0.47000000000E+01 0. -1.
<mgrwt>
<rscale>  0 0.34406531E+03</rscale>
<asrwt>0</asrwt>
<pdfrwt beam="1">  1       21 0.77285907E-02 0.34406531E+03</pdfrwt>
<pdfrwt beam="2">  1       21 0.90634756E-01 0.34406531E+03</pdfrwt>
<totfact> 0.12565400E+05</totfact>
</mgrwt>
</event>
<event>
 8    1  0.9175398E-006  0.3898519E+03  0.7546771E-02  0.1047351E+00
         21   -1    0    0  504  503  0.00000000000E+00  0.00000000000E+00  0.39421536063E+03  0.39421536063E+03  0.00000000000E+00 0. -1.
         21   -1    0    0  503  504 -0.00000000000E+00 -0.00000000000E+00 -0.96384188763E+02  0.96384188763E+02  0.00000000000E+00 0. -1.
         25    2    1    2    0    0 -0.77635146505E+02 -0.13042513753E+02 -0.11132337707E+02  0.14813722323E+03  0.12499353914E+03 0.  0.
         25    2    1    2    0    0  0.77635146505E+02  0.13042513753E+02  0.30896350958E+03  0.34246232617E+03  0.12499868581E+03 0.  0.
          5    1    3    3  501    0 -0.10029440496E+03 -0.43064568936E+02 -0.13897457080E+02  0.11013062280E+03  0.47000000000E+01 0. -1.
         -5    1    3    3    0  501  0.22659258458E+02  0.30022055182E+02  0.27651193734E+01  0.38006600432E+02  0.47000000000E+01 0. -1.
          5    1    4    4  502    0  0.38246081511E+02  0.57644880681E+02  0.80097967559E+02  0.10594087703E+03  0.47000000000E+01 0. -1.
         -5    1    4    4    0  502  0.39389064994E+02 -0.44602366927E+02  0.22886554202E+03  0.23652144913E+03  0.47000000000E+01 0. -1.
<mgrwt>
<rscale>  0 0.38985191E+03</rscale>
<asrwt>0</asrwt>
<pdfrwt beam="1">  1       21 0.60648516E-01 0.38985191E+03</pdfrwt>
<pdfrwt beam="2">  1       21 0.14828337E-01 0.38985191E+03</pdfrwt>
<totfact> 0.95623911E+04</totfact>
</mgrwt>
</event>
<event>
 8    1  0.9175398E-006  0.2920318E+03  0.7546771E-02  0.1089293E+00
         21   -1    0    0  504  503  0.00000000000E+00  0.00000000000E+00  0.13818287497E+03  0.13818287497E+03  0.00000000000E+00 0. -1.
         21   -1    0    0  503  504 -0.00000000000E+00 -0.00000000000E+00 -0.15429294661E+03  0.15429294661E+03  0.00000000000E+00 0. -1.
         25    2    1    2    0    0 -0.31071675608E+02  0.68769178738E+02 -0.72385717331E+01  0.14619374814E+03  0.12500226440E+03 0.  0.
         25    2    1    2    0    0  0.31071675608E+02 -0.68769178738E+02 -0.88714999071E+01  0.14628207345E+03  0.12500037013E+03 0.  0.
          5    1    3    3  501    0 -0.68726654497E+02  0.74897125144E+02  0.13278113614E+02  0.10262227192E+03  0.47000000000E+01 0. -1.
         -5    1    3    3    0  501  0.37654978889E+02 -0.61279464057E+01 -0.20516685347E+02  0.43571476219E+02  0.47000000000E+01 0. -1.
          5    1    4    4  502    0 -0.19836727352E+02 -0.87031110426E+02  0.71676083879E+01  0.89673711555E+02  0.47000000000E+01 0. -1.
         -5    1    4    4    0  502  0.50908402960E+02  0.18261931688E+02 -0.16039108295E+02  0.56608361890E+02  0.47000000000E+01 0. -1.
<mgrwt>
<rscale>  0 0.29203180E+03</rscale>
<asrwt>0</asrwt>
<pdfrwt beam="1">  1       21 0.21258904E-01 0.29203180E+03</pdfrwt>
<pdfrwt beam="2">  1       21 0.23737376E-01 0.29203180E+03</pdfrwt>
<totfact> 0.33671728E+05</totfact>
</mgrwt>
</event>
<event>
 8    1  0.9175398E-006  0.2556752E+03  0.7546771E-02  0.1109770E+00
         21   -1    0    0  504  503  0.00000000000E+00  0.00000000000E+00  0.12378511938E+02  0.12378511938E+02  0.00000000000E+00 0.  1.
         21   -1    0    0  503  504 -0.00000000000E+00 -0.00000000000E+00 -0.13202274567E+04  0.13202274567E+04  0.00000000000E+00 0.  1.
         25    2    1    2    0    0  0.26781129381E+02 -0.35571970988E+00 -0.65516907972E+03  0.66752424538E+03  0.12499895888E+03 0.  0.
         25    2    1    2    0    0 -0.26781129381E+02  0.35571970988E+00 -0.65267986505E+03  0.66508172327E+03  0.12500134781E+03 0.  0.
          5    1    3    3  501    0  0.77012205642E+02 -0.10745820066E+01 -0.37686918857E+03  0.38468754832E+03  0.47000000000E+01 0. -1.
         -5    1    3    3    0  501 -0.50231076261E+02  0.71886229668E+00 -0.27829989115E+03  0.28283669706E+03  0.47000000000E+01 0. -1.
          5    1    4    4  502    0 -0.69127607099E+02  0.27413825374E+02 -0.31772625625E+03  0.32634676005E+03  0.47000000000E+01 0.  1.
         -5    1    4    4    0  502  0.42346477718E+02 -0.27058105664E+02 -0.33495360880E+03  0.33873496322E+03  0.47000000000E+01 0.  1.
<mgrwt>
<rscale>  0 0.25567519E+03</rscale>
<asrwt>0</asrwt>
<pdfrwt beam="1">  1       21 0.19043859E-02 0.25567519E+03</pdfrwt>
<pdfrwt beam="2">  1       21 0.20311198E+00 0.25567519E+03</pdfrwt>
<totfact> 0.16585779E+05</totfact>
</mgrwt>
</event>
<event>
 8    1  0.9175398E-006  0.2742635E+03  0.7546771E-02  0.1098864E+00
         21   -1    0    0  504  503  0.00000000000E+00  0.00000000000E+00  0.17887247358E+03  0.17887247358E+03  0.00000000000E+00 0. -1.
         21   -1    0    0  503  504 -0.00000000000E+00 -0.00000000000E+00 -0.10513142958E+03  0.10513142958E+03  0.00000000000E+00 0. -1.
         25    2    1    2    0    0  0.34097331706E+01  0.49872558606E+02  0.63905909533E+02  0.14902172747E+03  0.12499844640E+03 0.  0.
         25    2    1    2    0    0 -0.34097331706E+01 -0.49872558606E+02  0.98351344651E+01  0.13498217569E+03  0.12499823800E+03 0.  0.
          5    1    3    3  501    0  0.22236861844E+02  0.55094596918E+02 -0.19905564631E+02  0.62834816285E+02  0.47000000000E+01 0. -1.
         -5    1    3    3    0  501 -0.18827128673E+02 -0.52220383120E+01  0.83811474164E+02  0.86186911186E+02  0.47000000000E+01 0. -1.
          5    1    4    4  502    0  0.96059145031E+01  0.40795156671E+02  0.96536621376E+01  0.43264322413E+02  0.47000000000E+01 0.  1.
         -5    1    4    4    0  502 -0.13015647674E+02 -0.90667715277E+02  0.18147232751E+00  0.91717853279E+02  0.47000000000E+01 0.  1.
<mgrwt>
<rscale>  0 0.27426351E+03</rscale>
<asrwt>0</asrwt>
<pdfrwt beam="1">  1       21 0.27518842E-01 0.27426351E+03</pdfrwt>
<pdfrwt beam="2">  1       21 0.16174066E-01 0.27426351E+03</pdfrwt>
<totfact> 0.42352160E+05</totfact>
</mgrwt>
</event>
<event>
 8    1  0.9175398E-006  0.3409534E+03  0.7546771E-02  0.1066391E+00
         21   -1    0    0  504  503  0.00000000000E+00  0.00000000000E+00  0.55960952035E+03  0.55960952035E+03  0.00000000000E+00 0. -1.
         21   -1    0    0  503  504 -0.00000000000E+00 -0.00000000000E+00 -0.51933189520E+02  0.51933189520E+02  0.00000000000E+00 0. -1.
         25    2    1    2    0    0  0.10004880933E+03 -0.55477224713E+02  0.28743193513E+03  0.33365890756E+03  0.12499465008E+03 0.  0.
         25    2    1    2    0    0 -0.10004880933E+03  0.55477224713E+02  0.22024439570E+03  0.27788380232E+03  0.12499730813E+03 0.  0.
          5    1    3    3  501    0  0.14440193854E+02  0.37883848735E+02  0.92947029719E+02  0.10151327759E+03  0.47000000000E+01 0.  1.
         -5    1    3    3    0  501  0.85608615480E+02 -0.93361073448E+02  0.19448490541E+03  0.23214562997E+03  0.47000000000E+01 0.  1.
          5    1    4    4  502    0 -0.74418344871E+02  0.95421549558E+02  0.16862371453E+03  0.20760397221E+03  0.47000000000E+01 0. -1.
         -5    1    4    4    0  502 -0.25630464463E+02 -0.39944324844E+02  0.51620681170E+02  0.70279830110E+02  0.47000000000E+01 0. -1.
<mgrwt>
<rscale>  0 0.34095341E+03</rscale>
<asrwt>0</asrwt>
<pdfrwt beam="1">  1       21 0.86093768E-01 0.34095341E+03</pdfrwt>
<pdfrwt beam="2">  1       21 0.79897218E-02 0.34095341E+03</pdfrwt>
<totfact> 0.13377644E+05</totfact>
</mgrwt>
</event>
<event>
 8    1  0.9175398E-006  0.2837618E+03  0.7546771E-02  0.1093652E+00
         21   -1    0    0  504  503  0.00000000000E+00  0.00000000000E+00  0.11794712608E+03  0.11794712608E+03  0.00000000000E+00 0. -1.
         21   -1    0    0  503  504 -0.00000000000E+00 -0.00000000000E+00 -0.17067124591E+03  0.17067124591E+03  0.00000000000E+00 0. -1.
         25    2    1    2    0    0 -0.59861235796E+02 -0.30338014170E+02 -0.27253693897E+02  0.14447265913E+03  0.12500329096E+03 0.  0.
         25    2    1    2    0    0  0.59861235796E+02  0.30338014170E+02 -0.25470425933E+02  0.14414571287E+03  0.12500192513E+03 0.  0.
          5    1    3    3  501    0  0.35606233214E+02  0.26273906282E+00 -0.25584404331E+02  0.44096764286E+02  0.47000000000E+01 0.  1.
         -5    1    3    3    0  501 -0.95467469011E+02 -0.30600753233E+02 -0.16692895662E+01  0.10037589484E+03  0.47000000000E+01 0.  1.
          5    1    4    4  502    0  0.30654770107E+02  0.38620643313E+02  0.45220096089E+02  0.67068741680E+02  0.47000000000E+01 0. -1.
         -5    1    4    4    0  502  0.29206465690E+02 -0.82826291426E+01 -0.70690522022E+02  0.77076971187E+02  0.47000000000E+01 0. -1.
<mgrwt>
<rscale>  0 0.28376175E+03</rscale>
<asrwt>0</asrwt>
<pdfrwt beam="1">  1       21 0.18145712E-01 0.28376175E+03</pdfrwt>
<pdfrwt beam="2">  1       21 0.26257115E-01 0.28376175E+03</pdfrwt>
<totfact> 0.37405526E+05</totfact>
</mgrwt>
</event>
<event>
 8    1  0.9175398E-006  0.3591828E+03  0.7546771E-02  0.1058908E+00
         21   -1    0    0  504  503  0.00000000000E+00  0.00000000000E+00  0.33755710999E+03  0.33755710999E+03  0.00000000000E+00 0. -1.
         21   -1    0    0  503  504 -0.00000000000E+00 -0.00000000000E+00 -0.95548490518E+02  0.95548490518E+02  0.00000000000E+00 0. -1.
         25    2    1    2    0    0 -0.12863881138E+03 -0.84589966802E+01  0.12474561797E+03  0.21864152253E+03  0.12499259079E+03 0.  0.
         25    2    1    2    0    0  0.12863881138E+03  0.84589966802E+01  0.11726300151E+03  0.21446407799E+03  0.12499892321E+03 0.  0.
          5    1    3    3  501    0 -0.14172369744E+03  0.21939131226E+02  0.11481659395E+03  0.18377124950E+03  0.47000000000E+01 0.  1.
         -5    1    3    3    0  501  0.13084886061E+02 -0.30398127906E+02  0.99290240169E+01  0.34870273032E+02  0.47000000000E+01 0.  1.
          5    1    4    4  502    0  0.10625782237E+03 -0.43203270350E+02  0.46371113834E+02  0.12381283286E+03  0.47000000000E+01 0.  1.
         -5    1    4    4    0  502  0.22380989013E+02  0.51662267031E+02  0.70891887677E+02  0.90651245123E+02  0.47000000000E+01 0.  1.
<mgrwt>
<rscale>  0 0.35918281E+03</rscale>
<asrwt>0</asrwt>
<pdfrwt beam="1">  1       21 0.51931863E-01 0.35918281E+03</pdfrwt>
<pdfrwt beam="2">  1       21 0.14699768E-01 0.35918281E+03</pdfrwt>
<totfact> 0.13671810E+05</totfact>
</mgrwt>
</event>
<event>
 8    1  0.9175398E-006  0.2572650E+03  0.7546771E-02  0.1108798E+00
         21   -1    0    0  504  503  0.00000000000E+00  0.00000000000E+00  0.77051660569E+01  0.77051660569E+01  0.00000000000E+00 0. -1.
         21   -1    0    0  503  504 -0.00000000000E+00 -0.00000000000E+00 -0.21474325302E+04  0.21474325302E+04  0.00000000000E+00 0. -1.
         25    2    1    2    0    0 -0.19585967809E+02 -0.22974599713E+02 -0.10436628921E+04  0.10515555577E+04  0.12500166448E+03 0.  0.
         25    2    1    2    0    0  0.19585967809E+02  0.22974599713E+02 -0.10960644721E+04  0.11035821386E+04  0.12499906959E+03 0.  0.
          5    1    3    3  501    0  0.10140214812E+01  0.23162410695E+02 -0.87745187078E+03  0.87777069958E+03  0.47000000000E+01 0.  1.
         -5    1    3    3    0  501 -0.20599989290E+02 -0.46137010408E+02 -0.16621102135E+03  0.17378485811E+03  0.47000000000E+01 0.  1.
          5    1    4    4  502    0 -0.17688530654E+02 -0.24293273235E+02 -0.77878092424E+02  0.83607024350E+02  0.47000000000E+01 0. -1.
         -5    1    4    4    0  502  0.37274498462E+02  0.47267872948E+02 -0.10181863796E+04  0.10199751143E+04  0.47000000000E+01 0. -1.
<mgrwt>
<rscale>  0 0.25726503E+03</rscale>
<asrwt>0</asrwt>
<pdfrwt beam="1">  1       21 0.11854113E-02 0.25726503E+03</pdfrwt>
<pdfrwt beam="2">  1       21 0.33037392E+00 0.25726503E+03</pdfrwt>
<totfact> 0.61791190E+04</totfact>
</mgrwt>
</event>
<event>
 8    1  0.9175398E-006  0.3016660E+03  0.7546771E-02  0.1084411E+00
         21   -1    0    0  504  503  0.00000000000E+00  0.00000000000E+00  0.38877658046E+02  0.38877658046E+02  0.00000000000E+00 0.  1.
         21   -1    0    0  503  504 -0.00000000000E+00 -0.00000000000E+00 -0.58518421540E+03  0.58518421540E+03  0.00000000000E+00 0.  1.
         25    2    1    2    0    0 -0.22388447093E+02 -0.11180501229E+02 -0.43994146040E+03  0.45803957152E+03  0.12500205731E+03 0.  0.
         25    2    1    2    0    0  0.22388447093E+02  0.11180501229E+02 -0.10636509695E+03  0.16602230192E+03  0.12499449874E+03 0.  0.
          5    1    3    3  501    0 -0.54130469565E+01 -0.64564057003E+02 -0.16333918973E+03  0.17578281894E+03  0.47000000000E+01 0.  1.
         -5    1    3    3    0  501 -0.16975400137E+02  0.53383555774E+02 -0.27660227067E+03  0.28225675258E+03  0.47000000000E+01 0.  1.
          5    1    4    4  502    0 -0.26135153940E+02 -0.16806209476E+02  0.13057973312E+02  0.34030803920E+02  0.47000000000E+01 0.  1.
         -5    1    4    4    0  502  0.48523601034E+02  0.27986710704E+02 -0.11942307026E+03  0.13199149800E+03  0.47000000000E+01 0.  1.
<mgrwt>
<rscale>  0 0.30166599E+03</rscale>
<asrwt>0</asrwt>
<pdfrwt beam="1">  1       21 0.59811781E-02 0.30166599E+03</pdfrwt>
<pdfrwt beam="2">  1       21 0.90028342E-01 0.30166599E+03</pdfrwt>
<totfact> 0.20162894E+05</totfact>
</mgrwt>
</event>
<event>
 8    1  0.9175398E-006  0.2820288E+03  0.7546771E-02  0.1094586E+00
         21   -1    0    0  504  503  0.00000000000E+00  0.00000000000E+00  0.76628579855E+03  0.76628579855E+03  0.00000000000E+00 0. -1.
         21   -1    0    0  503  504 -0.00000000000E+00 -0.00000000000E+00 -0.25949936534E+02  0.25949936534E+02  0.00000000000E+00 0. -1.
         25    2    1    2    0    0 -0.48182682100E+02  0.42864862219E+02  0.39844726983E+03  0.42254401664E+03  0.12499700754E+03 0.  0.
         25    2    1    2    0    0  0.48182682100E+02 -0.42864862219E+02  0.34188859218E+03  0.36969171844E+03  0.12500075981E+03 0.  0.
          5    1    3    3  501    0 -0.48663794982E+02 -0.20751993059E+02  0.69513613558E+02  0.87481670239E+02  0.47000000000E+01 0.  1.
         -5    1    3    3    0  501  0.48111288157E+00  0.63616855278E+02  0.32893365627E+03  0.33506234640E+03  0.47000000000E+01 0.  1.
          5    1    4    4  502    0  0.43795852816E+02 -0.49246716657E+02  0.35080983642E+03  0.35697751631E+03  0.47000000000E+01 0. -1.
         -5    1    4    4    0  502  0.43868292844E+01  0.63818544374E+01 -0.89212442328E+01  0.12714202134E+02  0.47000000000E+01 0. -1.
<mgrwt>
<rscale>  0 0.28202885E+03</rscale>
<asrwt>0</asrwt>
<pdfrwt beam="1">  1       21 0.11789011E+00 0.28202885E+03</pdfrwt>
<pdfrwt beam="2">  1       21 0.39922985E-02 0.28202885E+03</pdfrwt>
<totfact> 0.21079907E+05</totfact>
</mgrwt>
</event>
<event>
 8    1  0.9175398E-006  0.3213562E+03  0.7546771E-02  0.1075027E+00
         21   -1    0    0  504  503  0.00000000000E+00  0.00000000000E+00  0.45955698152E+03  0.45955698152E+03  0.00000000000E+00 0. -1.
         21   -1    0    0  503  504 -0.00000000000E+00 -0.00000000000E+00 -0.56179015123E+02  0.56179015123E+02  0.00000000000E+00 0. -1.
         25    2    1    2    0    0  0.14818974174E+02  0.21607486432E+01  0.41464787886E+02  0.13255005859E+03  0.12500367421E+03 0.  0.
         25    2    1    2    0    0 -0.14818974174E+02 -0.21607486432E+01  0.36191317851E+03  0.38318593806E+03  0.12500417398E+03 0.  0.
          5    1    3    3  501    0  0.63889476638E+02 -0.21749797237E+02  0.74515971952E+01  0.68062729931E+02  0.47000000000E+01 0. -1.
         -5    1    3    3    0  501 -0.49070502464E+02  0.23910545880E+02  0.34013190690E+02  0.64487328657E+02  0.47000000000E+01 0. -1.
          5    1    4    4  502    0  0.39184322272E+02 -0.67979828214E+01  0.39621605858E+02  0.56334583811E+02  0.47000000000E+01 0. -1.
         -5    1    4    4    0  502 -0.54003296446E+02  0.46372341782E+01  0.32229157266E+03  0.32685135425E+03  0.47000000000E+01 0. -1.
<mgrwt>
<rscale>  0 0.32135624E+03</rscale>
<asrwt>0</asrwt>
<pdfrwt beam="1">  1       21 0.70701072E-01 0.32135624E+03</pdfrwt>
<pdfrwt beam="2">  1       21 0.86429257E-02 0.32135624E+03</pdfrwt>
<totfact> 0.18336933E+05</totfact>
</mgrwt>
</event>
<event>
 8    1  0.9175398E-006  0.2532838E+03  0.7546771E-02  0.1111247E+00
         21   -1    0    0  504  503  0.00000000000E+00  0.00000000000E+00  0.13350527071E+03  0.13350527071E+03  0.00000000000E+00 0. -1.
         21   -1    0    0  503  504 -0.00000000000E+00 -0.00000000000E+00 -0.12013137727E+03  0.12013137727E+03  0.00000000000E+00 0. -1.
         25    2    1    2    0    0  0.71830549842E+01 -0.17470347914E+02 -0.74331465727E+00  0.12642952498E+03  0.12500825147E+03 0.  0.
         25    2    1    2    0    0 -0.71830549842E+01  0.17470347914E+02  0.14117208095E+02  0.12720712300E+03  0.12500218895E+03 0.  0.
          5    1    3    3  501    0 -0.99751569543E+01 -0.66585539494E+02  0.19738922235E+02  0.70319647873E+02  0.47000000000E+01 0. -1.
         -5    1    3    3    0  501  0.17158211938E+02  0.49115191580E+02 -0.20482236893E+02  0.56109877107E+02  0.47000000000E+01 0. -1.
          5    1    4    4  502    0  0.14573443653E+02 -0.46448424840E+02 -0.18225807745E+02  0.52193021544E+02  0.47000000000E+01 0. -1.
         -5    1    4    4    0  502 -0.21756498637E+02  0.63918772754E+02  0.32343015840E+02  0.75014101454E+02  0.47000000000E+01 0. -1.
<mgrwt>
<rscale>  0 0.25328381E+03</rscale>
<asrwt>0</asrwt>
<pdfrwt beam="1">  1       21 0.20539272E-01 0.25328381E+03</pdfrwt>
<pdfrwt beam="2">  1       21 0.18481750E-01 0.25328381E+03</pdfrwt>
<totfact> 0.58087588E+05</totfact>
</mgrwt>
</event>
<event>
 8    1  0.9175398E-006  0.2974696E+03  0.7546771E-02  0.1086512E+00
         21   -1    0    0  504  503  0.00000000000E+00  0.00000000000E+00  0.85929338645E+02  0.85929338645E+02  0.00000000000E+00 0. -1.
         21   -1    0    0  503  504 -0.00000000000E+00 -0.00000000000E+00 -0.25744463175E+03  0.25744463175E+03  0.00000000000E+00 0. -1.
         25    2    1    2    0    0 -0.52225975131E+02 -0.59545112740E+02 -0.10305391151E+03  0.18032969381E+03  0.12500206744E+03 0.  0.
         25    2    1    2    0    0  0.52225975131E+02  0.59545112740E+02 -0.68461381599E+02  0.16304427658E+03  0.12499320952E+03 0.  0.
          5    1    3    3  501    0  0.23506825554E+02  0.15713940761E+02 -0.57313567869E+02  0.64081462559E+02  0.47000000000E+01 0.  1.
         -5    1    3    3    0  501 -0.75732800685E+02 -0.75259053501E+02 -0.45740343639E+02  0.11624823125E+03  0.47000000000E+01 0.  1.
          5    1    4    4  502    0  0.89796887789E+02  0.60625092917E+02 -0.61035891870E+02  0.12444417642E+03  0.47000000000E+01 0.  1.
         -5    1    4    4    0  502 -0.37570912658E+02 -0.10799801770E+01 -0.74254897290E+01  0.38600100167E+02  0.47000000000E+01 0.  1.
<mgrwt>
<rscale>  0 0.29746964E+03</rscale>
<asrwt>0</asrwt>
<pdfrwt beam="1">  1       21 0.13219898E-01 0.29746964E+03</pdfrwt>
<pdfrwt beam="2">  1       21 0.39606867E-01 0.29746964E+03</pdfrwt>
<totfact> 0.29570128E+05</totfact>
</mgrwt>
</event>
<event>
 8    1  0.9175398E-006  0.3090083E+03  0.7546771E-02  0.1080822E+00
         21   -1    0    0  504  503  0.00000000000E+00  0.00000000000E+00  0.10903290375E+03  0.10903290375E+03  0.00000000000E+00 0.  1.
         21   -1    0    0  503  504 -0.00000000000E+00 -0.00000000000E+00 -0.21893885781E+03  0.21893885781E+03  0.00000000000E+00 0.  1.
         25    2    1    2    0    0  0.62957096886E+02  0.31120992207E+02  0.61481819108E+01  0.14350764179E+03  0.12499812362E+03 0.  0.
         25    2    1    2    0    0 -0.62957096886E+02 -0.31120992207E+02 -0.11605413597E+03  0.18446411976E+03  0.12500534708E+03 0.  0.
          5    1    3    3  501    0  0.93581074167E+02  0.17196513241E+02  0.32351607087E+02  0.10060742513E+03  0.47000000000E+01 0. -1.
         -5    1    3    3    0  501 -0.30623977281E+02  0.13924478966E+02 -0.26203425176E+02  0.42900216666E+02  0.47000000000E+01 0. -1.
          5    1    4    4  502    0 -0.89215619227E+01  0.15183441749E+02 -0.11152436141E+03  0.11300400151E+03  0.47000000000E+01 0. -1.
         -5    1    4    4    0  502 -0.54035534963E+02 -0.46304433956E+02 -0.45297745639E+01  0.71460118250E+02  0.47000000000E+01 0. -1.
<mgrwt>
<rscale>  0 0.30900835E+03</rscale>
<asrwt>0</asrwt>
<pdfrwt beam="1">  1       21 0.16774293E-01 0.30900835E+03</pdfrwt>
<pdfrwt beam="2">  1       21 0.33682901E-01 0.30900835E+03</pdfrwt>
<totfact> 0.26401678E+05</totfact>
</mgrwt>
</event>
<event>
 8    1  0.9175398E-006  0.2727455E+03  0.7546771E-02  0.1099719E+00
         21   -1    0    0  504  503  0.00000000000E+00  0.00000000000E+00  0.11002443291E+03  0.11002443291E+03  0.00000000000E+00 0.  1.
         21   -1    0    0  503  504 -0.00000000000E+00 -0.00000000000E+00 -0.16903084687E+03  0.16903084687E+03  0.00000000000E+00 0.  1.
         25    2    1    2    0    0 -0.18009497195E+02  0.14503651774E+01 -0.82138128506E+02  0.15065289131E+03  0.12499270361E+03 0.  0.
         25    2    1    2    0    0  0.18009497195E+02 -0.14503651774E+01  0.23131714549E+02  0.12840238848E+03  0.12500260637E+03 0.  0.
          5    1    3    3  501    0 -0.71335285245E+01  0.23468663487E+02 -0.11024237426E+03  0.11303599638E+03  0.47000000000E+01 0. -1.
         -5    1    3    3    0  501 -0.10875968671E+02 -0.22018298310E+02  0.28104245752E+02  0.37616894931E+02  0.47000000000E+01 0. -1.
          5    1    4    4  502    0 -0.70226427309E+01  0.55190327475E+02  0.33976607177E+02  0.65358928946E+02  0.47000000000E+01 0.  1.
         -5    1    4    4    0  502  0.25032139926E+02 -0.56640692653E+02 -0.10844892628E+02  0.63043459531E+02  0.47000000000E+01 0.  1.
<mgrwt>
<rscale>  0 0.27274547E+03</rscale>
<asrwt>0</asrwt>
<pdfrwt beam="1">  1       21 0.16926836E-01 0.27274547E+03</pdfrwt>
<pdfrwt beam="2">  1       21 0.26004745E-01 0.27274547E+03</pdfrwt>
<totfact> 0.43460106E+05</totfact>
</mgrwt>
</event>
<event>
 8    1  0.9175398E-006  0.2810765E+03  0.7546771E-02  0.1095102E+00
         21   -1    0    0  504  503  0.00000000000E+00  0.00000000000E+00  0.14219949313E+04  0.14219949313E+04  0.00000000000E+00 0.  1.
         21   -1    0    0  503  504 -0.00000000000E+00 -0.00000000000E+00 -0.13889645623E+02  0.13889645623E+02  0.00000000000E+00 0.  1.
         25    2    1    2    0    0  0.17732537624E+02  0.61632976540E+02  0.72271915294E+03  0.73624748518E+03  0.12499727480E+03 0.  0.
         25    2    1    2    0    0 -0.17732537624E+02 -0.61632976540E+02  0.68538613272E+03  0.69963709174E+03  0.12499937007E+03 0.  0.
          5    1    3    3  501    0  0.39362650903E+02  0.80492178301E+02  0.31603250877E+03  0.32852251925E+03  0.47000000000E+01 0. -1.
         -5    1    3    3    0  501 -0.21630113278E+02 -0.18859201761E+02  0.40668664417E+03  0.40772496593E+03  0.47000000000E+01 0. -1.
          5    1    4    4  502    0 -0.17534618463E+02 -0.69330611592E+02  0.17413480530E+03  0.18830617877E+03  0.47000000000E+01 0.  1.
         -5    1    4    4    0  502 -0.19791916189E+00  0.76976350524E+01  0.51125132743E+03  0.51133091296E+03  0.47000000000E+01 0.  1.
<mgrwt>
<rscale>  0 0.28107654E+03</rscale>
<asrwt>0</asrwt>
<pdfrwt beam="1">  1       21 0.21876834E+00 0.28107654E+03</pdfrwt>
<pdfrwt beam="2">  1       21 0.21368697E-02 0.28107654E+03</pdfrwt>
<totfact> 0.10798060E+05</totfact>
</mgrwt>
</event>
<event>
 8    1  0.9175398E-006  0.2591114E+03  0.7546771E-02  0.1107678E+00
         21   -1    0    0  504  503  0.00000000000E+00  0.00000000000E+00  0.53500141225E+03  0.53500141225E+03  0.00000000000E+00 0.  1.
         21   -1    0    0  503  504 -0.00000000000E+00 -0.00000000000E+00 -0.31373158483E+02  0.31373158483E+02  0.00000000000E+00 0.  1.
         25    2    1    2    0    0 -0.81654312578E+01  0.24761735176E+02  0.29970689517E+03  0.32577255700E+03  0.12499487223E+03 0.  0.
         25    2    1    2    0    0  0.81654312578E+01 -0.24761735176E+02  0.20392135859E+03  0.24060201373E+03  0.12500236288E+03 0.  0.
          5    1    3    3  501    0  0.39733384685E+02 -0.34855742030E+01  0.29420055143E+02  0.49784743955E+02  0.47000000000E+01 0. -1.
         -5    1    3    3    0  501 -0.47898815943E+02  0.28247309379E+02  0.27028684003E+03  0.27598781305E+03  0.47000000000E+01 0. -1.
          5    1    4    4  502    0  0.20253001111E+02  0.18107159740E+02 -0.40465275472E+01  0.27866066694E+02  0.47000000000E+01 0. -1.
         -5    1    4    4    0  502 -0.12087569853E+02 -0.42868894916E+02  0.20796788614E+03  0.21273594703E+03  0.47000000000E+01 0. -1.
<mgrwt>
<rscale>  0 0.25911144E+03</rscale>
<asrwt>0</asrwt>
<pdfrwt beam="1">  1       21 0.82307903E-01 0.25911144E+03</pdfrwt>
<pdfrwt beam="2">  1       21 0.48266402E-02 0.25911144E+03</pdfrwt>
<totfact> 0.36213740E+05</totfact>
</mgrwt>
</event>
<event>
 8    1  0.9175398E-006  0.2699858E+03  0.7546771E-02  0.1101288E+00
         21   -1    0    0  504  503  0.00000000000E+00  0.00000000000E+00  0.36400131391E+03  0.36400131391E+03  0.00000000000E+00 0.  1.
         21   -1    0    0  503  504 -0.00000000000E+00 -0.00000000000E+00 -0.50063241945E+02  0.50063241945E+02  0.00000000000E+00 0.  1.
         25    2    1    2    0    0 -0.21968439166E+02 -0.17672984199E+02  0.22208164620E+03  0.25639817350E+03  0.12499927641E+03 0.  0.
         25    2    1    2    0    0  0.21968439166E+02  0.17672984199E+02  0.91856425760E+02  0.15766638235E+03  0.12500455384E+03 0.  0.
          5    1    3    3  501    0  0.50106529791E+02 -0.21136132212E+02  0.78180880950E+02  0.95350619078E+02  0.47000000000E+01 0. -1.
         -5    1    3    3    0  501 -0.72074968957E+02  0.34631480131E+01  0.14390076525E+03  0.16104755442E+03  0.47000000000E+01 0. -1.
          5    1    4    4  502    0 -0.49352084130E+02  0.68309634030E+01  0.15207082893E+02  0.52303304284E+02  0.47000000000E+01 0.  1.
         -5    1    4    4    0  502  0.71320523296E+02  0.10842020796E+02  0.76649342867E+02  0.10536307807E+03  0.47000000000E+01 0.  1.
<mgrwt>
<rscale>  0 0.26998582E+03</rscale>
<asrwt>0</asrwt>
<pdfrwt beam="1">  1       21 0.56000200E-01 0.26998582E+03</pdfrwt>
<pdfrwt beam="2">  1       21 0.77020375E-02 0.26998582E+03</pdfrwt>
<totfact> 0.37815693E+05</totfact>
</mgrwt>
</event>
<event>
 8    1  0.9175398E-006  0.4663963E+03  0.7546771E-02  0.1022942E+00
         21   -1    0    0  504  503  0.00000000000E+00  0.00000000000E+00  0.12052117022E+04  0.12052117022E+04  0.00000000000E+00 0. -1.
         21   -1    0    0  503  504 -0.00000000000E+00 -0.00000000000E+00 -0.45121853286E+02  0.45121853286E+02  0.00000000000E+00 0. -1.
         25    2    1    2    0    0  0.68253924306E+02  0.18200392720E+03  0.49637662482E+03  0.54753644182E+03  0.12498949459E+03 0.  0.
         25    2    1    2    0    0 -0.68253924306E+02 -0.18200392720E+03  0.66371322413E+03  0.70279711370E+03  0.12499804574E+03 0.  0.
          5    1    3    3  501    0  0.92465328374E+01  0.15805238787E+03  0.41429665504E+03  0.44354240390E+03  0.47000000000E+01 0.  1.
         -5    1    3    3    0  501  0.59007391469E+02  0.23951539326E+02  0.82079969773E+02  0.10399403792E+03  0.47000000000E+01 0.  1.
          5    1    4    4  502    0 -0.47975060519E+02 -0.14574024888E+03  0.30297445854E+03  0.33964310548E+03  0.47000000000E+01 0.  1.
         -5    1    4    4    0  502 -0.20278863788E+02 -0.36263678316E+02  0.36073876559E+03  0.36315400821E+03  0.47000000000E+01 0.  1.
<mgrwt>
<rscale>  0 0.46639634E+03</rscale>
<asrwt>0</asrwt>
<pdfrwt beam="1">  1       21 0.18541716E+00 0.46639634E+03</pdfrwt>
<pdfrwt beam="2">  1       21 0.69418245E-02 0.46639634E+03</pdfrwt>
<totfact> 0.22675929E+04</totfact>
</mgrwt>
</event>
<event>
 8    1  0.9175398E-006  0.3373161E+03  0.7546771E-02  0.1067945E+00
         21   -1    0    0  504  503  0.00000000000E+00  0.00000000000E+00  0.40140638060E+02  0.40140638060E+02  0.00000000000E+00 0. -1.
         21   -1    0    0  503  504 -0.00000000000E+00 -0.00000000000E+00 -0.70864669221E+03  0.70864669221E+03  0.00000000000E+00 0. -1.
         25    2    1    2    0    0  0.42562419064E+02 -0.10406916929E+03 -0.36389072245E+03  0.40085221587E+03  0.12499635823E+03 0.  0.
         25    2    1    2    0    0 -0.42562419064E+02  0.10406916929E+03 -0.30461533170E+03  0.34793511440E+03  0.12500556791E+03 0.  0.
          5    1    3    3  501    0  0.44239938861E+00 -0.92531095022E+02 -0.33665007794E+03  0.34916695754E+03  0.47000000000E+01 0. -1.
         -5    1    3    3    0  501  0.42120019676E+02 -0.11538074270E+02 -0.27240644510E+02  0.51685258330E+02  0.47000000000E+01 0. -1.
          5    1    4    4  502    0 -0.80346199690E+02  0.34326091736E+02 -0.13903438023E+03  0.16427550415E+03  0.47000000000E+01 0.  1.
         -5    1    4    4    0  502  0.37783780625E+02  0.69743077557E+02 -0.16558095147E+03  0.18365961024E+03  0.47000000000E+01 0.  1.
<mgrwt>
<rscale>  0 0.33731606E+03</rscale>
<asrwt>0</asrwt>
<pdfrwt beam="1">  1       21 0.61754831E-02 0.33731606E+03</pdfrwt>
<pdfrwt beam="2">  1       21 0.10902256E+00 0.33731606E+03</pdfrwt>
<totfact> 0.11939049E+05</totfact>
</mgrwt>
</event>
<event>
 8    1  0.9175398E-006  0.3081634E+03  0.7546771E-02  0.1081230E+00
         21   -1    0    0  504  503  0.00000000000E+00  0.00000000000E+00  0.30789311698E+03  0.30789311698E+03  0.00000000000E+00 0.  1.
         21   -1    0    0  503  504 -0.00000000000E+00 -0.00000000000E+00 -0.77108472971E+02  0.77108472971E+02  0.00000000000E+00 0.  1.
         25    2    1    2    0    0 -0.27113197248E+02  0.55458955178E+02  0.19737494346E+03  0.24163911339E+03  0.12498708589E+03 0.  0.
         25    2    1    2    0    0  0.27113197248E+02 -0.55458955178E+02  0.33409700549E+02  0.14336247656E+03  0.12500308164E+03 0.  0.
          5    1    3    3  501    0  0.14326060408E+02  0.65030951648E+02  0.38413041310E+02  0.77018909507E+02  0.47000000000E+01 0. -1.
         -5    1    3    3    0  501 -0.41439257656E+02 -0.95719964696E+01  0.15896190215E+03  0.16462020388E+03  0.47000000000E+01 0. -1.
          5    1    4    4  502    0  0.32870968301E+02 -0.66225048091E+02 -0.29029129958E+02  0.79567819738E+02  0.47000000000E+01 0. -1.
         -5    1    4    4    0  502 -0.57577710527E+01  0.10766092913E+02  0.62438830506E+02  0.63794656823E+02  0.47000000000E+01 0. -1.
<mgrwt>
<rscale>  0 0.30816339E+03</rscale>
<asrwt>0</asrwt>
<pdfrwt beam="1">  1       21 0.47368171E-01 0.30816339E+03</pdfrwt>
<pdfrwt beam="2">  1       21 0.11862842E-01 0.30816339E+03</pdfrwt>
<totfact> 0.24814408E+05</totfact>
</mgrwt>
</event>
<event>
 8    1  0.9175398E-006  0.2688586E+03  0.7546771E-02  0.1101935E+00
         21   -1    0    0  504  503  0.00000000000E+00  0.00000000000E+00  0.13393836816E+04  0.13393836816E+04  0.00000000000E+00 0.  1.
         21   -1    0    0  503  504 -0.00000000000E+00 -0.00000000000E+00 -0.13492200042E+02  0.13492200042E+02  0.00000000000E+00 0.  1.
         25    2    1    2    0    0  0.30121993385E+02  0.36377359886E+02  0.73597596921E+03  0.74800859808E+03  0.12500235499E+03 0.  0.
         25    2    1    2    0    0 -0.30121993385E+02 -0.36377359886E+02  0.58991551238E+03  0.60486728359E+03  0.12503388427E+03 0.  0.
          5    1    3    3  501    0 -0.61698694024E+01  0.20224511193E+02  0.16017452799E+02  0.26939690711E+02  0.47000000000E+01 0. -1.
         -5    1    3    3    0  501  0.36291862788E+02  0.16152848693E+02  0.71995851641E+03  0.72106890737E+03  0.47000000000E+01 0. -1.
          5    1    4    4  502    0 -0.69539696320E+02 -0.54477011728E+02  0.34925629090E+03  0.36028538814E+03  0.47000000000E+01 0.  1.
         -5    1    4    4    0  502  0.39417702935E+02  0.18099651842E+02  0.24065922148E+03  0.24458189545E+03  0.47000000000E+01 0.  1.
<mgrwt>
<rscale>  0 0.26885857E+03</rscale>
<asrwt>0</asrwt>
<pdfrwt beam="1">  1       21 0.20605892E+00 0.26885857E+03</pdfrwt>
<pdfrwt beam="2">  1       21 0.20757241E-02 0.26885857E+03</pdfrwt>
<totfact> 0.13710462E+05</totfact>
</mgrwt>
</event>
<event>
 8    1  0.9175398E-006  0.3163767E+03  0.7546771E-02  0.1077329E+00
         21   -1    0    0  504  503  0.00000000000E+00  0.00000000000E+00  0.40665344932E+02  0.40665344932E+02  0.00000000000E+00 0.  1.
         21   -1    0    0  503  504 -0.00000000000E+00 -0.00000000000E+00 -0.61535340963E+03  0.61535340963E+03  0.00000000000E+00 0.  1.
         25    2    1    2    0    0  0.26604599336E+02 -0.92618493827E+02 -0.26542606751E+03  0.30880702463E+03  0.12499916418E+03 0.  0.
         25    2    1    2    0    0 -0.26604599336E+02  0.92618493827E+02 -0.30926199719E+03  0.34721172993E+03  0.12500804929E+03 0.  0.
          5    1    3    3  501    0 -0.41709163939E+02 -0.48067330357E+01 -0.10808353481E+03  0.11604697125E+03  0.47000000000E+01 0.  1.
         -5    1    3    3    0  501  0.68313763274E+02 -0.87811760791E+02 -0.15734253270E+03  0.19276005339E+03  0.47000000000E+01 0.  1.
          5    1    4    4  502    0  0.52478411530E+01  0.10885121980E+03 -0.15992051552E+03  0.19357889651E+03  0.47000000000E+01 0.  1.
         -5    1    4    4    0  502 -0.31852440489E+02 -0.16232725972E+02 -0.14934148167E+03  0.15363283342E+03  0.47000000000E+01 0.  1.
<mgrwt>
<rscale>  0 0.31637673E+03</rscale>
<asrwt>0</asrwt>
<pdfrwt beam="1">  1       21 0.62562069E-02 0.31637673E+03</pdfrwt>
<pdfrwt beam="2">  1       21 0.94669755E-01 0.31637673E+03</pdfrwt>
<totfact> 0.16508935E+05</totfact>
</mgrwt>
</event>
<event>
 8    1  0.9175398E-006  0.3481771E+03  0.7546771E-02  0.1063366E+00
         21   -1    0    0  504  503  0.00000000000E+00  0.00000000000E+00  0.70024291999E+02  0.70024291999E+02  0.00000000000E+00 0.  1.
         21   -1    0    0  503  504 -0.00000000000E+00 -0.00000000000E+00 -0.43280453075E+03  0.43280453075E+03  0.00000000000E+00 0.  1.
         25    2    1    2    0    0  0.53736954522E+02  0.44185108676E+02 -0.38119597237E+02  0.14804535700E+03  0.12499735968E+03 0.  0.
         25    2    1    2    0    0 -0.53736954522E+02 -0.44185108676E+02 -0.32466064152E+03  0.35478346575E+03  0.12500716504E+03 0.  0.
          5    1    3    3  501    0 -0.35506358325E+02  0.21667681036E+02 -0.37015362217E+02  0.55878590919E+02  0.47000000000E+01 0.  1.
         -5    1    3    3    0  501  0.89243312847E+02  0.22517427639E+02 -0.11042350200E+01  0.92166766084E+02  0.47000000000E+01 0.  1.
          5    1    4    4  502    0 -0.89718973091E+02 -0.57966539728E+01 -0.19524039924E+03  0.21499767168E+03  0.47000000000E+01 0. -1.
         -5    1    4    4    0  502  0.35982018569E+02 -0.38388454703E+02 -0.12942024228E+03  0.13978579408E+03  0.47000000000E+01 0. -1.
<mgrwt>
<rscale>  0 0.34817714E+03</rscale>
<asrwt>0</asrwt>
<pdfrwt beam="1">  1       21 0.10772968E-01 0.34817714E+03</pdfrwt>
<pdfrwt beam="2">  1       21 0.66585312E-01 0.34817714E+03</pdfrwt>
<totfact> 0.14063213E+05</totfact>
</mgrwt>
</event>
<event>
 8    1  0.9175398E-006  0.2766643E+03  0.7546771E-02  0.1097525E+00
         21   -1    0    0  504  503  0.00000000000E+00  0.00000000000E+00  0.69205419139E+01  0.69205419139E+01  0.00000000000E+00 0. -1.
         21   -1    0    0  503  504 -0.00000000000E+00 -0.00000000000E+00 -0.27650706285E+04  0.27650706285E+04  0.00000000000E+00 0. -1.
         25    2    1    2    0    0 -0.20370977761E+02 -0.47272876913E+02 -0.16730674805E+04  0.16785199656E+04  0.12499911616E+03 0.  0.
         25    2    1    2    0    0  0.20370977761E+02  0.47272876913E+02 -0.10850826061E+04  0.10934712048E+04  0.12500124824E+03 0.  0.
          5    1    3    3  501    0  0.43210976072E+02  0.73775364959E+01 -0.85958716664E+03  0.86071702873E+03  0.47000000000E+01 0.  1.
         -5    1    3    3    0  501 -0.63581953833E+02 -0.54650413409E+02 -0.81348031386E+03  0.81780293688E+03  0.47000000000E+01 0.  1.
          5    1    4    4  502    0  0.41640848867E+02  0.13309880249E+02 -0.97880785455E+03  0.97979488636E+03  0.47000000000E+01 0. -1.
         -5    1    4    4    0  502 -0.21269871107E+02  0.33962996664E+02 -0.10627475152E+03  0.11367631842E+03  0.47000000000E+01 0. -1.
<mgrwt>
<rscale>  0 0.27666432E+03</rscale>
<asrwt>0</asrwt>
<pdfrwt beam="1">  1       21 0.10646994E-02 0.27666432E+03</pdfrwt>
<pdfrwt beam="2">  1       21 0.42539524E+00 0.27666432E+03</pdfrwt>
<totfact> 0.18739728E+04</totfact>
</mgrwt>
</event>
<event>
 8    1  0.9175398E-006  0.2778075E+03  0.7546771E-02  0.1096892E+00
         21   -1    0    0  504  503  0.00000000000E+00  0.00000000000E+00  0.46543377971E+03  0.46543377971E+03  0.00000000000E+00 0. -1.
         21   -1    0    0  503  504 -0.00000000000E+00 -0.00000000000E+00 -0.41454351893E+02  0.41454351893E+02  0.00000000000E+00 0. -1.
         25    2    1    2    0    0 -0.29878289639E+02 -0.19137093963E+02  0.12234790139E+03  0.17846006778E+03  0.12498018347E+03 0.  0.
         25    2    1    2    0    0  0.29878289639E+02  0.19137093963E+02  0.30163152642E+03  0.32842806382E+03  0.12499789924E+03 0.  0.
          5    1    3    3  501    0  0.99613553368E+01 -0.10914305111E+01 -0.23578924560E+02  0.26047562345E+02  0.47000000000E+01 0. -1.
         -5    1    3    3    0  501 -0.39839644976E+02 -0.18045663452E+02  0.14592682595E+03  0.15241250544E+03  0.47000000000E+01 0. -1.
          5    1    4    4  502    0 -0.11182766297E+02 -0.42763132029E+02  0.54481734896E+02  0.70314217342E+02  0.47000000000E+01 0. -1.
         -5    1    4    4    0  502  0.41061055937E+02  0.61900225992E+02  0.24714979153E+03  0.25811384648E+03  0.47000000000E+01 0. -1.
<mgrwt>
<rscale>  0 0.27780753E+03</rscale>
<asrwt>0</asrwt>
<pdfrwt beam="1">  1       21 0.71605193E-01 0.27780753E+03</pdfrwt>
<pdfrwt beam="2">  1       21 0.63775929E-02 0.27780753E+03</pdfrwt>
<totfact> 0.30632195E+05</totfact>
</mgrwt>
</event>
<event>
 8    1  0.9175398E-006  0.3088727E+03  0.7546771E-02  0.1080887E+00
         21   -1    0    0  504  503  0.00000000000E+00  0.00000000000E+00  0.65191509058E+03  0.65191509058E+03  0.00000000000E+00 0. -1.
         21   -1    0    0  503  504 -0.00000000000E+00 -0.00000000000E+00 -0.36585413333E+02  0.36585413333E+02  0.00000000000E+00 0. -1.
         25    2    1    2    0    0 -0.73815367634E+02 -0.16365371543E+02  0.41927958680E+03  0.44400136347E+03  0.12500121990E+03 0.  0.
         25    2    1    2    0    0  0.73815367634E+02  0.16365371543E+02  0.19605009045E+03  0.24449914044E+03  0.12501063085E+03 0.  0.
          5    1    3    3  501    0 -0.18461351145E+02  0.36764368547E+01  0.35931118283E+03  0.35983462004E+03  0.47000000000E+01 0. -1.
         -5    1    3    3    0  501 -0.55354016488E+02 -0.20041808397E+02  0.59968403968E+02  0.84166743431E+02  0.47000000000E+01 0. -1.
          5    1    4    4  502    0  0.10246538438E+03  0.37790761294E+02  0.15727130374E+03  0.19152976170E+03  0.47000000000E+01 0. -1.
         -5    1    4    4    0  502 -0.28650016749E+02 -0.21425389752E+02  0.38778786705E+02  0.52969378739E+02  0.47000000000E+01 0. -1.
<mgrwt>
<rscale>  0 0.30887268E+03</rscale>
<asrwt>0</asrwt>
<pdfrwt beam="1">  1       21 0.10029462E+00 0.30887268E+03</pdfrwt>
<pdfrwt beam="2">  1       21 0.56285256E-02 0.30887268E+03</pdfrwt>
<totfact> 0.17300004E+05</totfact>
</mgrwt>
</event>
<event>
 8    1  0.9175398E-006  0.3332717E+03  0.7546771E-02  0.1069698E+00
         21   -1    0    0  504  503  0.00000000000E+00  0.00000000000E+00  0.32568648129E+02  0.32568648129E+02  0.00000000000E+00 0.  1.
         21   -1    0    0  503  504 -0.00000000000E+00 -0.00000000000E+00 -0.85258380926E+03  0.85258380926E+03  0.00000000000E+00 0.  1.
         25    2    1    2    0    0  0.10719768048E+02  0.10214271446E+03 -0.30414083811E+03  0.34449249183E+03  0.12500151990E+03 0.  0.
         25    2    1    2    0    0 -0.10719768048E+02 -0.10214271446E+03 -0.51587432302E+03  0.54065996556E+03  0.12505532240E+03 0.  0.
          5    1    3    3  501    0  0.87001626256E+01  0.12603186576E+03 -0.19314184180E+03  0.23083670651E+03  0.47000000000E+01 0.  1.
         -5    1    3    3    0  501  0.20196054226E+01 -0.23889151302E+02 -0.11099899631E+03  0.11365578532E+03  0.47000000000E+01 0.  1.
          5    1    4    4  502    0 -0.10945050435E+02 -0.34740534699E+02 -0.42916756004E+03  0.43073609492E+03  0.47000000000E+01 0.  1.
         -5    1    4    4    0  502  0.22528238725E+00 -0.67402179759E+02 -0.86706762979E+02  0.10992387063E+03  0.47000000000E+01 0.  1.
<mgrwt>
<rscale>  0 0.33327167E+03</rscale>
<asrwt>0</asrwt>
<pdfrwt beam="1">  1       21 0.50105623E-02 0.33327167E+03</pdfrwt>
<pdfrwt beam="2">  1       21 0.13116671E+00 0.33327167E+03</pdfrwt>
<totfact> 0.10767204E+05</totfact>
</mgrwt>
</event>
<event>
 8    1  0.9175398E-006  0.2909022E+03  0.7546771E-02  0.1089879E+00
         21   -1    0    0  504  503  0.00000000000E+00  0.00000000000E+00  0.57849254247E+03  0.57849254247E+03  0.00000000000E+00 0. -1.
         21   -1    0    0  503  504 -0.00000000000E+00 -0.00000000000E+00 -0.36570941064E+02  0.36570941064E+02  0.00000000000E+00 0. -1.
         25    2    1    2    0    0  0.56265311965E+02  0.45905595157E+02  0.23706319026E+03  0.27766268524E+03  0.12499800640E+03 0.  0.
         25    2    1    2    0    0 -0.56265311965E+02 -0.45905595157E+02  0.30485841115E+03  0.33740079829E+03  0.12501015496E+03 0.  0.
          5    1    3    3  501    0 -0.30414694624E+02 -0.16599581222E+02  0.83397770464E+02  0.90431619825E+02  0.47000000000E+01 0.  1.
         -5    1    3    3    0  501  0.86680006590E+02  0.62505176379E+02  0.15366541979E+03  0.18723106541E+03  0.47000000000E+01 0.  1.
          5    1    4    4  502    0 -0.91240910889E+02 -0.79249102630E+01  0.17492538665E+03  0.19750617437E+03  0.47000000000E+01 0.  1.
         -5    1    4    4    0  502  0.34975598924E+02 -0.37980684894E+02  0.12993302450E+03  0.13989462392E+03  0.47000000000E+01 0.  1.
<mgrwt>
<rscale>  0 0.29090216E+03</rscale>
<asrwt>0</asrwt>
<pdfrwt beam="1">  1       21 0.88998846E-01 0.29090216E+03</pdfrwt>
<pdfrwt beam="2">  1       21 0.56262991E-02 0.29090216E+03</pdfrwt>
<totfact> 0.23076102E+05</totfact>
</mgrwt>
</event>
<event>
 8    1  0.9175398E-006  0.3109183E+03  0.7546771E-02  0.1079907E+00
         21   -1    0    0  504  503  0.00000000000E+00  0.00000000000E+00  0.32197949318E+03  0.32197949318E+03  0.00000000000E+00 0.  1.
         21   -1    0    0  503  504 -0.00000000000E+00 -0.00000000000E+00 -0.75059279077E+02  0.75059279077E+02  0.00000000000E+00 0.  1.
         25    2    1    2    0    0  0.56172415787E+02  0.62353103558E+02  0.74017548516E+02  0.16777161081E+03  0.12500186434E+03 0.  0.
         25    2    1    2    0    0 -0.56172415787E+02 -0.62353103558E+02  0.17290266558E+03  0.22926716144E+03  0.12499939892E+03 0.  0.
          5    1    3    3  501    0  0.34040109627E+02  0.61902294286E+02  0.10667934727E+03  0.12803591775E+03  0.47000000000E+01 0. -1.
         -5    1    3    3    0  501  0.22132306160E+02  0.45080927197E+00 -0.32661798753E+02  0.39735693058E+02  0.47000000000E+01 0. -1.
          5    1    4    4  502    0 -0.41591365484E+01  0.19148091406E+02 -0.98747901575E+01  0.22439904233E+02  0.47000000000E+01 0. -1.
         -5    1    4    4    0  502 -0.52013279239E+02 -0.81501194964E+02  0.18277745574E+03  0.20682725721E+03  0.47000000000E+01 0. -1.
<mgrwt>
<rscale>  0 0.31091831E+03</rscale>
<asrwt>0</asrwt>
<pdfrwt beam="1">  1       21 0.49535306E-01 0.31091831E+03</pdfrwt>
<pdfrwt beam="2">  1       21 0.11547582E-01 0.31091831E+03</pdfrwt>
<totfact> 0.23701851E+05</totfact>
</mgrwt>
</event>
<event>
 8    1  0.9175398E-006  0.3631121E+03  0.7546771E-02  0.1057358E+00
         21   -1    0    0  504  503  0.00000000000E+00  0.00000000000E+00  0.11262631684E+03  0.11262631684E+03  0.00000000000E+00 0.  1.
         21   -1    0    0  503  504 -0.00000000000E+00 -0.00000000000E+00 -0.29267220500E+03  0.29267220500E+03  0.00000000000E+00 0.  1.
         25    2    1    2    0    0 -0.27689394447E+02 -0.45071508690E+02  0.44567664873E+02  0.14285896636E+03  0.12499705619E+03 0.  0.
         25    2    1    2    0    0  0.27689394447E+02  0.45071508690E+02 -0.22461355303E+03  0.26243955549E+03  0.12500051447E+03 0.  0.
          5    1    3    3  501    0 -0.51406098722E+02 -0.65677023203E+02 -0.53321812367E+01  0.83705319541E+02  0.47000000000E+01 0.  1.
         -5    1    3    3    0  501  0.23716704275E+02  0.20605514513E+02  0.49899846110E+02  0.59153646818E+02  0.47000000000E+01 0.  1.
          5    1    4    4  502    0  0.13546965358E+01 -0.75286354423E+01 -0.19714280394E+03  0.19734713248E+03  0.47000000000E+01 0. -1.
         -5    1    4    4    0  502  0.26334697911E+02  0.52600144132E+02 -0.27470749092E+02  0.65092423004E+02  0.47000000000E+01 0. -1.
<mgrwt>
<rscale>  0 0.36311206E+03</rscale>
<asrwt>0</asrwt>
<pdfrwt beam="1">  1       21 0.17327126E-01 0.36311206E+03</pdfrwt>
<pdfrwt beam="2">  1       21 0.45026493E-01 0.36311206E+03</pdfrwt>
<totfact> 0.13596848E+05</totfact>
</mgrwt>
</event>
<event>
 8    1  0.9175398E-006  0.2604086E+03  0.7546771E-02  0.1106898E+00
         21   -1    0    0  504  503  0.00000000000E+00  0.00000000000E+00  0.97899276741E+03  0.97899276741E+03  0.00000000000E+00 0. -1.
         21   -1    0    0  503  504 -0.00000000000E+00 -0.00000000000E+00 -0.17316943784E+02  0.17316943784E+02  0.00000000000E+00 0. -1.
         25    2    1    2    0    0  0.24592966589E+02 -0.13187540910E+02  0.56956235955E+03  0.58378490119E+03  0.12499921679E+03 0.  0.
         25    2    1    2    0    0 -0.24592966589E+02  0.13187540910E+02  0.39211346407E+03  0.41252481001E+03  0.12508007404E+03 0.  0.
          5    1    3    3  501    0  0.74880762224E+02  0.18665521219E+01  0.31397487458E+03  0.32282026645E+03  0.47000000000E+01 0.  1.
         -5    1    3    3    0  501 -0.50287795635E+02 -0.15054093032E+02  0.25558748498E+03  0.26096463474E+03  0.47000000000E+01 0.  1.
          5    1    4    4  502    0  0.37066853166E+02 -0.21290602058E+02  0.25087506518E+03  0.25453414244E+03  0.47000000000E+01 0.  1.
         -5    1    4    4    0  502 -0.61659819755E+02  0.34478142969E+02  0.14123839889E+03  0.15799066756E+03  0.47000000000E+01 0.  1.
<mgrwt>
<rscale>  0 0.26040862E+03</rscale>
<asrwt>0</asrwt>
<pdfrwt beam="1">  1       21 0.15061423E+00 0.26040862E+03</pdfrwt>
<pdfrwt beam="2">  1       21 0.26641460E-02 0.26040862E+03</pdfrwt>
<totfact> 0.22203943E+05</totfact>
</mgrwt>
</event>
<event>
 8    1  0.9175398E-006  0.2680682E+03  0.7546771E-02  0.1102390E+00
         21   -1    0    0  504  503  0.00000000000E+00  0.00000000000E+00  0.86646340844E+02  0.86646340844E+02  0.00000000000E+00 0. -1.
         21   -1    0    0  503  504 -0.00000000000E+00 -0.00000000000E+00 -0.20733877530E+03  0.20733877530E+03  0.00000000000E+00 0. -1.
         25    2    1    2    0    0  0.38999312056E+01  0.48104163269E+02 -0.64291971408E+02  0.14861143019E+03  0.12499071808E+03 0.  0.
         25    2    1    2    0    0 -0.38999312056E+01 -0.48104163269E+02 -0.56400463048E+02  0.14537368596E+03  0.12499310521E+03 0.  0.
          5    1    3    3  501    0  0.18332583905E+02  0.69483515803E+02 -0.87689145933E+02  0.11347034377E+03  0.47000000000E+01 0.  1.
         -5    1    3    3    0  501 -0.14432652699E+02 -0.21379352534E+02  0.23397174525E+02  0.35141086415E+02  0.47000000000E+01 0.  1.
          5    1    4    4  502    0 -0.10349193926E+02 -0.31410618464E+02 -0.96010302866E+02  0.10165530495E+03  0.47000000000E+01 0. -1.
         -5    1    4    4    0  502  0.64492627200E+01 -0.16693544805E+02  0.39609839819E+02  0.43718381012E+02  0.47000000000E+01 0. -1.
<mgrwt>
<rscale>  0 0.26806825E+03</rscale>
<asrwt>0</asrwt>
<pdfrwt beam="1">  1       21 0.13330206E-01 0.26806825E+03</pdfrwt>
<pdfrwt beam="2">  1       21 0.31898273E-01 0.26806825E+03</pdfrwt>
<totfact> 0.45224934E+05</totfact>
</mgrwt>
</event>
<event>
 8    1  0.9175398E-006  0.3758177E+03  0.7546771E-02  0.1052490E+00
         21   -1    0    0  504  503  0.00000000000E+00  0.00000000000E+00  0.16507592723E+04  0.16507592723E+04  0.00000000000E+00 0. -1.
         21   -1    0    0  503  504 -0.00000000000E+00 -0.00000000000E+00 -0.21389995212E+02  0.21389995212E+02  0.00000000000E+00 0. -1.
         25    2    1    2    0    0  0.44949896884E+02  0.79056349673E+02  0.33933651063E+03  0.37288707189E+03  0.12500040513E+03 0.  0.
         25    2    1    2    0    0 -0.44949896884E+02 -0.79056349673E+02  0.12900327664E+04  0.12992621956E+04  0.12500925877E+03 0.  0.
          5    1    3    3  501    0  0.34451443023E+02  0.10649679121E+03  0.18961009603E+03  0.22023293800E+03  0.47000000000E+01 0. -1.
         -5    1    3    3    0  501  0.10498453861E+02 -0.27440441533E+02  0.14972641461E+03  0.15265413390E+03  0.47000000000E+01 0. -1.
          5    1    4    4  502    0 -0.56635223713E+02  0.41446856412E+01  0.80251685588E+03  0.80453720918E+03  0.47000000000E+01 0. -1.
         -5    1    4    4    0  502  0.11685326829E+02 -0.83201035315E+02  0.48751591056E+03  0.49472498642E+03  0.47000000000E+01 0. -1.
<mgrwt>
<rscale>  0 0.37581768E+03</rscale>
<asrwt>0</asrwt>
<pdfrwt beam="1">  1       21 0.25396286E+00 0.37581768E+03</pdfrwt>
<pdfrwt beam="2">  1       21 0.32907698E-02 0.37581768E+03</pdfrwt>
<totfact> 0.30687778E+04</totfact>
</mgrwt>
</event>
<event>
 8    1  0.9175398E-006  0.2754776E+03  0.7546771E-02  0.1098185E+00
         21   -1    0    0  504  503  0.00000000000E+00  0.00000000000E+00  0.52075175499E+03  0.52075175499E+03  0.00000000000E+00 0.  1.
         21   -1    0    0  503  504 -0.00000000000E+00 -0.00000000000E+00 -0.36431900470E+02  0.36431900470E+02  0.00000000000E+00 0.  1.
         25    2    1    2    0    0  0.56009098039E+02  0.14454638227E+02  0.24433718234E+03  0.28048624407E+03  0.12500367517E+03 0.  0.
         25    2    1    2    0    0 -0.56009098039E+02 -0.14454638227E+02  0.23998267218E+03  0.27669741139E+03  0.12499527550E+03 0.  0.
          5    1    3    3  501    0  0.15503634232E+02  0.23478254910E+02  0.23622616977E+03  0.23794218712E+03  0.47000000000E+01 0.  1.
         -5    1    3    3    0  501  0.40505463807E+02 -0.90236166823E+01  0.81110125720E+01  0.42544056943E+02  0.47000000000E+01 0.  1.
          5    1    4    4  502    0  0.84656547273E+01 -0.30339653144E+02  0.19203631574E+03  0.19465918531E+03  0.47000000000E+01 0.  1.
         -5    1    4    4    0  502 -0.64474752767E+02  0.15885014916E+02  0.47946356433E+02  0.82038226080E+02  0.47000000000E+01 0.  1.
<mgrwt>
<rscale>  0 0.27547759E+03</rscale>
<asrwt>0</asrwt>
<pdfrwt beam="1">  1       21 0.80115649E-01 0.27547759E+03</pdfrwt>
<pdfrwt beam="2">  1       21 0.56049081E-02 0.27547759E+03</pdfrwt>
<totfact> 0.29717055E+05</totfact>
</mgrwt>
</event>
<event>
 8    1  0.9175398E-006  0.2730063E+03  0.7546771E-02  0.1099571E+00
         21   -1    0    0  504  503  0.00000000000E+00  0.00000000000E+00  0.80504403435E+03  0.80504403435E+03  0.00000000000E+00 0.  1.
         21   -1    0    0  503  504 -0.00000000000E+00 -0.00000000000E+00 -0.23145453711E+02  0.23145453711E+02  0.00000000000E+00 0.  1.
         25    2    1    2    0    0 -0.35365748859E+02 -0.30561297013E+02  0.47803961583E+03  0.49631663100E+03  0.12499437923E+03 0.  0.
         25    2    1    2    0    0  0.35365748859E+02  0.30561297013E+02  0.30385896481E+03  0.33187285706E+03  0.12499837475E+03 0.  0.
          5    1    3    3  501    0 -0.43105358615E+02 -0.56752905276E+02  0.14021490241E+03  0.15735715128E+03  0.47000000000E+01 0.  1.
         -5    1    3    3    0  501  0.77396097565E+01  0.26191608263E+02  0.33782471341E+03  0.33895947972E+03  0.47000000000E+01 0.  1.
          5    1    4    4  502    0 -0.75191543161E+01  0.11341922167E+02 -0.79916606474E+01  0.16466132514E+02  0.47000000000E+01 0.  1.
         -5    1    4    4    0  502  0.42884903175E+02  0.19219374846E+02  0.31185062546E+03  0.31540672454E+03  0.47000000000E+01 0.  1.
<mgrwt>
<rscale>  0 0.27300630E+03</rscale>
<asrwt>0</asrwt>
<pdfrwt beam="1">  1       21 0.12385291E+00 0.27300630E+03</pdfrwt>
<pdfrwt beam="2">  1       21 0.35608396E-02 0.27300630E+03</pdfrwt>
<totfact> 0.22636496E+05</totfact>
</mgrwt>
</event>
<event>
 8    1  0.9175398E-006  0.3321311E+03  0.7546771E-02  0.1070198E+00
         21   -1    0    0  504  503  0.00000000000E+00  0.00000000000E+00  0.23021766813E+02  0.23021766813E+02  0.00000000000E+00 0.  1.
         21   -1    0    0  503  504 -0.00000000000E+00 -0.00000000000E+00 -0.11978994529E+04  0.11978994529E+04  0.00000000000E+00 0.  1.
         25    2    1    2    0    0  0.36651246115E+02  0.75821200486E+02 -0.84396975925E+03  0.85732227713E+03  0.12499745615E+03 0.  0.
         25    2    1    2    0    0 -0.36651246115E+02 -0.75821200486E+02 -0.33090792679E+03  0.36359894254E+03  0.12494785600E+03 0.  0.
          5    1    3    3  501    0  0.76598346903E+02  0.74867515120E+02 -0.52583965755E+03  0.53665807272E+03  0.47000000000E+01 0. -1.
         -5    1    3    3    0  501 -0.39947100788E+02  0.95368536581E+00 -0.31813010170E+03  0.32066420440E+03  0.47000000000E+01 0. -1.
          5    1    4    4  502    0 -0.47776436743E+02  0.14313054203E+02 -0.61876322336E+02  0.79612943007E+02  0.47000000000E+01 0.  1.
         -5    1    4    4    0  502  0.11125190628E+02 -0.90134254688E+02 -0.26903160446E+03  0.28398599953E+03  0.47000000000E+01 0.  1.
<mgrwt>
<rscale>  0 0.33213107E+03</rscale>
<asrwt>0</asrwt>
<pdfrwt beam="1">  1       21 0.35418096E-02 0.33213107E+03</pdfrwt>
<pdfrwt beam="2">  1       21 0.18429226E+00 0.33213107E+03</pdfrwt>
<totfact> 0.76742255E+04</totfact>
</mgrwt>
</event>
<event>
 8    1  0.9175398E-006  0.4108566E+03  0.7546771E-02  0.1040084E+00
         21   -1    0    0  504  503  0.00000000000E+00  0.00000000000E+00  0.34536455503E+03  0.34536455503E+03  0.00000000000E+00 0. -1.
         21   -1    0    0  503  504 -0.00000000000E+00 -0.00000000000E+00 -0.12219202544E+03  0.12219202544E+03  0.00000000000E+00 0. -1.
         25    2    1    2    0    0  0.77965120584E+02 -0.14141240603E+03  0.86083746169E+02  0.22161123152E+03  0.12500039191E+03 0.  0.
         25    2    1    2    0    0 -0.77965120584E+02  0.14141240603E+03  0.13708878343E+03  0.24594534894E+03  0.12497900431E+03 0.  0.
          5    1    3    3  501    0 -0.30260165690E+02 -0.20031504494E+02 -0.19222131410E+01  0.36643194501E+02  0.47000000000E+01 0.  1.
         -5    1    3    3    0  501  0.10822528627E+03 -0.12138090153E+03  0.88005959310E+02  0.18496803702E+03  0.47000000000E+01 0.  1.
          5    1    4    4  502    0 -0.34862459735E+02  0.87756842162E+02  0.14848103379E+03  0.17602659413E+03  0.47000000000E+01 0. -1.
         -5    1    4    4    0  502 -0.43102660849E+02  0.53655563865E+02 -0.11392250368E+02  0.69918754811E+02  0.47000000000E+01 0. -1.
<mgrwt>
<rscale>  0 0.41085664E+03</rscale>
<asrwt>0</asrwt>
<pdfrwt beam="1">  1       21 0.53133008E-01 0.41085664E+03</pdfrwt>
<pdfrwt beam="2">  1       21 0.18798773E-01 0.41085664E+03</pdfrwt>
<totfact> 0.81393284E+04</totfact>
</mgrwt>
</event>
<event>
 8    1  0.9175398E-006  0.2790651E+03  0.7546771E-02  0.1096201E+00
         21   -1    0    0  504  503  0.00000000000E+00  0.00000000000E+00  0.48790287407E+03  0.48790287407E+03  0.00000000000E+00 0. -1.
         21   -1    0    0  503  504 -0.00000000000E+00 -0.00000000000E+00 -0.39904104670E+02  0.39904104670E+02  0.00000000000E+00 0. -1.
         25    2    1    2    0    0  0.44568981537E+02  0.38349585527E+02  0.18670918764E+03  0.23225524193E+03  0.12500036732E+03 0.  0.
         25    2    1    2    0    0 -0.44568981537E+02 -0.38349585527E+02  0.26128958176E+03  0.29555173681E+03  0.12498599429E+03 0.  0.
          5    1    3    3  501    0 -0.14215569202E+02  0.69281042894E+02  0.10762310588E+03  0.12886725042E+03  0.47000000000E+01 0.  1.
         -5    1    3    3    0  501  0.58784550740E+02 -0.30931457368E+02  0.79086081758E+02  0.10338799151E+03  0.47000000000E+01 0.  1.
          5    1    4    4  502    0 -0.47835424240E+02  0.13239466059E+02  0.29303752987E+02  0.57830019997E+02  0.47000000000E+01 0.  1.
         -5    1    4    4    0  502  0.32664427022E+01 -0.51589051585E+02  0.23198582877E+03  0.23772171681E+03  0.47000000000E+01 0.  1.
<mgrwt>
<rscale>  0 0.27906506E+03</rscale>
<asrwt>0</asrwt>
<pdfrwt beam="1">  1       21 0.75061976E-01 0.27906506E+03</pdfrwt>
<pdfrwt beam="2">  1       21 0.61390934E-02 0.27906506E+03</pdfrwt>
<totfact> 0.29425936E+05</totfact>
</mgrwt>
</event>
<event>
 8    1  0.9175398E-006  0.2794291E+03  0.7546771E-02  0.1096001E+00
         21   -1    0    0  504  503  0.00000000000E+00  0.00000000000E+00  0.53996249492E+03  0.53996249492E+03  0.00000000000E+00 0. -1.
         21   -1    0    0  503  504 -0.00000000000E+00 -0.00000000000E+00 -0.36150940319E+02  0.36150940319E+02  0.00000000000E+00 0. -1.
         25    2    1    2    0    0  0.13112697691E+02 -0.36919436280E+02  0.35211227832E+03  0.37568229854E+03  0.12497657890E+03 0.  0.
         25    2    1    2    0    0 -0.13112697691E+02  0.36919436280E+02  0.15169927628E+03  0.20043113671E+03  0.12499993008E+03 0.  0.
          5    1    3    3  501    0  0.63461413436E+02 -0.24309662011E+02  0.26973278754E+03  0.27820168464E+03  0.47000000000E+01 0. -1.
         -5    1    3    3    0  501 -0.50348715745E+02 -0.12609774269E+02  0.82379490778E+02  0.97480613894E+02  0.47000000000E+01 0. -1.
          5    1    4    4  502    0  0.51784357144E+02  0.80977868295E+01  0.33251453729E+02  0.62249039924E+02  0.47000000000E+01 0.  1.
         -5    1    4    4    0  502 -0.64897054835E+02  0.28821649451E+02  0.11844782255E+03  0.13818209678E+03  0.47000000000E+01 0.  1.
<mgrwt>
<rscale>  0 0.27942907E+03</rscale>
<asrwt>0</asrwt>
<pdfrwt beam="1">  1       21 0.83071147E-01 0.27942907E+03</pdfrwt>
<pdfrwt beam="2">  1       21 0.55616835E-02 0.27942907E+03</pdfrwt>
<totfact> 0.27691344E+05</totfact>
</mgrwt>
</event>
<event>
 8    1  0.9175398E-006  0.3682146E+03  0.7546771E-02  0.1055378E+00
         21   -1    0    0  504  503  0.00000000000E+00  0.00000000000E+00  0.58026677637E+03  0.58026677637E+03  0.00000000000E+00 0.  1.
         21   -1    0    0  503  504 -0.00000000000E+00 -0.00000000000E+00 -0.58413630716E+02  0.58413630716E+02  0.00000000000E+00 0.  1.
         25    2    1    2    0    0 -0.13511866232E+03 -0.36924964919E+01  0.26153064569E+03  0.31983487655E+03  0.12500152874E+03 0.  0.
         25    2    1    2    0    0  0.13511866232E+03  0.36924964919E+01  0.26032249996E+03  0.31884553053E+03  0.12499592361E+03 0.  0.
          5    1    3    3  501    0 -0.12838956069E+03  0.39419373895E+02  0.15822231515E+03  0.20759132290E+03  0.47000000000E+01 0.  1.
         -5    1    3    3    0  501 -0.67291016283E+01 -0.43111870387E+02  0.10330833054E+03  0.11224355365E+03  0.47000000000E+01 0.  1.
          5    1    4    4  502    0  0.11860446859E+03  0.36659119827E+01  0.93508516610E+02  0.15115022845E+03  0.47000000000E+01 0.  1.
         -5    1    4    4    0  502  0.16514193726E+02  0.26584509216E-01  0.16681398335E+03  0.16769530208E+03  0.47000000000E+01 0.  1.
<mgrwt>
<rscale>  0 0.36821455E+03</rscale>
<asrwt>0</asrwt>
<pdfrwt beam="1">  1       21 0.89271808E-01 0.36821455E+03</pdfrwt>
<pdfrwt beam="2">  1       21 0.89867128E-02 0.36821455E+03</pdfrwt>
<totfact> 0.99157429E+04</totfact>
</mgrwt>
</event>
<event>
 8    1  0.9175398E-006  0.2726092E+03  0.7546771E-02  0.1099796E+00
         21   -1    0    0  504  503  0.00000000000E+00  0.00000000000E+00  0.85047751547E+03  0.85047751547E+03  0.00000000000E+00 0.  1.
         21   -1    0    0  503  504 -0.00000000000E+00 -0.00000000000E+00 -0.21845303786E+02  0.21845303786E+02  0.00000000000E+00 0.  1.
         25    2    1    2    0    0  0.21824657118E+01 -0.45083023478E+02  0.31727793104E+03  0.34398198606E+03  0.12498431520E+03 0.  0.
         25    2    1    2    0    0 -0.21824657118E+01  0.45083023478E+02  0.51135428064E+03  0.52834083319E+03  0.12499437398E+03 0.  0.
          5    1    3    3  501    0  0.21945707876E+01 -0.21498848274E+01 -0.11278552449E+02  0.12598963888E+02  0.47000000000E+01 0. -1.
         -5    1    3    3    0  501 -0.12105075821E-01 -0.42933138651E+02  0.32855648349E+03  0.33138302218E+03  0.47000000000E+01 0. -1.
          5    1    4    4  502    0  0.27513380326E+02 -0.10531658608E+02  0.28146719238E+02  0.41014994013E+02  0.47000000000E+01 0. -1.
         -5    1    4    4    0  502 -0.29695846038E+02  0.55614682086E+02  0.48320756140E+03  0.48732583918E+03  0.47000000000E+01 0. -1.
<mgrwt>
<rscale>  0 0.27260917E+03</rscale>
<asrwt>0</asrwt>
<pdfrwt beam="1">  1       21 0.13084267E+00 0.27260917E+03</pdfrwt>
<pdfrwt beam="2">  1       21 0.33608166E-02 0.27260917E+03</pdfrwt>
<totfact> 0.21695871E+05</totfact>
</mgrwt>
</event>
<event>
 8    1  0.9175398E-006  0.4680681E+03  0.7546771E-02  0.1022467E+00
         21   -1    0    0  504  503  0.00000000000E+00  0.00000000000E+00  0.75991429273E+02  0.75991429273E+02  0.00000000000E+00 0. -1.
         21   -1    0    0  503  504 -0.00000000000E+00 -0.00000000000E+00 -0.72076468706E+03  0.72076468706E+03  0.00000000000E+00 0. -1.
         25    2    1    2    0    0 -0.14983018364E+03  0.12894089182E+03 -0.33784257949E+03  0.41089792515E+03  0.12499863546E+03 0.  0.
         25    2    1    2    0    0  0.14983018364E+03 -0.12894089182E+03 -0.30693067830E+03  0.38585819119E+03  0.12492103469E+03 0.  0.
          5    1    3    3  501    0 -0.10119763688E+03  0.11075543039E+03 -0.32381231692E+03  0.35690927931E+03  0.47000000000E+01 0. -1.
         -5    1    3    3    0  501 -0.48632546759E+02  0.18185461424E+02 -0.14030262567E+02  0.53988645835E+02  0.47000000000E+01 0. -1.
          5    1    4    4  502    0  0.62258418198E+02 -0.10866781051E+03 -0.24915715695E+03  0.27890174351E+03  0.47000000000E+01 0.  1.
         -5    1    4    4    0  502  0.87571765443E+02 -0.20273081312E+02 -0.57773521355E+02  0.10695644767E+03  0.47000000000E+01 0.  1.
<mgrwt>
<rscale>  0 0.46806811E+03</rscale>
<asrwt>0</asrwt>
<pdfrwt beam="1">  1       21 0.11690989E-01 0.46806811E+03</pdfrwt>
<pdfrwt beam="2">  1       21 0.11088687E+00 0.46806811E+03</pdfrwt>
<totfact> 0.35677170E+04</totfact>
</mgrwt>
</event>
<event>
 8    1  0.9175398E-006  0.2583175E+03  0.7546771E-02  0.1108158E+00
         21   -1    0    0  504  503  0.00000000000E+00  0.00000000000E+00  0.10663789902E+03  0.10663789902E+03  0.00000000000E+00 0.  1.
         21   -1    0    0  503  504 -0.00000000000E+00 -0.00000000000E+00 -0.15643580404E+03  0.15643580404E+03  0.00000000000E+00 0.  1.
         25    2    1    2    0    0 -0.17254394436E+02 -0.23027754031E+02 -0.95531819269E+01  0.12863471475E+03  0.12501053944E+03 0.  0.
         25    2    1    2    0    0  0.17254394436E+02  0.23027754031E+02 -0.40244723091E+02  0.13443898831E+03  0.12500484893E+03 0.  0.
          5    1    3    3  501    0  0.48063224042E+02 -0.47404985861E+00 -0.29457775195E+02  0.56569857239E+02  0.47000000000E+01 0.  1.
         -5    1    3    3    0  501 -0.65317618477E+02 -0.22553704172E+02  0.19904593268E+02  0.72064857515E+02  0.47000000000E+01 0.  1.
          5    1    4    4  502    0  0.23146607271E+02 -0.24193779121E+02 -0.70265571310E+02  0.77977207489E+02  0.47000000000E+01 0.  1.
         -5    1    4    4    0  502 -0.58922128350E+01  0.47221533152E+02  0.30020848218E+02  0.56461780817E+02  0.47000000000E+01 0.  1.
<mgrwt>
<rscale>  0 0.25831752E+03</rscale>
<asrwt>0</asrwt>
<pdfrwt beam="1">  1       21 0.16405831E-01 0.25831752E+03</pdfrwt>
<pdfrwt beam="2">  1       21 0.24067047E-01 0.25831752E+03</pdfrwt>
<totfact> 0.53578184E+05</totfact>
</mgrwt>
</event>
<event>
 8    1  0.9175398E-006  0.2774432E+03  0.7546771E-02  0.1097094E+00
         21   -1    0    0  504  503  0.00000000000E+00  0.00000000000E+00  0.12322151962E+03  0.12322151962E+03  0.00000000000E+00 0. -1.
         21   -1    0    0  503  504 -0.00000000000E+00 -0.00000000000E+00 -0.15617147855E+03  0.15617147855E+03  0.00000000000E+00 0. -1.
         25    2    1    2    0    0 -0.15559164115E+01  0.56717409687E+02  0.36113690863E+01  0.13732759989E+03  0.12500616891E+03 0.  0.
         25    2    1    2    0    0  0.15559164115E+01 -0.56717409687E+02 -0.36561328017E+02  0.14206539829E+03  0.12500624483E+03 0.  0.
          5    1    3    3  501    0 -0.41685771362E+02  0.64840706715E+02  0.35715287218E+02  0.85086382708E+02  0.47000000000E+01 0. -1.
         -5    1    3    3    0  501  0.40129854950E+02 -0.81232970276E+01 -0.32103918131E+02  0.52241217179E+02  0.47000000000E+01 0. -1.
          5    1    4    4  502    0 -0.59708625589E+02 -0.14760726124E+02 -0.25901385186E+02  0.66902696209E+02  0.47000000000E+01 0.  1.
         -5    1    4    4    0  502  0.61264542001E+02 -0.41956683563E+02 -0.10659942832E+02  0.75162702076E+02  0.47000000000E+01 0.  1.
<mgrwt>
<rscale>  0 0.27744323E+03</rscale>
<asrwt>0</asrwt>
<pdfrwt beam="1">  1       21 0.18957157E-01 0.27744323E+03</pdfrwt>
<pdfrwt beam="2">  1       21 0.24026381E-01 0.27744323E+03</pdfrwt>
<totfact> 0.40945194E+05</totfact>
</mgrwt>
</event>
<event>
 8    1  0.9175398E-006  0.3331120E+03  0.7546771E-02  0.1069768E+00
         21   -1    0    0  504  503  0.00000000000E+00  0.00000000000E+00  0.19183971651E+02  0.19183971651E+02  0.00000000000E+00 0.  1.
         21   -1    0    0  503  504 -0.00000000000E+00 -0.00000000000E+00 -0.14460458127E+04  0.14460458127E+04  0.00000000000E+00 0.  1.
         25    2    1    2    0    0 -0.50140609274E+02 -0.89779519670E+02 -0.88607351765E+03  0.90073666832E+03  0.12500329644E+03 0.  0.
         25    2    1    2    0    0  0.50140609274E+02  0.89779519670E+02 -0.54078832343E+03  0.56449311606E+03  0.12500409784E+03 0.  0.
          5    1    3    3  501    0  0.11295470995E+02 -0.14294381586E+02 -0.14554305873E+02  0.23787282934E+02  0.47000000000E+01 0. -1.
         -5    1    3    3    0  501 -0.61436080268E+02 -0.75485138084E+02 -0.87151921178E+03  0.87694938539E+03  0.47000000000E+01 0. -1.
          5    1    4    4  502    0  0.71781420045E+02  0.65095513804E+02 -0.51031842915E+03  0.51945835956E+03  0.47000000000E+01 0.  1.
         -5    1    4    4    0  502 -0.21640810771E+02  0.24684005866E+02 -0.30469894277E+02  0.45034756508E+02  0.47000000000E+01 0.  1.
<mgrwt>
<rscale>  0 0.33311200E+03</rscale>
<asrwt>0</asrwt>
<pdfrwt beam="1">  1       21 0.29513801E-02 0.33311200E+03</pdfrwt>
<pdfrwt beam="2">  1       21 0.22246860E+00 0.33311200E+03</pdfrwt>
<totfact> 0.58615722E+04</totfact>
</mgrwt>
</event>
<event>
 8    1  0.9175398E-006  0.2677636E+03  0.7546771E-02  0.1102566E+00
         21   -1    0    0  504  503  0.00000000000E+00  0.00000000000E+00  0.17399887311E+02  0.17399887311E+02  0.00000000000E+00 0.  1.
         21   -1    0    0  503  504 -0.00000000000E+00 -0.00000000000E+00 -0.10301409892E+04  0.10301409892E+04  0.00000000000E+00 0.  1.
         25    2    1    2    0    0  0.23920944876E+02  0.17779156816E+02 -0.35937436947E+03  0.38165767821E+03  0.12499734348E+03 0.  0.
         25    2    1    2    0    0 -0.23920944876E+02 -0.17779156816E+02 -0.65336673244E+03  0.66588319833E+03  0.12499614689E+03 0.  0.
          5    1    3    3  501    0 -0.79871175321E+01  0.21017944912E+02 -0.22667500488E+01  0.23081945555E+02  0.47000000000E+01 0.  1.
         -5    1    3    3    0  501  0.31908062408E+02 -0.32387880958E+01 -0.35710761943E+03  0.35857573265E+03  0.47000000000E+01 0.  1.
          5    1    4    4  502    0 -0.50231216034E+02 -0.46121951083E+02 -0.21081398626E+03  0.22161912427E+03  0.47000000000E+01 0. -1.
         -5    1    4    4    0  502  0.26310271158E+02  0.28342794267E+02 -0.44255274618E+03  0.44426407407E+03  0.47000000000E+01 0. -1.
<mgrwt>
<rscale>  0 0.26776361E+03</rscale>
<asrwt>0</asrwt>
<pdfrwt beam="1">  1       21 0.26769056E-02 0.26776361E+03</pdfrwt>
<pdfrwt beam="2">  1       21 0.15848324E+00 0.26776361E+03</pdfrwt>
<totfact> 0.19158866E+05</totfact>
</mgrwt>
</event>
<event>
 8    1  0.9175398E-006  0.3871678E+03  0.7546771E-02  0.1048316E+00
         21   -1    0    0  504  503  0.00000000000E+00  0.00000000000E+00  0.65217593897E+03  0.65217593897E+03  0.00000000000E+00 0. -1.
         21   -1    0    0  503  504 -0.00000000000E+00 -0.00000000000E+00 -0.57461078012E+02  0.57461078012E+02  0.00000000000E+00 0. -1.
         25    2    1    2    0    0 -0.76009703645E+02  0.12672050131E+03  0.28990093235E+03  0.34856797840E+03  0.12498609718E+03 0.  0.
         25    2    1    2    0    0  0.76009703645E+02 -0.12672050131E+03  0.30481392861E+03  0.36106903858E+03  0.12499503608E+03 0.  0.
          5    1    3    3  501    0  0.11417171763E+02  0.49128997336E+02  0.20105587438E+02  0.54500778312E+02  0.47000000000E+01 0. -1.
         -5    1    3    3    0  501 -0.87426875408E+02  0.77591503978E+02  0.26979534491E+03  0.29406720009E+03  0.47000000000E+01 0. -1.
          5    1    4    4  502    0 -0.72189537411E+01 -0.64490524885E+02  0.39560941237E+02  0.76146563708E+02  0.47000000000E+01 0. -1.
         -5    1    4    4    0  502  0.83228657386E+02 -0.62229976430E+02  0.26525298737E+03  0.28492247487E+03  0.47000000000E+01 0. -1.
<mgrwt>
<rscale>  0 0.38716783E+03</rscale>
<asrwt>0</asrwt>
<pdfrwt beam="1">  1       21 0.10033475E+00 0.38716783E+03</pdfrwt>
<pdfrwt beam="2">  1       21 0.88401663E-02 0.38716783E+03</pdfrwt>
<totfact> 0.76924509E+04</totfact>
</mgrwt>
</event>
<event>
 8    1  0.9175398E-006  0.2883655E+03  0.7546771E-02  0.1091206E+00
         21   -1    0    0  504  503  0.00000000000E+00  0.00000000000E+00  0.45304054604E+03  0.45304054604E+03  0.00000000000E+00 0.  1.
         21   -1    0    0  503  504 -0.00000000000E+00 -0.00000000000E+00 -0.45886997803E+02  0.45886997803E+02  0.00000000000E+00 0.  1.
         25    2    1    2    0    0 -0.31472407328E+01 -0.60384479568E+02  0.27078227911E+03  0.30432310282E+03  0.12503326650E+03 0.  0.
         25    2    1    2    0    0  0.31472407328E+01  0.60384479568E+02  0.13637126913E+03  0.19460444103E+03  0.12497029618E+03 0.  0.
          5    1    3    3  501    0 -0.22750552469E+02 -0.88459906731E+02  0.12737495669E+03  0.15680947780E+03  0.47000000000E+01 0. -1.
         -5    1    3    3    0  501  0.19603311736E+02  0.28075427163E+02  0.14340732243E+03  0.14751362502E+03  0.47000000000E+01 0. -1.
          5    1    4    4  502    0  0.44676049368E+02  0.66776173032E+02  0.12846348164E+03  0.15159143375E+03  0.47000000000E+01 0. -1.
         -5    1    4    4    0  502 -0.41528808635E+02 -0.63916934643E+01  0.79077874911E+01  0.43013007277E+02  0.47000000000E+01 0. -1.
<mgrwt>
<rscale>  0 0.28836554E+03</rscale>
<asrwt>0</asrwt>
<pdfrwt beam="1">  1       21 0.69698543E-01 0.28836554E+03</pdfrwt>
<pdfrwt beam="2">  1       21 0.70595384E-02 0.28836554E+03</pdfrwt>
<totfact> 0.27205697E+05</totfact>
</mgrwt>
</event>
<event>
 8    1  0.9175398E-006  0.3819144E+03  0.7546771E-02  0.1050228E+00
         21   -1    0    0  504  503  0.00000000000E+00  0.00000000000E+00  0.10266769084E+03  0.10266769084E+03  0.00000000000E+00 0.  1.
         21   -1    0    0  503  504 -0.00000000000E+00 -0.00000000000E+00 -0.35517168584E+03  0.35517168584E+03  0.00000000000E+00 0.  1.
         25    2    1    2    0    0  0.27764423766E+02  0.41198558842E+01 -0.29598049773E+03  0.32251920131E+03  0.12500537483E+03 0.  0.
         25    2    1    2    0    0 -0.27764423766E+02 -0.41198558842E+01  0.43476502729E+02  0.13532017537E+03  0.12503402390E+03 0.  0.
          5    1    3    3  501    0 -0.47654630726E+02  0.78824250747E+01 -0.78885329105E+02  0.92617933483E+02  0.47000000000E+01 0.  1.
         -5    1    3    3    0  501  0.75419054492E+02 -0.37625691905E+01 -0.21709516863E+03  0.22990126783E+03  0.47000000000E+01 0.  1.
          5    1    4    4  502    0  0.49671112129E+02 -0.62947146826E+01  0.21229824269E+02  0.54586062796E+02  0.47000000000E+01 0.  1.
         -5    1    4    4    0  502 -0.77435535895E+02  0.21748587984E+01  0.22246678460E+02  0.80734112571E+02  0.47000000000E+01 0.  1.
<mgrwt>
<rscale>  0 0.38191442E+03</rscale>
<asrwt>0</asrwt>
<pdfrwt beam="1">  1       21 0.15795029E-01 0.38191442E+03</pdfrwt>
<pdfrwt beam="2">  1       21 0.54641799E-01 0.38191442E+03</pdfrwt>
<totfact> 0.10683851E+05</totfact>
</mgrwt>
</event>
<event>
 8    1  0.9175398E-006  0.2640770E+03  0.7546771E-02  0.1104718E+00
         21   -1    0    0  504  503  0.00000000000E+00  0.00000000000E+00  0.45684844861E+03  0.45684844861E+03  0.00000000000E+00 0. -1.
         21   -1    0    0  503  504 -0.00000000000E+00 -0.00000000000E+00 -0.38161826523E+02  0.38161826523E+02  0.00000000000E+00 0. -1.
         25    2    1    2    0    0  0.23038190513E+02 -0.74202268359E+01  0.27490754351E+03  0.30296205146E+03  0.12500411656E+03 0.  0.
         25    2    1    2    0    0 -0.23038190513E+02  0.74202268359E+01  0.14377907857E+03  0.19204822367E+03  0.12499711513E+03 0.  0.
          5    1    3    3  501    0  0.56462782133E+02  0.63260849282E+01  0.25527852227E+03  0.26156696858E+03  0.47000000000E+01 0. -1.
         -5    1    3    3    0  501 -0.33424591621E+02 -0.13746311764E+02  0.19629021240E+02  0.41395082884E+02  0.47000000000E+01 0. -1.
          5    1    4    4  502    0  0.17184133108E+02 -0.26984715945E+02  0.13421680033E+03  0.13805690427E+03  0.47000000000E+01 0.  1.
         -5    1    4    4    0  502 -0.40222323621E+02  0.34404942781E+02  0.95622782388E+01  0.53991319398E+02  0.47000000000E+01 0.  1.
<mgrwt>
<rscale>  0 0.26407704E+03</rscale>
<asrwt>0</asrwt>
<pdfrwt beam="1">  1       21 0.70284373E-01 0.26407704E+03</pdfrwt>
<pdfrwt beam="2">  1       21 0.58710506E-02 0.26407704E+03</pdfrwt>
<totfact> 0.36944005E+05</totfact>
</mgrwt>
</event>
<event>
 8    1  0.9175398E-006  0.3479449E+03  0.7546771E-02  0.1063462E+00
         21   -1    0    0  504  503  0.00000000000E+00  0.00000000000E+00  0.29118956971E+03  0.29118956971E+03  0.00000000000E+00 0. -1.
         21   -1    0    0  503  504 -0.00000000000E+00 -0.00000000000E+00 -0.10394055581E+03  0.10394055581E+03  0.00000000000E+00 0. -1.
         25    2    1    2    0    0  0.31706508083E+02 -0.96480492807E+02  0.16837060459E+03  0.23297480388E+03  0.12495923578E+03 0.  0.
         25    2    1    2    0    0 -0.31706508083E+02  0.96480492807E+02  0.18878409318E+02  0.16215532164E+03  0.12499666336E+03 0.  0.
          5    1    3    3  501    0 -0.18641656945E+02 -0.32611772049E+02 -0.80061977601E+01  0.38694033809E+02  0.47000000000E+01 0. -1.
         -5    1    3    3    0  501  0.50348165028E+02 -0.63868720757E+02  0.17637680235E+03  0.19428077007E+03  0.47000000000E+01 0. -1.
          5    1    4    4  502    0 -0.75613430163E+02  0.34062869683E+02 -0.13155620471E+01  0.83075210596E+02  0.47000000000E+01 0. -1.
         -5    1    4    4    0  502  0.43906922080E+02  0.62417623124E+02  0.20193971365E+02  0.79080111042E+02  0.47000000000E+01 0. -1.
<mgrwt>
<rscale>  0 0.34794486E+03</rscale>
<asrwt>0</asrwt>
<pdfrwt beam="1">  1       21 0.44798395E-01 0.34794486E+03</pdfrwt>
<pdfrwt beam="2">  1       21 0.15990855E-01 0.34794486E+03</pdfrwt>
<totfact> 0.16007180E+05</totfact>
</mgrwt>
</event>
<event>
 8    1  0.9175398E-006  0.2781545E+03  0.7546771E-02  0.1096701E+00
         21   -1    0    0  504  503  0.00000000000E+00  0.00000000000E+00  0.51488974558E+03  0.51488974558E+03  0.00000000000E+00 0. -1.
         21   -1    0    0  503  504 -0.00000000000E+00 -0.00000000000E+00 -0.37566263207E+02  0.37566263207E+02  0.00000000000E+00 0. -1.
         25    2    1    2    0    0 -0.28992715967E+01 -0.45873312544E+02  0.31823953988E+03  0.34498284408E+03  0.12499596548E+03 0.  0.
         25    2    1    2    0    0  0.28992715967E+01  0.45873312544E+02  0.15908394249E+03  0.20747316471E+03  0.12499858693E+03 0.  0.
          5    1    3    3  501    0  0.39789351500E+02  0.17647053096E+02  0.19486638276E+03  0.19972382959E+03  0.47000000000E+01 0.  1.
         -5    1    3    3    0  501 -0.42688623096E+02 -0.63520365640E+02  0.12337315712E+03  0.14525901449E+03  0.47000000000E+01 0.  1.
          5    1    4    4  502    0 -0.12117212597E+02 -0.85708450594E+01 -0.16669252947E+02  0.22808775065E+02  0.47000000000E+01 0. -1.
         -5    1    4    4    0  502  0.15016484194E+02  0.54444157604E+02  0.17575319544E+03  0.18466438964E+03  0.47000000000E+01 0. -1.
<mgrwt>
<rscale>  0 0.27815452E+03</rscale>
<asrwt>0</asrwt>
<pdfrwt beam="1">  1       21 0.79213802E-01 0.27815452E+03</pdfrwt>
<pdfrwt beam="2">  1       21 0.57794255E-02 0.27815452E+03</pdfrwt>
<totfact> 0.28909962E+05</totfact>
</mgrwt>
</event>
<event>
 8    1  0.9175398E-006  0.3273006E+03  0.7546771E-02  0.1072338E+00
         21   -1    0    0  504  503  0.00000000000E+00  0.00000000000E+00  0.95053753423E+03  0.95053753423E+03  0.00000000000E+00 0.  1.
         21   -1    0    0  503  504 -0.00000000000E+00 -0.00000000000E+00 -0.28175019386E+02  0.28175019386E+02  0.00000000000E+00 0.  1.
         25    2    1    2    0    0  0.46245300782E+02  0.86939736109E+02  0.57541490758E+03  0.59701336103E+03  0.12500196730E+03 0.  0.
         25    2    1    2    0    0 -0.46245300782E+02 -0.86939736109E+02  0.34694760726E+03  0.38169919258E+03  0.12499794347E+03 0.  0.
          5    1    3    3  501    0 -0.15354870339E+01 -0.25935189878E+02  0.41478563334E+02  0.49168618149E+02  0.47000000000E+01 0.  1.
         -5    1    3    3    0  501  0.47780787815E+02  0.11287492599E+03  0.53393634424E+03  0.54784474288E+03  0.47000000000E+01 0.  1.
          5    1    4    4  502    0  0.25046100282E+02  0.14803871003E+02  0.11287531149E+03  0.11665928030E+03  0.47000000000E+01 0. -1.
         -5    1    4    4    0  502 -0.71291401064E+02 -0.10174360711E+03  0.23407229577E+03  0.26503991228E+03  0.47000000000E+01 0. -1.
<mgrwt>
<rscale>  0 0.32730056E+03</rscale>
<asrwt>0</asrwt>
<pdfrwt beam="1">  1       21 0.14623652E+00 0.32730056E+03</pdfrwt>
<pdfrwt beam="2">  1       21 0.43346191E-02 0.32730056E+03</pdfrwt>
<totfact> 0.10389964E+05</totfact>
</mgrwt>
</event>
<event>
 8    1  0.9175398E-006  0.4219430E+03  0.7546771E-02  0.1036436E+00
         21   -1    0    0  504  503  0.00000000000E+00  0.00000000000E+00  0.19958391850E+03  0.19958391850E+03  0.00000000000E+00 0.  1.
         21   -1    0    0  503  504 -0.00000000000E+00 -0.00000000000E+00 -0.22300880461E+03  0.22300880461E+03  0.00000000000E+00 0.  1.
         25    2    1    2    0    0  0.23728398901E+01  0.10294035817E+03 -0.14713092969E+03  0.21880455416E+03  0.12500229894E+03 0.  0.
         25    2    1    2    0    0 -0.23728398901E+01 -0.10294035817E+03  0.12370604358E+03  0.20378816896E+03  0.12499633946E+03 0.  0.
          5    1    3    3  501    0  0.32405492830E+02  0.79849002917E+02 -0.23543781061E+02  0.89456016338E+02  0.47000000000E+01 0. -1.
         -5    1    3    3    0  501 -0.30032652940E+02  0.23091355255E+02 -0.12358714863E+03  0.12934853782E+03  0.47000000000E+01 0. -1.
          5    1    4    4  502    0  0.51841122433E+02 -0.82289292070E+01  0.41528361312E+02  0.67096289348E+02  0.47000000000E+01 0.  1.
         -5    1    4    4    0  502 -0.54213962323E+02 -0.94711428965E+02  0.82177682272E+02  0.13669187961E+03  0.47000000000E+01 0.  1.
<mgrwt>
<rscale>  0 0.42194299E+03</rscale>
<asrwt>0</asrwt>
<pdfrwt beam="1">  1       21 0.30705218E-01 0.42194299E+03</pdfrwt>
<pdfrwt beam="2">  1       21 0.34309047E-01 0.42194299E+03</pdfrwt>
<totfact> 0.77881707E+04</totfact>
</mgrwt>
</event>
<event>
 8    1  0.9175398E-006  0.3885335E+03  0.7546771E-02  0.1047824E+00
         21   -1    0    0  504  503  0.00000000000E+00  0.00000000000E+00  0.11096759611E+03  0.11096759611E+03  0.00000000000E+00 0. -1.
         21   -1    0    0  503  504 -0.00000000000E+00 -0.00000000000E+00 -0.34009537144E+03  0.34009537144E+03  0.00000000000E+00 0. -1.
         25    2    1    2    0    0  0.13975474916E+02  0.80100467083E+02 -0.25911251433E+03  0.29896124528E+03  0.12500852921E+03 0.  0.
         25    2    1    2    0    0 -0.13975474916E+02 -0.80100467083E+02  0.29984739007E+02  0.15210172227E+03  0.12499780245E+03 0.  0.
          5    1    3    3  501    0 -0.51167210748E+02  0.63560469438E+02 -0.13958237617E+03  0.16175087779E+03  0.47000000000E+01 0. -1.
         -5    1    3    3    0  501  0.65142685665E+02  0.16539997645E+02 -0.11953013816E+03  0.13721036749E+03  0.47000000000E+01 0. -1.
          5    1    4    4  502    0 -0.62268741160E+02 -0.13935173934E+02 -0.20633213988E+01  0.64015095824E+02  0.47000000000E+01 0.  1.
         -5    1    4    4    0  502  0.48293266243E+02 -0.66165293149E+02  0.32048060406E+02  0.88086626441E+02  0.47000000000E+01 0.  1.
<mgrwt>
<rscale>  0 0.38853348E+03</rscale>
<asrwt>0</asrwt>
<pdfrwt beam="1">  1       21 0.17071938E-01 0.38853348E+03</pdfrwt>
<pdfrwt beam="2">  1       21 0.52322366E-01 0.38853348E+03</pdfrwt>
<totfact> 0.10128738E+05</totfact>
</mgrwt>
</event>
<event>
 8    1  0.9175398E-006  0.2599942E+03  0.7546771E-02  0.1107147E+00
         21   -1    0    0  504  503  0.00000000000E+00  0.00000000000E+00  0.59771271091E+02  0.59771271091E+02  0.00000000000E+00 0.  1.
         21   -1    0    0  503  504 -0.00000000000E+00 -0.00000000000E+00 -0.28273188410E+03  0.28273188410E+03  0.00000000000E+00 0.  1.
         25    2    1    2    0    0  0.17505370312E+02 -0.31092282906E+02 -0.11317664946E+03  0.17235486661E+03  0.12499631201E+03 0.  0.
         25    2    1    2    0    0 -0.17505370312E+02  0.31092282906E+02 -0.10978396355E+03  0.17014828858E+03  0.12499901363E+03 0.  0.
          5    1    3    3  501    0 -0.22570417467E+02  0.33124011923E+02 -0.79941946354E+02  0.89551262958E+02  0.47000000000E+01 0. -1.
         -5    1    3    3    0  501  0.40075787779E+02 -0.64216294828E+02 -0.33234703104E+02  0.82803603654E+02  0.47000000000E+01 0. -1.
          5    1    4    4  502    0  0.21051858623E+01  0.50798962129E+02  0.56033917993E+01  0.51365887129E+02  0.47000000000E+01 0.  1.
         -5    1    4    4    0  502 -0.19610556175E+02 -0.19706679224E+02 -0.11538735535E+03  0.11878240145E+03  0.47000000000E+01 0.  1.
<mgrwt>
<rscale>  0 0.25999419E+03</rscale>
<asrwt>0</asrwt>
<pdfrwt beam="1">  1       21 0.91955799E-02 0.25999419E+03</pdfrwt>
<pdfrwt beam="2">  1       21 0.43497214E-01 0.25999419E+03</pdfrwt>
<totfact> 0.47133844E+05</totfact>
</mgrwt>
</event>
<event>
 8    1  0.9175398E-006  0.3334394E+03  0.7546771E-02  0.1069625E+00
         21   -1    0    0  504  503  0.00000000000E+00  0.00000000000E+00  0.50616579192E+03  0.50616579192E+03  0.00000000000E+00 0. -1.
         21   -1    0    0  503  504 -0.00000000000E+00 -0.00000000000E+00 -0.54913733383E+02  0.54913733383E+02  0.00000000000E+00 0. -1.
         25    2    1    2    0    0  0.52063152555E+02 -0.36429224976E+02  0.37738712520E+03  0.40259560668E+03  0.12499807983E+03 0.  0.
         25    2    1    2    0    0 -0.52063152555E+02  0.36429224976E+02  0.73864933338E+02  0.15848391863E+03  0.12499385505E+03 0.  0.
          5    1    3    3  501    0  0.11199155096E+02 -0.71242385598E+02  0.12384094097E+03  0.14338607757E+03  0.47000000000E+01 0. -1.
         -5    1    3    3    0  501  0.40863997459E+02  0.34813160622E+02  0.25354618423E+03  0.25920952910E+03  0.47000000000E+01 0. -1.
          5    1    4    4  502    0 -0.24656390855E+02  0.21629020346E+02  0.10744727436E+03  0.11244002357E+03  0.47000000000E+01 0. -1.
         -5    1    4    4    0  502 -0.27406761700E+02  0.14800204629E+02 -0.33582341026E+02  0.46043895065E+02  0.47000000000E+01 0. -1.
<mgrwt>
<rscale>  0 0.33343937E+03</rscale>
<asrwt>0</asrwt>
<pdfrwt beam="1">  1       21 0.77871657E-01 0.33343937E+03</pdfrwt>
<pdfrwt beam="2">  1       21 0.84482670E-02 0.33343937E+03</pdfrwt>
<totfact> 0.15305382E+05</totfact>
</mgrwt>
</event>
<event>
 8    1  0.9175398E-006  0.4524872E+03  0.7546771E-02  0.1026983E+00
         21   -1    0    0  504  503  0.00000000000E+00  0.00000000000E+00  0.54553323665E+02  0.54553323665E+02  0.00000000000E+00 0.  1.
         21   -1    0    0  503  504 -0.00000000000E+00 -0.00000000000E+00 -0.93827772206E+03  0.93827772206E+03  0.00000000000E+00 0.  1.
         25    2    1    2    0    0  0.54048447263E+02  0.53016241090E+02 -0.62904003834E+02  0.15910227677E+03  0.12499865721E+03 0.  0.
         25    2    1    2    0    0 -0.54048447263E+02 -0.53016241090E+02 -0.82082039456E+03  0.83372876895E+03  0.12500233432E+03 0.  0.
          5    1    3    3  501    0 -0.57198528693E+01 -0.37138618433E+02 -0.16475878314E+02  0.41298162940E+02  0.47000000000E+01 0. -1.
         -5    1    3    3    0  501  0.59768300133E+02  0.90154859523E+02 -0.46428125519E+02  0.11780411383E+03  0.47000000000E+01 0. -1.
          5    1    4    4  502    0  0.36587510513E+02  0.59924184788E+00 -0.13921624573E+03  0.14402172784E+03  0.47000000000E+01 0. -1.
         -5    1    4    4    0  502 -0.90635957776E+02 -0.53615482938E+02 -0.68160414883E+03  0.68970704111E+03  0.47000000000E+01 0. -1.
<mgrwt>
<rscale>  0 0.45248721E+03</rscale>
<asrwt>0</asrwt>
<pdfrwt beam="1">  1       21 0.83928196E-02 0.45248721E+03</pdfrwt>
<pdfrwt beam="2">  1       21 0.14435041E+00 0.45248721E+03</pdfrwt>
<totfact> 0.32920879E+04</totfact>
</mgrwt>
</event>
<event>
 8    1  0.9175398E-006  0.4281925E+03  0.7546771E-02  0.1034432E+00
         21   -1    0    0  504  503  0.00000000000E+00  0.00000000000E+00  0.58879959988E+02  0.58879959988E+02  0.00000000000E+00 0.  1.
         21   -1    0    0  503  504 -0.00000000000E+00 -0.00000000000E+00 -0.77848565584E+03  0.77848565584E+03  0.00000000000E+00 0.  1.
         25    2    1    2    0    0 -0.14211638812E+03  0.28472899628E+02 -0.54740268016E+03  0.57989870426E+03  0.12500015668E+03 0.  0.
         25    2    1    2    0    0  0.14211638812E+03 -0.28472899628E+02 -0.17220301569E+03  0.25746691157E+03  0.12501023220E+03 0.  0.
          5    1    3    3  501    0 -0.16194539253E+03  0.20463990415E+02 -0.51869608349E+03  0.54379481617E+03  0.47000000000E+01 0. -1.
         -5    1    3    3    0  501  0.19829004412E+02  0.80089092136E+01 -0.28706596671E+02  0.36103888090E+02  0.47000000000E+01 0. -1.
          5    1    4    4  502    0  0.11277583939E+03 -0.14233970162E+02 -0.18891080553E+03  0.22052296548E+03  0.47000000000E+01 0. -1.
         -5    1    4    4    0  502  0.29340548726E+02 -0.14238929466E+02  0.16707789834E+02  0.36943946094E+02  0.47000000000E+01 0. -1.
<mgrwt>
<rscale>  0 0.42819250E+03</rscale>
<asrwt>0</asrwt>
<pdfrwt beam="1">  1       21 0.90584561E-02 0.42819250E+03</pdfrwt>
<pdfrwt beam="2">  1       21 0.11976701E+00 0.42819250E+03</pdfrwt>
<totfact> 0.47044180E+04</totfact>
</mgrwt>
</event>
<event>
 8    1  0.9175398E-006  0.3002084E+03  0.7546771E-02  0.1085137E+00
         21   -1    0    0  504  503  0.00000000000E+00  0.00000000000E+00  0.94545430728E+03  0.94545430728E+03  0.00000000000E+00 0. -1.
         21   -1    0    0  503  504 -0.00000000000E+00 -0.00000000000E+00 -0.23831150785E+02  0.23831150785E+02  0.00000000000E+00 0. -1.
         25    2    1    2    0    0 -0.57071587796E+02 -0.59607627014E+02  0.49295986122E+03  0.51520982759E+03  0.12498602457E+03 0.  0.
         25    2    1    2    0    0  0.57071587796E+02  0.59607627014E+02  0.42866329527E+03  0.45407563047E+03  0.12498888808E+03 0.  0.
          5    1    3    3  501    0 -0.61476006383E+02 -0.43730334864E+02  0.11977974532E+03  0.14163657344E+03  0.47000000000E+01 0.  1.
         -5    1    3    3    0  501  0.44044185877E+01 -0.15877292150E+02  0.37318011590E+03  0.37357325414E+03  0.47000000000E+01 0.  1.
          5    1    4    4  502    0  0.58434738821E+02  0.87563191898E+02  0.40035476263E+03  0.41399028641E+03  0.47000000000E+01 0. -1.
         -5    1    4    4    0  502 -0.13631510249E+01 -0.27955564884E+02  0.28308532640E+02  0.40085344066E+02  0.47000000000E+01 0. -1.
<mgrwt>
<rscale>  0 0.30020836E+03</rscale>
<asrwt>0</asrwt>
<pdfrwt beam="1">  1       21 0.14545448E+00 0.30020836E+03</pdfrwt>
<pdfrwt beam="2">  1       21 0.36663316E-02 0.30020836E+03</pdfrwt>
<totfact> 0.14110423E+05</totfact>
</mgrwt>
</event>
<event>
 8    1  0.9175398E-006  0.2591764E+03  0.7546771E-02  0.1107639E+00
         21   -1    0    0  504  503  0.00000000000E+00  0.00000000000E+00  0.11616448313E+04  0.11616448313E+04  0.00000000000E+00 0. -1.
         21   -1    0    0  503  504 -0.00000000000E+00 -0.00000000000E+00 -0.14456315478E+02  0.14456315478E+02  0.00000000000E+00 0. -1.
         25    2    1    2    0    0  0.24733903976E+02 -0.17875937656E+02  0.64289673526E+03  0.65564905188E+03  0.12501260686E+03 0.  0.
         25    2    1    2    0    0 -0.24733903976E+02  0.17875937656E+02  0.50429178054E+03  0.52045209487E+03  0.12501547098E+03 0.  0.
          5    1    3    3  501    0  0.39687797508E+02 -0.40256621278E+02  0.61109041815E+03  0.61371761094E+03  0.47000000000E+01 0. -1.
         -5    1    3    3    0  501 -0.14953893531E+02  0.22380683622E+02  0.31806317109E+02  0.41931440939E+02  0.47000000000E+01 0. -1.
          5    1    4    4  502    0  0.38835541711E+02 -0.56021592400E+01  0.34533868220E+03  0.34759240342E+03  0.47000000000E+01 0. -1.
         -5    1    4    4    0  502 -0.63569445688E+02  0.23478096896E+02  0.15895309834E+03  0.17285969145E+03  0.47000000000E+01 0. -1.
<mgrwt>
<rscale>  0 0.25917642E+03</rscale>
<asrwt>0</asrwt>
<pdfrwt beam="1">  1       21 0.17871452E+00 0.25917642E+03</pdfrwt>
<pdfrwt beam="2">  1       21 0.22240495E-02 0.25917642E+03</pdfrwt>
<totfact> 0.18683529E+05</totfact>
</mgrwt>
</event>
<event>
 8    1  0.9175398E-006  0.5272591E+03  0.7546771E-02  0.1006899E+00
         21   -1    0    0  504  503  0.00000000000E+00  0.00000000000E+00  0.40454917092E+02  0.40454917092E+02  0.00000000000E+00 0. -1.
         21   -1    0    0  503  504 -0.00000000000E+00 -0.00000000000E+00 -0.17179751564E+04  0.17179751564E+04  0.00000000000E+00 0. -1.
         25    2    1    2    0    0  0.19507034738E+03 -0.49937067439E+02 -0.45375551060E+03  0.51192341733E+03  0.12500148272E+03 0.  0.
         25    2    1    2    0    0 -0.19507034738E+03  0.49937067439E+02 -0.12237647287E+04  0.12465066561E+04  0.12503032227E+03 0.  0.
          5    1    3    3  501    0  0.13665993123E+03  0.18751819224E+02 -0.20360129271E+03  0.24597386837E+03  0.47000000000E+01 0.  1.
         -5    1    3    3    0  501  0.58410416152E+02 -0.68688886663E+02 -0.25015421789E+03  0.26594954896E+03  0.47000000000E+01 0.  1.
          5    1    4    4  502    0 -0.17575892208E+03  0.74571835497E+01 -0.74737716770E+03  0.76781607764E+03  0.47000000000E+01 0.  1.
         -5    1    4    4    0  502 -0.19311425293E+02  0.42479883890E+02 -0.47638756099E+03  0.47869057850E+03  0.47000000000E+01 0.  1.
<mgrwt>
<rscale>  0 0.52725911E+03</rscale>
<asrwt>0</asrwt>
<pdfrwt beam="1">  1       21 0.62238345E-02 0.52725911E+03</pdfrwt>
<pdfrwt beam="2">  1       21 0.26430382E+00 0.52725911E+03</pdfrwt>
<totfact> 0.83849492E+03</totfact>
</mgrwt>
</event>
<event>
 8    1  0.9175398E-006  0.3106709E+03  0.7546771E-02  0.1080025E+00
         21   -1    0    0  504  503  0.00000000000E+00  0.00000000000E+00  0.71770882631E+02  0.71770882631E+02  0.00000000000E+00 0.  1.
         21   -1    0    0  503  504 -0.00000000000E+00 -0.00000000000E+00 -0.33619615692E+03  0.33619615692E+03  0.00000000000E+00 0.  1.
         25    2    1    2    0    0 -0.91252876160E+02  0.68942130150E+01 -0.14710031277E+03  0.21363317836E+03  0.12500406113E+03 0.  0.
         25    2    1    2    0    0  0.91252876160E+02 -0.68942130150E+01 -0.11732496152E+03  0.19433386119E+03  0.12500354167E+03 0.  0.
          5    1    3    3  501    0 -0.12058745349E+03  0.20213256972E+02 -0.11677244085E+03  0.16913841266E+03  0.47000000000E+01 0. -1.
         -5    1    3    3    0  501  0.29334577329E+02 -0.13319043957E+02 -0.30327871925E+02  0.44494765698E+02  0.47000000000E+01 0. -1.
          5    1    4    4  502    0 -0.28132511008E+02 -0.15183663660E+02 -0.10858377295E+02  0.34087771638E+02  0.47000000000E+01 0. -1.
         -5    1    4    4    0  502  0.11938538717E+03  0.82894506448E+01 -0.10646658422E+03  0.16024608955E+03  0.47000000000E+01 0. -1.
<mgrwt>
<rscale>  0 0.31067085E+03</rscale>
<asrwt>0</asrwt>
<pdfrwt beam="1">  1       21 0.11041674E-01 0.31067085E+03</pdfrwt>
<pdfrwt beam="2">  1       21 0.51722486E-01 0.31067085E+03</pdfrwt>
<totfact> 0.23451871E+05</totfact>
</mgrwt>
</event>
<event>
 8    1  0.9175398E-006  0.2933688E+03  0.7546771E-02  0.1088603E+00
         21   -1    0    0  504  503  0.00000000000E+00  0.00000000000E+00  0.12041104328E+02  0.12041104328E+02  0.00000000000E+00 0. -1.
         21   -1    0    0  503  504 -0.00000000000E+00 -0.00000000000E+00 -0.17869048667E+04  0.17869048667E+04  0.00000000000E+00 0. -1.
         25    2    1    2    0    0  0.14484954869E+02  0.61517847787E+02 -0.61993025602E+03  0.63554964581E+03  0.12496227611E+03 0.  0.
         25    2    1    2    0    0 -0.14484954869E+02 -0.61517847787E+02 -0.11549335063E+04  0.11633963252E+04  0.12500138365E+03 0.  0.
          5    1    3    3  501    0 -0.65778524908E+01  0.42829386585E+02 -0.56313854377E+02  0.71210706312E+02  0.47000000000E+01 0. -1.
         -5    1    3    3    0  501  0.21062807360E+02  0.18688461202E+02 -0.56361640164E+03  0.56433893950E+03  0.47000000000E+01 0. -1.
          5    1    4    4  502    0 -0.29071762680E+02  0.25155537269E+02 -0.16183694219E+03  0.16640689378E+03  0.47000000000E+01 0. -1.
         -5    1    4    4    0  502  0.14586807811E+02 -0.86673385056E+02 -0.99309656416E+03  0.99698943143E+03  0.47000000000E+01 0. -1.
<mgrwt>
<rscale>  0 0.29336876E+03</rscale>
<asrwt>0</asrwt>
<pdfrwt beam="1">  1       21 0.18524776E-02 0.29336876E+03</pdfrwt>
<pdfrwt beam="2">  1       21 0.27490843E+00 0.29336876E+03</pdfrwt>
<totfact> 0.62083460E+04</totfact>
</mgrwt>
</event>
<event>
 8    1  0.9175398E-006  0.3271678E+03  0.7546771E-02  0.1072397E+00
         21   -1    0    0  504  503  0.00000000000E+00  0.00000000000E+00  0.51397768254E+03  0.51397768254E+03  0.00000000000E+00 0.  1.
         21   -1    0    0  503  504 -0.00000000000E+00 -0.00000000000E+00 -0.52063925149E+02  0.52063925149E+02  0.00000000000E+00 0.  1.
         25    2    1    2    0    0  0.37630622957E+02 -0.96880074880E+02  0.19943977474E+03  0.25730508751E+03  0.12501148593E+03 0.  0.
         25    2    1    2    0    0 -0.37630622957E+02  0.96880074880E+02  0.26247398265E+03  0.30873652018E+03  0.12499533845E+03 0.  0.
          5    1    3    3  501    0  0.49593896494E+02 -0.83844516386E+02  0.21317068129E+03  0.23442117408E+03  0.47000000000E+01 0. -1.
         -5    1    3    3    0  501 -0.11963273537E+02 -0.13035558494E+02 -0.13730906547E+02  0.22883913423E+02  0.47000000000E+01 0. -1.
          5    1    4    4  502    0  0.46050435885E+02  0.40465307925E+02  0.95768653373E+02  0.11380601372E+03  0.47000000000E+01 0.  1.
         -5    1    4    4    0  502 -0.83681058842E+02  0.56414766955E+02  0.16670532928E+03  0.19493050646E+03  0.47000000000E+01 0.  1.
<mgrwt>
<rscale>  0 0.32716782E+03</rscale>
<asrwt>0</asrwt>
<pdfrwt beam="1">  1       21 0.79073486E-01 0.32716782E+03</pdfrwt>
<pdfrwt beam="2">  1       21 0.80098350E-02 0.32716782E+03</pdfrwt>
<totfact> 0.16259833E+05</totfact>
</mgrwt>
</event>
<event>
 8    1  0.9175398E-006  0.2860632E+03  0.7546771E-02  0.1092423E+00
         21   -1    0    0  504  503  0.00000000000E+00  0.00000000000E+00  0.10311857731E+03  0.10311857731E+03  0.00000000000E+00 0. -1.
         21   -1    0    0  503  504 -0.00000000000E+00 -0.00000000000E+00 -0.19839335227E+03  0.19839335227E+03  0.00000000000E+00 0. -1.
         25    2    1    2    0    0 -0.25593882293E+02 -0.16246268786E+02 -0.11356816214E+03  0.17159123966E+03  0.12500735185E+03 0.  0.
         25    2    1    2    0    0  0.25593882293E+02  0.16246268786E+02  0.18293387172E+02  0.12992068992E+03  0.12500299834E+03 0.  0.
          5    1    3    3  501    0  0.21088884736E+02  0.95604855606E+01  0.17896247109E+02  0.29639662686E+02  0.47000000000E+01 0.  1.
         -5    1    3    3    0  501 -0.46682767028E+02 -0.25806754346E+02 -0.13146440925E+03  0.14195157698E+03  0.47000000000E+01 0.  1.
          5    1    4    4  502    0  0.65675197890E+02  0.20571593254E+02  0.44053642688E+02  0.81848857664E+02  0.47000000000E+01 0.  1.
         -5    1    4    4    0  502 -0.40081315597E+02 -0.43253244677E+01 -0.25760255516E+02  0.48071832251E+02  0.47000000000E+01 0.  1.
<mgrwt>
<rscale>  0 0.28606321E+03</rscale>
<asrwt>0</asrwt>
<pdfrwt beam="1">  1       21 0.15864396E-01 0.28606321E+03</pdfrwt>
<pdfrwt beam="2">  1       21 0.30522054E-01 0.28606321E+03</pdfrwt>
<totfact> 0.35754313E+05</totfact>
</mgrwt>
</event>
<event>
 8    1  0.9175398E-006  0.2747573E+03  0.7546771E-02  0.1098587E+00
         21   -1    0    0  504  503  0.00000000000E+00  0.00000000000E+00  0.74020591975E+01  0.74020591975E+01  0.00000000000E+00 0. -1.
         21   -1    0    0  503  504 -0.00000000000E+00 -0.00000000000E+00 -0.25496820501E+04  0.25496820501E+04  0.00000000000E+00 0. -1.
         25    2    1    2    0    0 -0.35910802770E+02  0.43879753227E+02 -0.12176142361E+04  0.12253263800E+04  0.12500116414E+03 0.  0.
         25    2    1    2    0    0  0.35910802770E+02 -0.43879753227E+02 -0.13246657547E+04  0.13317577292E+04  0.12499707651E+03 0.  0.
          5    1    3    3  501    0 -0.35164007541E+02  0.19460448403E+02 -0.10641083341E+03  0.11384450775E+03  0.47000000000E+01 0.  1.
         -5    1    3    3    0  501 -0.74679522933E+00  0.24419304824E+02 -0.11112034027E+04  0.11114818723E+04  0.47000000000E+01 0.  1.
          5    1    4    4  502    0  0.82486293061E+02 -0.21585351602E+02 -0.83313439522E+03  0.83749920982E+03  0.47000000000E+01 0.  1.
         -5    1    4    4    0  502 -0.46575490291E+02 -0.22294401625E+02 -0.49153135950E+03  0.49425851941E+03  0.47000000000E+01 0.  1.
<mgrwt>
<rscale>  0 0.27475733E+03</rscale>
<asrwt>0</asrwt>
<pdfrwt beam="1">  1       21 0.11387798E-02 0.27475733E+03</pdfrwt>
<pdfrwt beam="2">  1       21 0.39225828E+00 0.27475733E+03</pdfrwt>
<totfact> 0.27402362E+04</totfact>
</mgrwt>
</event>
<event>
 8    1  0.9175398E-006  0.2628392E+03  0.7546771E-02  0.1105449E+00
         21   -1    0    0  504  503  0.00000000000E+00  0.00000000000E+00  0.23756149365E+03  0.23756149365E+03  0.00000000000E+00 0.  1.
         21   -1    0    0  503  504 -0.00000000000E+00 -0.00000000000E+00 -0.72701648168E+02  0.72701648168E+02  0.00000000000E+00 0.  1.
         25    2    1    2    0    0  0.13258186230E+02 -0.16960614756E+02  0.41845438989E+02  0.13356891893E+03  0.12500469345E+03 0.  0.
         25    2    1    2    0    0 -0.13258186230E+02  0.16960614756E+02  0.12301440649E+03  0.17669422289E+03  0.12499944897E+03 0.  0.
          5    1    3    3  501    0 -0.39558660358E+02 -0.41616089834E+02  0.47706858642E+02  0.74798535439E+02  0.47000000000E+01 0.  1.
         -5    1    3    3    0  501  0.52816846588E+02  0.24655475078E+02 -0.58614196527E+01  0.58770383487E+02  0.47000000000E+01 0.  1.
          5    1    4    4  502    0  0.20008130411E+02 -0.24919769127E+02 -0.95381389076E+01  0.33680651266E+02  0.47000000000E+01 0. -1.
         -5    1    4    4    0  502 -0.33266316641E+02  0.41880383883E+02  0.13255254540E+03  0.14301357162E+03  0.47000000000E+01 0. -1.
<mgrwt>
<rscale>  0 0.26283921E+03</rscale>
<asrwt>0</asrwt>
<pdfrwt beam="1">  1       21 0.36547922E-01 0.26283921E+03</pdfrwt>
<pdfrwt beam="2">  1       21 0.11184869E-01 0.26283921E+03</pdfrwt>
<totfact> 0.47365300E+05</totfact>
</mgrwt>
</event>
<event>
 8    1  0.9175398E-006  0.5035633E+03  0.7546771E-02  0.1012853E+00
         21   -1    0    0  504  503  0.00000000000E+00  0.00000000000E+00  0.56548358433E+02  0.56548358433E+02  0.00000000000E+00 0. -1.
         21   -1    0    0  503  504 -0.00000000000E+00 -0.00000000000E+00 -0.11210582796E+04  0.11210582796E+04  0.00000000000E+00 0. -1.
         25    2    1    2    0    0  0.71397257920E+02 -0.13162088261E+03 -0.15992970947E+03  0.25223550940E+03  0.12499446009E+03 0.  0.
         25    2    1    2    0    0 -0.71397257920E+02  0.13162088261E+03 -0.90458021172E+03  0.92537112866E+03  0.12499896456E+03 0.  0.
          5    1    3    3  501    0 -0.11549419663E+02  0.64329715496E+01  0.10631246620E+02  0.17603568451E+02  0.47000000000E+01 0. -1.
         -5    1    3    3    0  501  0.82946677583E+02 -0.13805385416E+03 -0.17056095610E+03  0.23463194095E+03  0.47000000000E+01 0. -1.
          5    1    4    4  502    0 -0.79312254653E+02  0.63839540836E+02 -0.29803026040E+03  0.31497626391E+03  0.47000000000E+01 0. -1.
         -5    1    4    4    0  502  0.79149967333E+01  0.67781341775E+02 -0.60654995132E+03  0.61039486475E+03  0.47000000000E+01 0. -1.
<mgrwt>
<rscale>  0 0.50356332E+03</rscale>
<asrwt>0</asrwt>
<pdfrwt beam="1">  1       21 0.86997479E-02 0.50356332E+03</pdfrwt>
<pdfrwt beam="2">  1       21 0.17247050E+00 0.50356332E+03</pdfrwt>
<totfact> 0.18582253E+04</totfact>
</mgrwt>
</event>
<event>
 8    1  0.9175398E-006  0.2825898E+03  0.7546771E-02  0.1094283E+00
         21   -1    0    0  504  503  0.00000000000E+00  0.00000000000E+00  0.57939191284E+02  0.57939191284E+02  0.00000000000E+00 0.  1.
         21   -1    0    0  503  504 -0.00000000000E+00 -0.00000000000E+00 -0.34457236950E+03  0.34457236950E+03  0.00000000000E+00 0.  1.
         25    2    1    2    0    0  0.55291696814E+02 -0.14977164030E+02 -0.18961824924E+03  0.23423404818E+03  0.12501608577E+03 0.  0.
         25    2    1    2    0    0 -0.55291696814E+02  0.14977164030E+02 -0.97014928971E+02  0.16827751260E+03  0.12499575043E+03 0.  0.
          5    1    3    3  501    0  0.89161646792E+02  0.15110788348E+02 -0.14134533304E+03  0.16786520889E+03  0.47000000000E+01 0. -1.
         -5    1    3    3    0  501 -0.33869949977E+02 -0.30087952378E+02 -0.48272916202E+02  0.66368839288E+02  0.47000000000E+01 0. -1.
          5    1    4    4  502    0  0.15967563629E+01  0.50902405819E+02 -0.12673149548E+01  0.51159560555E+02  0.47000000000E+01 0.  1.
         -5    1    4    4    0  502 -0.56888453177E+02 -0.35925241789E+02 -0.95747614016E+02  0.11711795205E+03  0.47000000000E+01 0.  1.
<mgrwt>
<rscale>  0 0.28258977E+03</rscale>
<asrwt>0</asrwt>
<pdfrwt beam="1">  1       21 0.89137216E-02 0.28258977E+03</pdfrwt>
<pdfrwt beam="2">  1       21 0.53011135E-01 0.28258977E+03</pdfrwt>
<totfact> 0.32791939E+05</totfact>
</mgrwt>
</event>
<event>
 8    1  0.9175398E-006  0.4182120E+03  0.7546771E-02  0.1037650E+00
         21   -1    0    0  504  503  0.00000000000E+00  0.00000000000E+00  0.32556383161E+03  0.32556383161E+03  0.00000000000E+00 0. -1.
         21   -1    0    0  503  504 -0.00000000000E+00 -0.00000000000E+00 -0.13430644368E+03  0.13430644368E+03  0.00000000000E+00 0. -1.
         25    2    1    2    0    0 -0.11659762029E+03  0.84724056822E+02  0.14825915238E+01  0.19077522935E+03  0.12497927506E+03 0.  0.
         25    2    1    2    0    0  0.11659762029E+03 -0.84724056822E+02  0.18977479641E+03  0.26909504594E+03  0.12499799813E+03 0.  0.
          5    1    3    3  501    0 -0.57570606520E+02  0.25626969983E+02  0.61215579077E+02  0.87980415135E+02  0.47000000000E+01 0.  1.
         -5    1    3    3    0  501 -0.59027013767E+02  0.59097086839E+02 -0.59732987553E+02  0.10279481421E+03  0.47000000000E+01 0.  1.
          5    1    4    4  502    0  0.89249748680E+02 -0.77039166785E+02  0.20499374596E+03  0.23652711629E+03  0.47000000000E+01 0.  1.
         -5    1    4    4    0  502  0.27347871607E+02 -0.76848900366E+01 -0.15218949549E+02  0.32567929650E+02  0.47000000000E+01 0.  1.
<mgrwt>
<rscale>  0 0.41821201E+03</rscale>
<asrwt>0</asrwt>
<pdfrwt beam="1">  1       21 0.50086743E-01 0.41821201E+03</pdfrwt>
<pdfrwt beam="2">  1       21 0.20662530E-01 0.41821201E+03</pdfrwt>
<totfact> 0.77038231E+04</totfact>
</mgrwt>
</event>
<event>
 8    1  0.9175398E-006  0.2907286E+03  0.7546771E-02  0.1089969E+00
         21   -1    0    0  504  503  0.00000000000E+00  0.00000000000E+00  0.33248764507E+02  0.33248764507E+02  0.00000000000E+00 0. -1.
         21   -1    0    0  503  504 -0.00000000000E+00 -0.00000000000E+00 -0.63553587840E+03  0.63553587840E+03  0.00000000000E+00 0. -1.
         25    2    1    2    0    0  0.59239795454E+01  0.72618070316E+02 -0.26904212677E+03  0.30547760718E+03  0.12499769934E+03 0.  0.
         25    2    1    2    0    0 -0.59239795454E+01 -0.72618070316E+02 -0.33324498712E+03  0.36330703573E+03  0.12502520985E+03 0.  0.
          5    1    3    3  501    0  0.41430553740E+02  0.71630711698E+02 -0.25298175543E+03  0.26621290018E+03  0.47000000000E+01 0.  1.
         -5    1    3    3    0  501 -0.35506574194E+02  0.98735861827E+00 -0.16060371342E+02  0.39264706999E+02  0.47000000000E+01 0.  1.
          5    1    4    4  502    0 -0.62667462590E+02 -0.16984049065E+02 -0.14893583154E+03  0.16254119695E+03  0.47000000000E+01 0.  1.
         -5    1    4    4    0  502  0.56743483045E+02 -0.55634021251E+02 -0.18430915558E+03  0.20076583878E+03  0.47000000000E+01 0.  1.
<mgrwt>
<rscale>  0 0.29072862E+03</rscale>
<asrwt>0</asrwt>
<pdfrwt beam="1">  1       21 0.51151939E-02 0.29072862E+03</pdfrwt>
<pdfrwt beam="2">  1       21 0.97774762E-01 0.29072862E+03</pdfrwt>
<totfact> 0.21767459E+05</totfact>
</mgrwt>
</event>
<event>
 8    1  0.9175398E-006  0.4494121E+03  0.7546771E-02  0.1027897E+00
         21   -1    0    0  504  503  0.00000000000E+00  0.00000000000E+00  0.29743697992E+03  0.29743697992E+03  0.00000000000E+00 0.  1.
         21   -1    0    0  503  504 -0.00000000000E+00 -0.00000000000E+00 -0.16975971614E+03  0.16975971614E+03  0.00000000000E+00 0.  1.
         25    2    1    2    0    0  0.21183367954E+02 -0.64955542686E+02  0.24450014655E+03  0.28297344370E+03  0.12500276226E+03 0.  0.
         25    2    1    2    0    0 -0.21183367954E+02  0.64955542686E+02 -0.11682288277E+03  0.18422325236E+03  0.12499065233E+03 0.  0.
          5    1    3    3  501    0 -0.15742857058E+02 -0.93829551294E+02  0.16824263396E+03  0.19333777729E+03  0.47000000000E+01 0.  1.
         -5    1    3    3    0  501  0.36926225012E+02  0.28874008609E+02  0.76257512587E+02  0.89635666410E+02  0.47000000000E+01 0.  1.
          5    1    4    4  502    0  0.90492971716E+01  0.41425811016E+02 -0.13498497958E+03  0.14156631771E+03  0.47000000000E+01 0. -1.
         -5    1    4    4    0  502 -0.30232665125E+02  0.23529731670E+02  0.18162096817E+02  0.42656934651E+02  0.47000000000E+01 0. -1.
<mgrwt>
<rscale>  0 0.44941214E+03</rscale>
<asrwt>0</asrwt>
<pdfrwt beam="1">  1       21 0.45759535E-01 0.44941214E+03</pdfrwt>
<pdfrwt beam="2">  1       21 0.26116880E-01 0.44941214E+03</pdfrwt>
<totfact> 0.58934426E+04</totfact>
</mgrwt>
</event>
<event>
 8    1  0.9175398E-006  0.3040416E+03  0.7546771E-02  0.1083238E+00
         21   -1    0    0  504  503  0.00000000000E+00  0.00000000000E+00  0.56223359712E+02  0.56223359712E+02  0.00000000000E+00 0. -1.
         21   -1    0    0  503  504 -0.00000000000E+00 -0.00000000000E+00 -0.41104481414E+03  0.41104481414E+03  0.00000000000E+00 0. -1.
         25    2    1    2    0    0  0.38882252112E+02 -0.73120166123E+02 -0.21586082904E+03  0.26282963750E+03  0.12500053044E+03 0.  0.
         25    2    1    2    0    0 -0.38882252112E+02  0.73120166123E+02 -0.13896062538E+03  0.20443853635E+03  0.12500668588E+03 0.  0.
          5    1    3    3  501    0  0.67431618314E+02 -0.88122225357E+02 -0.12994396005E+03  0.17093879754E+03  0.47000000000E+01 0.  1.
         -5    1    3    3    0  501 -0.28549366202E+02  0.15002059234E+02 -0.85916868992E+02  0.91890839963E+02  0.47000000000E+01 0.  1.
          5    1    4    4  502    0 -0.43753111949E+02  0.67365670357E+02 -0.17108989116E+02  0.82263453954E+02  0.47000000000E+01 0.  1.
         -5    1    4    4    0  502  0.48708598366E+01  0.57544957659E+01 -0.12185163627E+03  0.12217508240E+03  0.47000000000E+01 0.  1.
<mgrwt>
<rscale>  0 0.30404158E+03</rscale>
<asrwt>0</asrwt>
<pdfrwt beam="1">  1       21 0.86497477E-02 0.30404158E+03</pdfrwt>
<pdfrwt beam="2">  1       21 0.63237664E-01 0.30404158E+03</pdfrwt>
<totfact> 0.23531991E+05</totfact>
</mgrwt>
</event>
<event>
 8    1  0.9175398E-006  0.3094327E+03  0.7546771E-02  0.1080618E+00
         21   -1    0    0  504  503  0.00000000000E+00  0.00000000000E+00  0.22693409675E+03  0.22693409675E+03  0.00000000000E+00 0.  1.
         21   -1    0    0  503  504 -0.00000000000E+00 -0.00000000000E+00 -0.10548058858E+03  0.10548058858E+03  0.00000000000E+00 0.  1.
         25    2    1    2    0    0 -0.67300822273E+01  0.48716349087E+02 -0.21722200412E+02  0.13607387314E+03  0.12500267311E+03 0.  0.
         25    2    1    2    0    0  0.67300822273E+01 -0.48716349087E+02  0.14317570858E+03  0.19634081220E+03  0.12502741432E+03 0.  0.
          5    1    3    3  501    0 -0.26590811069E+02 -0.14415205119E+02 -0.54166793672E+02  0.62217368223E+02  0.47000000000E+01 0. -1.
         -5    1    3    3    0  501  0.19860728842E+02  0.63131554205E+02  0.32444593259E+02  0.73856504915E+02  0.47000000000E+01 0. -1.
          5    1    4    4  502    0 -0.18341986956E+02 -0.52620438573E+02  0.15728400846E+03  0.16693019008E+03  0.47000000000E+01 0. -1.
         -5    1    4    4    0  502  0.25072069184E+02  0.39040894860E+01 -0.14108299883E+02  0.29410622119E+02  0.47000000000E+01 0. -1.
<mgrwt>
<rscale>  0 0.30943266E+03</rscale>
<asrwt>0</asrwt>
<pdfrwt beam="1">  1       21 0.34912938E-01 0.30943266E+03</pdfrwt>
<pdfrwt beam="2">  1       21 0.16227783E-01 0.30943266E+03</pdfrwt>
<totfact> 0.26127161E+05</totfact>
</mgrwt>
</event>
<event>
 8    1  0.9175398E-006  0.3204674E+03  0.7546771E-02  0.1075434E+00
         21   -1    0    0  504  503  0.00000000000E+00  0.00000000000E+00  0.20750031969E+02  0.20750031969E+02  0.00000000000E+00 0. -1.
         21   -1    0    0  503  504 -0.00000000000E+00 -0.00000000000E+00 -0.12373396211E+04  0.12373396211E+04  0.00000000000E+00 0. -1.
         25    2    1    2    0    0  0.93828083281E+02  0.34177442468E+02 -0.57329593172E+03  0.59519956439E+03  0.12498995696E+03 0.  0.
         25    2    1    2    0    0 -0.93828083281E+02 -0.34177442468E+02 -0.64329365736E+03  0.66289008863E+03  0.12499893284E+03 0.  0.
          5    1    3    3  501    0  0.25895454854E+02 -0.46615935874E+02 -0.16581941764E+03  0.17424634667E+03  0.47000000000E+01 0.  1.
         -5    1    3    3    0  501  0.67932628426E+02  0.80793378342E+02 -0.40747651408E+03  0.42095321773E+03  0.47000000000E+01 0.  1.
          5    1    4    4  502    0 -0.88935824087E+02 -0.43489189340E+02 -0.24305494188E+03  0.26248559040E+03  0.47000000000E+01 0.  1.
         -5    1    4    4    0  502 -0.48922591941E+01  0.93117468722E+01 -0.40023871548E+03  0.40040449823E+03  0.47000000000E+01 0.  1.
<mgrwt>
<rscale>  0 0.32046739E+03</rscale>
<asrwt>0</asrwt>
<pdfrwt beam="1">  1       21 0.31923114E-02 0.32046739E+03</pdfrwt>
<pdfrwt beam="2">  1       21 0.19036001E+00 0.32046739E+03</pdfrwt>
<totfact> 0.83461281E+04</totfact>
</mgrwt>
</event>
<event>
 8    1  0.9175398E-006  0.2694274E+03  0.7546771E-02  0.1101608E+00
         21   -1    0    0  504  503  0.00000000000E+00  0.00000000000E+00  0.57080272754E+02  0.57080272754E+02  0.00000000000E+00 0. -1.
         21   -1    0    0  503  504 -0.00000000000E+00 -0.00000000000E+00 -0.31793448184E+03  0.31793448184E+03  0.00000000000E+00 0. -1.
         25    2    1    2    0    0 -0.15012222215E+02  0.47083634662E+02 -0.11770271162E+03  0.17866428271E+03  0.12499904850E+03 0.  0.
         25    2    1    2    0    0  0.15012222215E+02 -0.47083634662E+02 -0.14315149747E+03  0.19635047188E+03  0.12497568208E+03 0.  0.
          5    1    3    3  501    0  0.29741882357E+02 -0.19266801896E+02  0.60353694136E+00  0.35752531075E+02  0.47000000000E+01 0. -1.
         -5    1    3    3    0  501 -0.44754104572E+02  0.66350436558E+02 -0.11830624856E+03  0.14291175163E+03  0.47000000000E+01 0. -1.
          5    1    4    4  502    0  0.18377541212E+02 -0.82496964433E+02 -0.54407385684E+02  0.10062672000E+03  0.47000000000E+01 0.  1.
         -5    1    4    4    0  502 -0.33653189969E+01  0.35413329771E+02 -0.88744111783E+02  0.95723751877E+02  0.47000000000E+01 0.  1.
<mgrwt>
<rscale>  0 0.26942744E+03</rscale>
<asrwt>0</asrwt>
<pdfrwt beam="1">  1       21 0.87815804E-02 0.26942744E+03</pdfrwt>
<pdfrwt beam="2">  1       21 0.48912998E-01 0.26942744E+03</pdfrwt>
<totfact> 0.39999560E+05</totfact>
</mgrwt>
</event>
<event>
 8    1  0.9175398E-006  0.4518394E+03  0.7546771E-02  0.1027175E+00
         21   -1    0    0  504  503  0.00000000000E+00  0.00000000000E+00  0.95286380985E+03  0.95286380985E+03  0.00000000000E+00 0. -1.
         21   -1    0    0  503  504 -0.00000000000E+00 -0.00000000000E+00 -0.53564530923E+02  0.53564530923E+02  0.00000000000E+00 0. -1.
         25    2    1    2    0    0  0.87883815124E+02  0.26333383901E+02  0.81562726101E+03  0.83023514309E+03  0.12500220736E+03 0.  0.
         25    2    1    2    0    0 -0.87883815124E+02 -0.26333383901E+02  0.83672017911E+02  0.17619319768E+03  0.12500409697E+03 0.  0.
          5    1    3    3  501    0  0.61319822529E+02 -0.42568803315E+02  0.52665343114E+03  0.53193810748E+03  0.47000000000E+01 0. -1.
         -5    1    3    3    0  501  0.26563992594E+02  0.68902187216E+02  0.28897382987E+03  0.29829703561E+03  0.47000000000E+01 0. -1.
          5    1    4    4  502    0 -0.43899172658E+02  0.24990865541E+01 -0.28227078985E+02  0.52461803073E+02  0.47000000000E+01 0.  1.
         -5    1    4    4    0  502 -0.43984642466E+02 -0.28832470455E+02  0.11189909690E+03  0.12373139461E+03  0.47000000000E+01 0.  1.
<mgrwt>
<rscale>  0 0.45183937E+03</rscale>
<asrwt>0</asrwt>
<pdfrwt beam="1">  1       21 0.14659442E+00 0.45183937E+03</pdfrwt>
<pdfrwt beam="2">  1       21 0.82406978E-02 0.45183937E+03</pdfrwt>
<totfact> 0.32630836E+04</totfact>
</mgrwt>
</event>
<event>
 8    1  0.9175398E-006  0.3368488E+03  0.7546771E-02  0.1068146E+00
         21   -1    0    0  504  503  0.00000000000E+00  0.00000000000E+00  0.21722134833E+02  0.21722134833E+02  0.00000000000E+00 0. -1.
         21   -1    0    0  503  504 -0.00000000000E+00 -0.00000000000E+00 -0.13058929068E+04  0.13058929068E+04  0.00000000000E+00 0. -1.
         25    2    1    2    0    0 -0.20886228118E+02  0.60072075401E+02 -0.27450921478E+03  0.30825947393E+03  0.12499482189E+03 0.  0.
         25    2    1    2    0    0  0.20886228118E+02 -0.60072075401E+02 -0.10096615572E+04  0.10193555677E+04  0.12499769829E+03 0.  0.
          5    1    3    3  501    0 -0.58301187555E+02  0.10750334356E+02 -0.21189694413E+03  0.22008408187E+03  0.47000000000E+01 0.  1.
         -5    1    3    3    0  501  0.37414959437E+02  0.49321741046E+02 -0.62612270644E+02  0.88175392058E+02  0.47000000000E+01 0.  1.
          5    1    4    4  502    0 -0.13808109253E+02  0.33814275423E+02 -0.18508223096E+03  0.18871033708E+03  0.47000000000E+01 0.  1.
         -5    1    4    4    0  502  0.34694337372E+02 -0.93886350825E+02 -0.82457932619E+03  0.83064523058E+03  0.47000000000E+01 0.  1.
<mgrwt>
<rscale>  0 0.33684882E+03</rscale>
<asrwt>0</asrwt>
<pdfrwt beam="1">  1       21 0.33418661E-02 0.33684882E+03</pdfrwt>
<pdfrwt beam="2">  1       21 0.20090665E+00 0.33684882E+03</pdfrwt>
<totfact> 0.65344883E+04</totfact>
</mgrwt>
</event>
<event>
 8    1  0.9175398E-006  0.4912283E+03  0.7546771E-02  0.1016094E+00
         21   -1    0    0  504  503  0.00000000000E+00  0.00000000000E+00  0.15434134005E+03  0.15434134005E+03  0.00000000000E+00 0.  1.
         21   -1    0    0  503  504 -0.00000000000E+00 -0.00000000000E+00 -0.39086298780E+03  0.39086298780E+03  0.00000000000E+00 0.  1.
         25    2    1    2    0    0  0.90792393215E+02  0.47744847263E+01  0.93587662108E+02  0.18069946827E+03  0.12501037143E+03 0.  0.
         25    2    1    2    0    0 -0.90792393215E+02 -0.47744847263E+01 -0.33010930986E+03  0.36450485957E+03  0.12500232728E+03 0.  0.
          5    1    3    3  501    0  0.75099325621E+02  0.59883889770E+02  0.48922596552E+02  0.10789578034E+03  0.47000000000E+01 0. -1.
         -5    1    3    3    0  501  0.15693067594E+02 -0.55109405044E+02  0.44665065556E+02  0.72803687928E+02  0.47000000000E+01 0. -1.
          5    1    4    4  502    0  0.80089987187E+01  0.37196242934E+02 -0.41281213203E+02  0.56337670456E+02  0.47000000000E+01 0.  1.
         -5    1    4    4    0  502 -0.98801391933E+02 -0.41970727661E+02 -0.28882809666E+03  0.30816718911E+03  0.47000000000E+01 0.  1.
<mgrwt>
<rscale>  0 0.49122833E+03</rscale>
<asrwt>0</asrwt>
<pdfrwt beam="1">  1       21 0.23744822E-01 0.49122833E+03</pdfrwt>
<pdfrwt beam="2">  1       21 0.60132767E-01 0.49122833E+03</pdfrwt>
<totfact> 0.39127453E+04</totfact>
</mgrwt>
</event>
<event>
 8    1  0.9175398E-006  0.2771065E+03  0.7546771E-02  0.1097280E+00
         21   -1    0    0  504  503  0.00000000000E+00  0.00000000000E+00  0.59786174376E+03  0.59786174376E+03  0.00000000000E+00 0. -1.
         21   -1    0    0  503  504 -0.00000000000E+00 -0.00000000000E+00 -0.32109437380E+02  0.32109437380E+02  0.00000000000E+00 0. -1.
         25    2    1    2    0    0  0.35902034732E+02  0.13880369134E+02  0.17888961578E+03  0.22160174242E+03  0.12499686742E+03 0.  0.
         25    2    1    2    0    0 -0.35902034732E+02 -0.13880369134E+02  0.38686269060E+03  0.40836943872E+03  0.12498494451E+03 0.  0.
          5    1    3    3  501    0  0.29154903723E+02 -0.51549823687E+02  0.11673066299E+03  0.13097912206E+03  0.47000000000E+01 0. -1.
         -5    1    3    3    0  501  0.67471310085E+01  0.65430192821E+02  0.62158952786E+02  0.90622620360E+02  0.47000000000E+01 0. -1.
          5    1    4    4  502    0 -0.34556466607E+02 -0.47349234051E+02  0.78122477391E+02  0.97781955509E+02  0.47000000000E+01 0.  1.
         -5    1    4    4    0  502 -0.13455681246E+01  0.33468864917E+02  0.30874021321E+03  0.31058748321E+03  0.47000000000E+01 0.  1.
<mgrwt>
<rscale>  0 0.27710651E+03</rscale>
<asrwt>0</asrwt>
<pdfrwt beam="1">  1       21 0.91978722E-01 0.27710651E+03</pdfrwt>
<pdfrwt beam="2">  1       21 0.49399139E-02 0.27710651E+03</pdfrwt>
<totfact> 0.26788486E+05</totfact>
</mgrwt>
</event>
<event>
 8    1  0.9175398E-006  0.2804174E+03  0.7546771E-02  0.1095461E+00
         21   -1    0    0  504  503  0.00000000000E+00  0.00000000000E+00  0.16377025574E+02  0.16377025574E+02  0.00000000000E+00 0. -1.
         21   -1    0    0  503  504 -0.00000000000E+00 -0.00000000000E+00 -0.12003697557E+04  0.12003697557E+04  0.00000000000E+00 0. -1.
         25    2    1    2    0    0  0.74085321530E+01 -0.11646188958E+02 -0.86099582241E+03  0.87013151038E+03  0.12499807628E+03 0.  0.
         25    2    1    2    0    0 -0.74085321530E+01  0.11646188958E+02 -0.32299690773E+03  0.34661527091E+03  0.12499849424E+03 0.  0.
          5    1    3    3  501    0 -0.10297487359E+01  0.52995761881E+02 -0.24702603718E+03  0.25269262792E+03  0.47000000000E+01 0. -1.
         -5    1    3    3    0  501  0.84382808889E+01 -0.64641950838E+02 -0.61396978523E+03  0.61743888246E+03  0.47000000000E+01 0. -1.
          5    1    4    4  502    0  0.26396718903E+02 -0.20459587031E+02 -0.28301664108E+03  0.28501910568E+03  0.47000000000E+01 0.  1.
         -5    1    4    4    0  502 -0.33805251056E+02  0.32105775988E+02 -0.39980266644E+02  0.61596165236E+02  0.47000000000E+01 0.  1.
<mgrwt>
<rscale>  0 0.28041745E+03</rscale>
<asrwt>0</asrwt>
<pdfrwt beam="1">  1       21 0.25195421E-02 0.28041745E+03</pdfrwt>
<pdfrwt beam="2">  1       21 0.18467229E+00 0.28041745E+03</pdfrwt>
<totfact> 0.13729241E+05</totfact>
</mgrwt>
</event>
<event>
 8    1  0.9175398E-006  0.2693325E+03  0.7546771E-02  0.1101662E+00
         21   -1    0    0  504  503  0.00000000000E+00  0.00000000000E+00  0.11070429626E+04  0.11070429626E+04  0.00000000000E+00 0. -1.
         21   -1    0    0  503  504 -0.00000000000E+00 -0.00000000000E+00 -0.16381472434E+02  0.16381472434E+02  0.00000000000E+00 0. -1.
         25    2    1    2    0    0 -0.18371654319E+02 -0.31131512484E+02  0.40074406181E+03  0.42134039043E+03  0.12500093111E+03 0.  0.
         25    2    1    2    0    0  0.18371654319E+02  0.31131512484E+02  0.68991742836E+03  0.70208404461E+03  0.12501703480E+03 0.  0.
          5    1    3    3  501    0 -0.41290506375E+02 -0.44220895243E+01  0.36849045784E+02  0.55717169415E+02  0.47000000000E+01 0.  1.
         -5    1    3    3    0  501  0.22918852056E+02 -0.26709422959E+02  0.36389501603E+03  0.36562322101E+03  0.47000000000E+01 0.  1.
          5    1    4    4  502    0 -0.48701551518E+02 -0.12585536463E+01  0.38819421297E+03  0.39126750703E+03  0.47000000000E+01 0.  1.
         -5    1    4    4    0  502  0.67073205837E+02  0.32390066130E+02  0.30172321539E+03  0.31081653757E+03  0.47000000000E+01 0.  1.
<mgrwt>
<rscale>  0 0.26933246E+03</rscale>
<asrwt>0</asrwt>
<pdfrwt beam="1">  1       21 0.17031424E+00 0.26933246E+03</pdfrwt>
<pdfrwt beam="2">  1       21 0.25202274E-02 0.26933246E+03</pdfrwt>
<totfact> 0.17349272E+05</totfact>
</mgrwt>
</event>
<event>
 8    1  0.9175398E-006  0.2884128E+03  0.7546771E-02  0.1091181E+00
         21   -1    0    0  504  503  0.00000000000E+00  0.00000000000E+00  0.13096468313E+03  0.13096468313E+03  0.00000000000E+00 0.  1.
         21   -1    0    0  503  504 -0.00000000000E+00 -0.00000000000E+00 -0.15878693122E+03  0.15878693122E+03  0.00000000000E+00 0.  1.
         25    2    1    2    0    0  0.21706293347E+02  0.13493929863E+02 -0.81435223045E+02  0.15135429806E+03  0.12499271448E+03 0.  0.
         25    2    1    2    0    0 -0.21706293347E+02 -0.13493929863E+02  0.53612974960E+02  0.13839731630E+03  0.12500486694E+03 0.  0.
          5    1    3    3  501    0  0.86271809524E+01 -0.54524129539E+02 -0.51882444850E+02  0.75902483733E+02  0.47000000000E+01 0.  1.
         -5    1    3    3    0  501  0.13079112394E+02  0.68018059402E+02 -0.29552778194E+02  0.75451814324E+02  0.47000000000E+01 0.  1.
          5    1    4    4  502    0 -0.27606365389E+02  0.49696177521E+02  0.30634401780E+01  0.57125267054E+02  0.47000000000E+01 0.  1.
         -5    1    4    4    0  502  0.59000720422E+01 -0.63190107384E+02  0.50549534782E+02  0.81272049242E+02  0.47000000000E+01 0.  1.
<mgrwt>
<rscale>  0 0.28841276E+03</rscale>
<asrwt>0</asrwt>
<pdfrwt beam="1">  1       21 0.20148413E-01 0.28841276E+03</pdfrwt>
<pdfrwt beam="2">  1       21 0.24428758E-01 0.28841276E+03</pdfrwt>
<totfact> 0.35293961E+05</totfact>
</mgrwt>
</event>
<event>
 8    1  0.9175398E-006  0.2663208E+03  0.7546771E-02  0.1103404E+00
         21   -1    0    0  504  503  0.00000000000E+00  0.00000000000E+00  0.35955489125E+03  0.35955489125E+03  0.00000000000E+00 0. -1.
         21   -1    0    0  503  504 -0.00000000000E+00 -0.00000000000E+00 -0.49315671291E+02  0.49315671291E+02  0.00000000000E+00 0. -1.
         25    2    1    2    0    0  0.42384271465E+02 -0.20437903598E+01  0.12829194801E+03  0.18408153267E+03  0.12500633264E+03 0.  0.
         25    2    1    2    0    0 -0.42384271465E+02  0.20437903598E+01  0.18194727194E+03  0.22478902987E+03  0.12499877853E+03 0.  0.
          5    1    3    3  501    0  0.75249225722E+02  0.14051252196E+02  0.12550258834E+03  0.14708117942E+03  0.47000000000E+01 0. -1.
         -5    1    3    3    0  501 -0.32864954258E+02 -0.16095042555E+02  0.27893596738E+01  0.37000353250E+02  0.47000000000E+01 0. -1.
          5    1    4    4  502    0 -0.39584689228E+02  0.60400514965E+02  0.11427296539E+03  0.13526111950E+03  0.47000000000E+01 0.  1.
         -5    1    4    4    0  502 -0.27995822361E+01 -0.58356724605E+02  0.67674306549E+02  0.89527910365E+02  0.47000000000E+01 0.  1.
<mgrwt>
<rscale>  0 0.26632079E+03</rscale>
<asrwt>0</asrwt>
<pdfrwt beam="1">  1       21 0.55316135E-01 0.26632079E+03</pdfrwt>
<pdfrwt beam="2">  1       21 0.75870266E-02 0.26632079E+03</pdfrwt>
<totfact> 0.39886053E+05</totfact>
</mgrwt>
</event>
<event>
 8    1  0.9175398E-006  0.3200323E+03  0.7546771E-02  0.1075634E+00
         21   -1    0    0  504  503  0.00000000000E+00  0.00000000000E+00  0.92494963927E+02  0.92494963927E+02  0.00000000000E+00 0. -1.
         21   -1    0    0  503  504 -0.00000000000E+00 -0.00000000000E+00 -0.27682776819E+03  0.27682776819E+03  0.00000000000E+00 0. -1.
         25    2    1    2    0    0  0.49906353141E+02  0.12252724636E+02 -0.19095741911E+03  0.23394578114E+03  0.12500047702E+03 0.  0.
         25    2    1    2    0    0 -0.49906353141E+02 -0.12252724636E+02  0.66246148486E+01  0.13537695098E+03  0.12506902090E+03 0.  0.
          5    1    3    3  501    0  0.75553461581E+02  0.25345584763E+02 -0.18845022411E+03  0.20466143064E+03  0.47000000000E+01 0.  1.
         -5    1    3    3    0  501 -0.25647108440E+02 -0.13092860126E+02 -0.25071950017E+01  0.29284350504E+02  0.47000000000E+01 0.  1.
          5    1    4    4  502    0  0.40041812159E+02 -0.11594992049E+02  0.15821746530E+02  0.44835345709E+02  0.47000000000E+01 0. -1.
         -5    1    4    4    0  502 -0.89948165300E+02 -0.65773258702E+00 -0.91971316816E+01  0.90541605266E+02  0.47000000000E+01 0. -1.
<mgrwt>
<rscale>  0 0.32003234E+03</rscale>
<asrwt>0</asrwt>
<pdfrwt beam="1">  1       21 0.14229994E-01 0.32003234E+03</pdfrwt>
<pdfrwt beam="2">  1       21 0.42588888E-01 0.32003234E+03</pdfrwt>
<totfact> 0.22171355E+05</totfact>
</mgrwt>
</event>
<event>
 8    1  0.9175398E-006  0.4761328E+03  0.7546771E-02  0.1020203E+00
         21   -1    0    0  504  503  0.00000000000E+00  0.00000000000E+00  0.13421603163E+03  0.13421603163E+03  0.00000000000E+00 0. -1.
         21   -1    0    0  503  504 -0.00000000000E+00 -0.00000000000E+00 -0.42227160847E+03  0.42227160847E+03  0.00000000000E+00 0. -1.
         25    2    1    2    0    0 -0.50966478240E+02 -0.17184945605E+03 -0.33613905293E+02  0.22108452085E+03  0.12497461056E+03 0.  0.
         25    2    1    2    0    0  0.50966478240E+02  0.17184945605E+03 -0.25444167154E+03  0.33540311924E+03  0.12499948294E+03 0.  0.
          5    1    3    3  501    0 -0.80772180506E+02 -0.16401317484E+03 -0.12254127237E+02  0.18329408146E+03  0.47000000000E+01 0. -1.
         -5    1    3    3    0  501  0.29805702266E+02 -0.78362812053E+01 -0.21359778056E+02  0.37790439390E+02  0.47000000000E+01 0. -1.
          5    1    4    4  502    0 -0.33531382148E+01  0.50043246622E+02 -0.26653992827E+01  0.50445658105E+02  0.47000000000E+01 0.  1.
         -5    1    4    4    0  502  0.54319616455E+02  0.12180620942E+03 -0.25177627226E+03  0.28495746114E+03  0.47000000000E+01 0.  1.
<mgrwt>
<rscale>  0 0.47613284E+03</rscale>
<asrwt>0</asrwt>
<pdfrwt beam="1">  1       21 0.20648620E-01 0.47613284E+03</pdfrwt>
<pdfrwt beam="2">  1       21 0.64964863E-01 0.47613284E+03</pdfrwt>
<totfact> 0.43298689E+04</totfact>
</mgrwt>
</event>
<event>
 8    1  0.9175398E-006  0.5367330E+03  0.7546771E-02  0.1004612E+00
         21   -1    0    0  504  503  0.00000000000E+00  0.00000000000E+00  0.13551492682E+03  0.13551492682E+03  0.00000000000E+00 0.  1.
         21   -1    0    0  503  504 -0.00000000000E+00 -0.00000000000E+00 -0.53145860181E+03  0.53145860181E+03  0.00000000000E+00 0.  1.
         25    2    1    2    0    0  0.23354806191E+03 -0.29099594766E+02 -0.15854736136E+03  0.31008350319E+03  0.12499211783E+03 0.  0.
         25    2    1    2    0    0 -0.23354806191E+03  0.29099594766E+02 -0.23739631363E+03  0.35689002544E+03  0.12498798699E+03 0.  0.
          5    1    3    3  501    0  0.20877411284E+03  0.38889716418E+01 -0.16735123163E+03  0.26763833623E+03  0.47000000000E+01 0.  1.
         -5    1    3    3    0  501  0.24773949071E+02 -0.32988566408E+02  0.88038702734E+01  0.42445166957E+02  0.47000000000E+01 0.  1.
          5    1    4    4  502    0 -0.80878805932E+02  0.66785535405E+02 -0.12657721834E+03  0.16445537751E+03  0.47000000000E+01 0. -1.
         -5    1    4    4    0  502 -0.15266925598E+03 -0.37685940638E+02 -0.11081909529E+03  0.19243464793E+03  0.47000000000E+01 0. -1.
<mgrwt>
<rscale>  0 0.53673298E+03</rscale>
<asrwt>0</asrwt>
<pdfrwt beam="1">  1       21 0.20848450E-01 0.53673298E+03</pdfrwt>
<pdfrwt beam="2">  1       21 0.81762862E-01 0.53673298E+03</pdfrwt>
<totfact> 0.24864844E+04</totfact>
</mgrwt>
</event>
<event>
 8    1  0.9175398E-006  0.3450331E+03  0.7546771E-02  0.1064672E+00
         21   -1    0    0  504  503  0.00000000000E+00  0.00000000000E+00  0.17892369947E+03  0.17892369947E+03  0.00000000000E+00 0.  1.
         21   -1    0    0  503  504 -0.00000000000E+00 -0.00000000000E+00 -0.16633881924E+03  0.16633881924E+03  0.00000000000E+00 0.  1.
         25    2    1    2    0    0 -0.55933406775E+02 -0.56166753916E+02  0.94991868073E+02  0.17587272623E+03  0.12499804236E+03 0.  0.
         25    2    1    2    0    0  0.55933406775E+02  0.56166753916E+02 -0.82406987837E+02  0.16938979248E+03  0.12497495714E+03 0.  0.
          5    1    3    3  501    0 -0.37096710840E+02  0.29618742447E+02  0.69504420272E+02  0.84299408638E+02  0.47000000000E+01 0. -1.
         -5    1    3    3    0  501 -0.18836695936E+02 -0.85785496364E+02  0.25487447801E+02  0.91573317596E+02  0.47000000000E+01 0. -1.
          5    1    4    4  502    0  0.66965767238E+02  0.43693093225E+02  0.50319351834E+01  0.80255284866E+02  0.47000000000E+01 0. -1.
         -5    1    4    4    0  502 -0.11032360462E+02  0.12473660692E+02 -0.87438923021E+02  0.89134507613E+02  0.47000000000E+01 0. -1.
<mgrwt>
<rscale>  0 0.34503308E+03</rscale>
<asrwt>0</asrwt>
<pdfrwt beam="1">  1       21 0.27526723E-01 0.34503308E+03</pdfrwt>
<pdfrwt beam="2">  1       21 0.25590587E-01 0.34503308E+03</pdfrwt>
<totfact> 0.17528291E+05</totfact>
</mgrwt>
</event>
<event>
 8    1  0.9175398E-006  0.2676409E+03  0.7546771E-02  0.1102637E+00
         21   -1    0    0  504  503  0.00000000000E+00  0.00000000000E+00  0.66618662677E+02  0.66618662677E+02  0.00000000000E+00 0.  1.
         21   -1    0    0  503  504 -0.00000000000E+00 -0.00000000000E+00 -0.26881229484E+03  0.26881229484E+03  0.00000000000E+00 0.  1.
         25    2    1    2    0    0 -0.20753424079E+02  0.29045892051E+02 -0.61286993588E+02  0.14371948877E+03  0.12499930965E+03 0.  0.
         25    2    1    2    0    0  0.20753424079E+02 -0.29045892051E+02 -0.14090663858E+03  0.19171146875E+03  0.12499695195E+03 0.  0.
          5    1    3    3  501    0 -0.29918782783E+02  0.24824743024E+02  0.31506422910E+02  0.50260781073E+02  0.47000000000E+01 0.  1.
         -5    1    3    3    0  501  0.91653587050E+01  0.42211490276E+01 -0.92793416498E+02  0.93458707699E+02  0.47000000000E+01 0.  1.
          5    1    4    4  502    0 -0.24831045129E+01 -0.95773737214E+01 -0.15678636091E+03  0.15716852376E+03  0.47000000000E+01 0.  1.
         -5    1    4    4    0  502  0.23236528591E+02 -0.19468518330E+02  0.15879722329E+02  0.34542944984E+02  0.47000000000E+01 0.  1.
<mgrwt>
<rscale>  0 0.26764092E+03</rscale>
<asrwt>0</asrwt>
<pdfrwt beam="1">  1       21 0.10249025E-01 0.26764092E+03</pdfrwt>
<pdfrwt beam="2">  1       21 0.41355737E-01 0.26764092E+03</pdfrwt>
<totfact> 0.43060956E+05</totfact>
</mgrwt>
</event>
<event>
 8    1  0.9175398E-006  0.2642000E+03  0.7546771E-02  0.1104646E+00
         21   -1    0    0  504  503  0.00000000000E+00  0.00000000000E+00  0.12773067212E+02  0.12773067212E+02  0.00000000000E+00 0. -1.
         21   -1    0    0  503  504 -0.00000000000E+00 -0.00000000000E+00 -0.13661875485E+04  0.13661875485E+04  0.00000000000E+00 0. -1.
         25    2    1    2    0    0 -0.19523251426E+02 -0.33236905020E+01 -0.47920519615E+03  0.49563616598E+03  0.12500153896E+03 0.  0.
         25    2    1    2    0    0  0.19523251426E+02  0.33236905020E+01 -0.87420928512E+03  0.88332444971E+03  0.12501201947E+03 0.  0.
          5    1    3    3  501    0  0.31085538865E+02 -0.43836550634E+02 -0.30429841380E+03  0.30904298818E+03  0.47000000000E+01 0.  1.
         -5    1    3    3    0  501 -0.50608790291E+02  0.40512860132E+02 -0.17490678235E+03  0.18659317780E+03  0.47000000000E+01 0.  1.
          5    1    4    4  502    0  0.63841009447E+02  0.32046335375E+01 -0.27121574159E+03  0.27868622616E+03  0.47000000000E+01 0.  1.
         -5    1    4    4    0  502 -0.44317758021E+02  0.11905696451E+00 -0.60299354352E+03  0.60463822355E+03  0.47000000000E+01 0.  1.
<mgrwt>
<rscale>  0 0.26419997E+03</rscale>
<asrwt>0</asrwt>
<pdfrwt beam="1">  1       21 0.19650873E-02 0.26419997E+03</pdfrwt>
<pdfrwt beam="2">  1       21 0.21018270E+00 0.26419997E+03</pdfrwt>
<totfact> 0.14144394E+05</totfact>
</mgrwt>
</event>
<event>
 8    1  0.9175398E-006  0.3116799E+03  0.7546771E-02  0.1079543E+00
         21   -1    0    0  504  503  0.00000000000E+00  0.00000000000E+00  0.33592685936E+02  0.33592685936E+02  0.00000000000E+00 0.  1.
         21   -1    0    0  503  504 -0.00000000000E+00 -0.00000000000E+00 -0.72295779425E+03  0.72295779425E+03  0.00000000000E+00 0.  1.
         25    2    1    2    0    0 -0.21915460067E+02  0.82216407558E+02 -0.43617926301E+03  0.46164589554E+03  0.12499903329E+03 0.  0.
         25    2    1    2    0    0  0.21915460067E+02 -0.82216407558E+02 -0.25318584531E+03  0.29490458465E+03  0.12500326685E+03 0.  0.
          5    1    3    3  501    0 -0.58724891785E+02  0.90839236390E+02 -0.26472613563E+03  0.28601118276E+03  0.47000000000E+01 0. -1.
         -5    1    3    3    0  501  0.36809431718E+02 -0.86228288320E+01 -0.17145312738E+03  0.17563471277E+03  0.47000000000E+01 0. -1.
          5    1    4    4  502    0  0.12858266122E+02 -0.10889101499E+03 -0.13847456435E+03  0.17669149138E+03  0.47000000000E+01 0. -1.
         -5    1    4    4    0  502  0.90571939449E+01  0.26674607429E+02 -0.11471128095E+03  0.11821309327E+03  0.47000000000E+01 0. -1.
<mgrwt>
<rscale>  0 0.31167993E+03</rscale>
<asrwt>0</asrwt>
<pdfrwt beam="1">  1       21 0.51681059E-02 0.31167993E+03</pdfrwt>
<pdfrwt beam="2">  1       21 0.11122427E+00 0.31167993E+03</pdfrwt>
<totfact> 0.15558164E+05</totfact>
</mgrwt>
</event>
<event>
 8    1  0.9175398E-006  0.2655302E+03  0.7546771E-02  0.1103865E+00
         21   -1    0    0  504  503  0.00000000000E+00  0.00000000000E+00  0.42080396051E+02  0.42080396051E+02  0.00000000000E+00 0.  1.
         21   -1    0    0  503  504 -0.00000000000E+00 -0.00000000000E+00 -0.41887859485E+03  0.41887859485E+03  0.00000000000E+00 0.  1.
         25    2    1    2    0    0 -0.31356270579E+02  0.31289127019E+02 -0.17745573872E+03  0.22153329907E+03  0.12499695284E+03 0.  0.
         25    2    1    2    0    0  0.31356270579E+02 -0.31289127019E+02 -0.19934246008E+03  0.23942569183E+03  0.12500008137E+03 0.  0.
          5    1    3    3  501    0  0.18696847285E+02  0.40122970557E+02 -0.16229040949E+03  0.16828455627E+03  0.47000000000E+01 0. -1.
         -5    1    3    3    0  501 -0.50053117864E+02 -0.88338435384E+01 -0.15165329225E+02  0.53248742802E+02  0.47000000000E+01 0. -1.
          5    1    4    4  502    0  0.38311951257E+01 -0.30819705419E+02  0.61814582352E+01  0.32013008671E+02  0.47000000000E+01 0. -1.
         -5    1    4    4    0  502  0.27525075453E+02 -0.46942159977E+00 -0.20552391832E+03  0.20741268316E+03  0.47000000000E+01 0. -1.
<mgrwt>
<rscale>  0 0.26553024E+03</rscale>
<asrwt>0</asrwt>
<pdfrwt beam="1">  1       21 0.64739072E-02 0.26553024E+03</pdfrwt>
<pdfrwt beam="2">  1       21 0.64442860E-01 0.26553024E+03</pdfrwt>
<totfact> 0.37784537E+05</totfact>
</mgrwt>
</event>
<event>
 8    1  0.9175398E-006  0.3069651E+03  0.7546771E-02  0.1081810E+00
         21   -1    0    0  504  503  0.00000000000E+00  0.00000000000E+00  0.11646852479E+03  0.11646852479E+03  0.00000000000E+00 0. -1.
         21   -1    0    0  503  504 -0.00000000000E+00 -0.00000000000E+00 -0.20225970190E+03  0.20225970190E+03  0.00000000000E+00 0. -1.
         25    2    1    2    0    0  0.25081582836E+02  0.18198576346E+02  0.43793484904E+02  0.13603114649E+03  0.12500531796E+03 0.  0.
         25    2    1    2    0    0 -0.25081582836E+02 -0.18198576346E+02 -0.12958466201E+03  0.18269708019E+03  0.12500305797E+03 0.  0.
          5    1    3    3  501    0 -0.13685207360E+02  0.33896131608E+01  0.79626483394E+02  0.81001489094E+02  0.47000000000E+01 0. -1.
         -5    1    3    3    0  501  0.38766790196E+02  0.14808963185E+02 -0.35832998490E+02  0.55029657399E+02  0.47000000000E+01 0. -1.
          5    1    4    4  502    0 -0.45575809896E+02 -0.78618163919E+01 -0.14656534183E+03  0.15376102247E+03  0.47000000000E+01 0.  1.
         -5    1    4    4    0  502  0.20494227060E+02 -0.10336759954E+02  0.16980679819E+02  0.28936057718E+02  0.47000000000E+01 0.  1.
<mgrwt>
<rscale>  0 0.30696507E+03</rscale>
<asrwt>0</asrwt>
<pdfrwt beam="1">  1       21 0.17918235E-01 0.30696507E+03</pdfrwt>
<pdfrwt beam="2">  1       21 0.31116877E-01 0.30696507E+03</pdfrwt>
<totfact> 0.27343767E+05</totfact>
</mgrwt>
</event>
<event>
 8    1  0.9175398E-006  0.5141933E+03  0.7546771E-02  0.1010139E+00
         21   -1    0    0  504  503  0.00000000000E+00  0.00000000000E+00  0.37928831593E+02  0.37928831593E+02  0.00000000000E+00 0. -1.
         21   -1    0    0  503  504 -0.00000000000E+00 -0.00000000000E+00 -0.17427029496E+04  0.17427029496E+04  0.00000000000E+00 0. -1.
         25    2    1    2    0    0 -0.96807627989E+02 -0.47042012013E+02 -0.16950058912E+03  0.23652279373E+03  0.12501165749E+03 0.  0.
         25    2    1    2    0    0  0.96807627989E+02  0.47042012013E+02 -0.15352735289E+04  0.15441089875E+04  0.12499235556E+03 0.  0.
          5    1    3    3  501    0 -0.95390149311E+02 -0.63685712230E+02 -0.18197194372E+03  0.21515350062E+03  0.47000000000E+01 0.  1.
         -5    1    3    3    0  501 -0.14174786783E+01  0.16643700217E+02  0.12471354593E+02  0.21369293111E+02  0.47000000000E+01 0.  1.
          5    1    4    4  502    0  0.10665445531E+03 -0.93214515154E+01 -0.94913443608E+03  0.95516508000E+03  0.47000000000E+01 0. -1.
         -5    1    4    4    0  502 -0.98468273207E+01  0.56363463529E+02 -0.58613909282E+03  0.58894390749E+03  0.47000000000E+01 0. -1.
<mgrwt>
<rscale>  0 0.51419330E+03</rscale>
<asrwt>0</asrwt>
<pdfrwt beam="1">  1       21 0.58352046E-02 0.51419330E+03</pdfrwt>
<pdfrwt beam="2">  1       21 0.26810816E+00 0.51419330E+03</pdfrwt>
<totfact> 0.89368786E+03</totfact>
</mgrwt>
</event>
<event>
 8    1  0.9175398E-006  0.2734335E+03  0.7546771E-02  0.1099330E+00
         21   -1    0    0  504  503  0.00000000000E+00  0.00000000000E+00  0.17957481263E+03  0.17957481263E+03  0.00000000000E+00 0.  1.
         21   -1    0    0  503  504 -0.00000000000E+00 -0.00000000000E+00 -0.10408736566E+03  0.10408736566E+03  0.00000000000E+00 0.  1.
         25    2    1    2    0    0 -0.59104399007E+01 -0.76838701623E+01 -0.18816244417E+02  0.12677963180E+03  0.12500019530E+03 0.  0.
         25    2    1    2    0    0  0.59104399007E+01  0.76838701623E+01  0.94303691389E+02  0.15688254649E+03  0.12499988809E+03 0.  0.
          5    1    3    3  501    0 -0.45132075291E+02 -0.40589983902E+02  0.18066946184E+02  0.63505555329E+02  0.47000000000E+01 0.  1.
         -5    1    3    3    0  501  0.39221635390E+02  0.32906113740E+02 -0.36883190600E+02  0.63274076469E+02  0.47000000000E+01 0.  1.
          5    1    4    4  502    0  0.19122523397E+02  0.29063378529E+02 -0.19557255067E+02  0.40186155556E+02  0.47000000000E+01 0. -1.
         -5    1    4    4    0  502 -0.13212083497E+02 -0.21379508367E+02  0.11386094646E+03  0.11669639093E+03  0.47000000000E+01 0. -1.
<mgrwt>
<rscale>  0 0.27343350E+03</rscale>
<asrwt>0</asrwt>
<pdfrwt beam="1">  1       21 0.27626894E-01 0.27343350E+03</pdfrwt>
<pdfrwt beam="2">  1       21 0.16013441E-01 0.27343350E+03</pdfrwt>
<totfact> 0.42818262E+05</totfact>
</mgrwt>
</event>
<event>
 8    1  0.9175398E-006  0.3662708E+03  0.7546771E-02  0.1056128E+00
         21   -1    0    0  504  503  0.00000000000E+00  0.00000000000E+00  0.70366441345E+03  0.70366441345E+03  0.00000000000E+00 0.  1.
         21   -1    0    0  503  504 -0.00000000000E+00 -0.00000000000E+00 -0.47662730174E+02  0.47662730174E+02  0.00000000000E+00 0.  1.
         25    2    1    2    0    0  0.12148586889E+03  0.54791236064E+02  0.30283353844E+03  0.35368713761E+03  0.12500217367E+03 0.  0.
         25    2    1    2    0    0 -0.12148586889E+03 -0.54791236064E+02  0.35316814484E+03  0.39764000601E+03  0.12501575885E+03 0.  0.
          5    1    3    3  501    0 -0.25957693937E+01  0.55062791092E+02  0.12601085320E+03  0.13762076190E+03  0.47000000000E+01 0.  1.
         -5    1    3    3    0  501  0.12408163828E+03 -0.27155502722E+00  0.17682268524E+03  0.21606637572E+03  0.47000000000E+01 0.  1.
          5    1    4    4  502    0 -0.13208673317E+03 -0.36508324560E+02  0.19726146106E+03  0.24023725119E+03  0.47000000000E+01 0.  1.
         -5    1    4    4    0  502  0.10600864283E+02 -0.18282911505E+02  0.15590668378E+03  0.15740275482E+03  0.47000000000E+01 0.  1.
<mgrwt>
<rscale>  0 0.36627076E+03</rscale>
<asrwt>0</asrwt>
<pdfrwt beam="1">  1       21 0.10825606E+00 0.36627076E+03</pdfrwt>
<pdfrwt beam="2">  1       21 0.73327282E-02 0.36627076E+03</pdfrwt>
<totfact> 0.89347708E+04</totfact>
</mgrwt>
</event>
<event>
 8    1  0.9175398E-006  0.3565990E+03  0.7546771E-02  0.1059939E+00
         21   -1    0    0  504  503  0.00000000000E+00  0.00000000000E+00  0.35778014655E+03  0.35778014655E+03  0.00000000000E+00 0. -1.
         21   -1    0    0  503  504 -0.00000000000E+00 -0.00000000000E+00 -0.88855453473E+02  0.88855453473E+02  0.00000000000E+00 0. -1.
         25    2    1    2    0    0  0.90133251966E+02 -0.47728549462E+02  0.22961350986E+03  0.28058169347E+03  0.12490678628E+03 0.  0.
         25    2    1    2    0    0 -0.90133251966E+02  0.47728549462E+02  0.39311183223E+02  0.16605390655E+03  0.12500605270E+03 0.  0.
          5    1    3    3  501    0  0.48640195787E+02 -0.22893162013E+02  0.90336150695E+01  0.54714364790E+02  0.47000000000E+01 0. -1.
         -5    1    3    3    0  501  0.41493056179E+02 -0.24835387450E+02  0.22057989479E+03  0.22586732868E+03  0.47000000000E+01 0. -1.
          5    1    4    4  502    0 -0.10236887973E+03  0.73142043288E+02  0.11933076557E+02  0.12646594147E+03  0.47000000000E+01 0. -1.
         -5    1    4    4    0  502  0.12235627769E+02 -0.25413493826E+02  0.27378106666E+02  0.39587965090E+02  0.47000000000E+01 0. -1.
<mgrwt>
<rscale>  0 0.35659903E+03</rscale>
<asrwt>0</asrwt>
<pdfrwt beam="1">  1       21 0.55043099E-01 0.35659903E+03</pdfrwt>
<pdfrwt beam="2">  1       21 0.13670070E-01 0.35659903E+03</pdfrwt>
<totfact> 0.13804147E+05</totfact>
</mgrwt>
</event>
<event>
 8    1  0.9175398E-006  0.3028295E+03  0.7546771E-02  0.1083835E+00
         21   -1    0    0  504  503  0.00000000000E+00  0.00000000000E+00  0.12994305869E+03  0.12994305869E+03  0.00000000000E+00 0.  1.
         21   -1    0    0  503  504 -0.00000000000E+00 -0.00000000000E+00 -0.17643437385E+03  0.17643437385E+03  0.00000000000E+00 0.  1.
         25    2    1    2    0    0 -0.80993846844E+02  0.95201472372E+01 -0.49066613339E+02  0.15710862678E+03  0.12499980654E+03 0.  0.
         25    2    1    2    0    0  0.80993846844E+02 -0.95201472372E+01  0.25752981854E+01  0.14926880576E+03  0.12499563105E+03 0.  0.
          5    1    3    3  501    0  0.19246264071E+02  0.37728605896E+02 -0.27335686900E+02  0.50628017558E+02  0.47000000000E+01 0.  1.
         -5    1    3    3    0  501 -0.10024011092E+03 -0.28208458659E+02 -0.21730926438E+02  0.10648060922E+03  0.47000000000E+01 0.  1.
          5    1    4    4  502    0  0.76285655940E+00 -0.28070635797E+02  0.47475134645E+02  0.55358115518E+02  0.47000000000E+01 0.  1.
         -5    1    4    4    0  502  0.80230990285E+02  0.18550488560E+02 -0.44899836460E+02  0.93910690244E+02  0.47000000000E+01 0.  1.
<mgrwt>
<rscale>  0 0.30282947E+03</rscale>
<asrwt>0</asrwt>
<pdfrwt beam="1">  1       21 0.19991240E-01 0.30282947E+03</pdfrwt>
<pdfrwt beam="2">  1       21 0.27143750E-01 0.30282947E+03</pdfrwt>
<totfact> 0.29133820E+05</totfact>
</mgrwt>
</event>
<event>
 8    1  0.9175398E-006  0.4169254E+03  0.7546771E-02  0.1038072E+00
         21   -1    0    0  504  503  0.00000000000E+00  0.00000000000E+00  0.20621111113E+03  0.20621111113E+03  0.00000000000E+00 0.  1.
         21   -1    0    0  503  504 -0.00000000000E+00 -0.00000000000E+00 -0.21073890866E+03  0.21073890866E+03  0.00000000000E+00 0.  1.
         25    2    1    2    0    0  0.13310051796E+03  0.70262461798E+02  0.69708708559E+02  0.20769603351E+03  0.12500310743E+03 0.  0.
         25    2    1    2    0    0 -0.13310051796E+03 -0.70262461798E+02 -0.74236506089E+02  0.20925398628E+03  0.12499444194E+03 0.  0.
          5    1    3    3  501    0  0.12996863000E+03  0.69914478239E+02  0.99059090479E+02  0.17780515307E+03  0.47000000000E+01 0.  1.
         -5    1    3    3    0  501  0.31318879671E+01  0.34798355915E+00 -0.29350381920E+02  0.29890880443E+02  0.47000000000E+01 0.  1.
          5    1    4    4  502    0 -0.27445964695E+02 -0.72115011506E+02  0.44326402051E+01  0.77431222138E+02  0.47000000000E+01 0. -1.
         -5    1    4    4    0  502 -0.10565455327E+03  0.18525497076E+01 -0.78669146294E+02  0.13182276414E+03  0.47000000000E+01 0. -1.
<mgrwt>
<rscale>  0 0.41692543E+03</rscale>
<asrwt>0</asrwt>
<pdfrwt beam="1">  1       21 0.31724786E-01 0.41692543E+03</pdfrwt>
<pdfrwt beam="2">  1       21 0.32421371E-01 0.41692543E+03</pdfrwt>
<totfact> 0.81843809E+04</totfact>
</mgrwt>
</event>
<event>
 8    1  0.9175398E-006  0.3065452E+03  0.7546771E-02  0.1082014E+00
         21   -1    0    0  504  503  0.00000000000E+00  0.00000000000E+00  0.52467391781E+02  0.52467391781E+02  0.00000000000E+00 0. -1.
         21   -1    0    0  503  504 -0.00000000000E+00 -0.00000000000E+00 -0.44775411669E+03  0.44775411669E+03  0.00000000000E+00 0. -1.
         25    2    1    2    0    0  0.78659328275E+02  0.34426195495E+02 -0.23385889791E+03  0.27872402511E+03  0.12499858071E+03 0.  0.
         25    2    1    2    0    0 -0.78659328275E+02 -0.34426195495E+02 -0.16142782700E+03  0.22149748336E+03  0.12501895435E+03 0.  0.
          5    1    3    3  501    0 -0.76282018561E+01  0.60673214677E+02 -0.93695452447E+02  0.11198373209E+03  0.47000000000E+01 0.  1.
         -5    1    3    3    0  501  0.86287530131E+02 -0.26247019182E+02 -0.14016344546E+03  0.16674029302E+03  0.47000000000E+01 0.  1.
          5    1    4    4  502    0 -0.77680981886E+02  0.24920314713E+01 -0.27635066164E+02  0.82621619747E+02  0.47000000000E+01 0.  1.
         -5    1    4    4    0  502 -0.97834638854E+00 -0.36918226966E+02 -0.13379276083E+03  0.13887586362E+03  0.47000000000E+01 0.  1.
<mgrwt>
<rscale>  0 0.30654520E+03</rscale>
<asrwt>0</asrwt>
<pdfrwt beam="1">  1       21 0.80719064E-02 0.30654520E+03</pdfrwt>
<pdfrwt beam="2">  1       21 0.68885249E-01 0.30654520E+03</pdfrwt>
<totfact> 0.21995779E+05</totfact>
</mgrwt>
</event>
<event>
 8    1  0.9175398E-006  0.2832650E+03  0.7546771E-02  0.1093919E+00
         21   -1    0    0  504  503  0.00000000000E+00  0.00000000000E+00  0.22363731613E+03  0.22363731613E+03  0.00000000000E+00 0.  1.
         21   -1    0    0  503  504 -0.00000000000E+00 -0.00000000000E+00 -0.89697723259E+02  0.89697723259E+02  0.00000000000E+00 0.  1.
         25    2    1    2    0    0 -0.80644569365E+00  0.63177020346E+02  0.43675706565E+02  0.14670815843E+03  0.12499492050E+03 0.  0.
         25    2    1    2    0    0  0.80644569365E+00 -0.63177020346E+02  0.90263886308E+02  0.16662688096E+03  0.12499984814E+03 0.  0.
          5    1    3    3  501    0  0.27180532623E+02 -0.29477041717E+02 -0.11416949135E+00  0.40370538475E+02  0.47000000000E+01 0. -1.
         -5    1    3    3    0  501 -0.27986978317E+02  0.92654062063E+02  0.43789876057E+02  0.10633761995E+03  0.47000000000E+01 0. -1.
          5    1    4    4  502    0  0.21734494662E+02 -0.39109172986E+02 -0.21818226380E+02  0.50000406720E+02  0.47000000000E+01 0.  1.
         -5    1    4    4    0  502 -0.20928048969E+02 -0.24067847361E+02  0.11208211269E+03  0.11662647424E+03  0.47000000000E+01 0.  1.
<mgrwt>
<rscale>  0 0.28326495E+03</rscale>
<asrwt>0</asrwt>
<pdfrwt beam="1">  1       21 0.34405741E-01 0.28326495E+03</pdfrwt>
<pdfrwt beam="2">  1       21 0.13799650E-01 0.28326495E+03</pdfrwt>
<totfact> 0.36428652E+05</totfact>
</mgrwt>
</event>
<event>
 8    1  0.9175398E-006  0.2930421E+03  0.7546771E-02  0.1088771E+00
         21   -1    0    0  504  503  0.00000000000E+00  0.00000000000E+00  0.69334722389E+02  0.69334722389E+02  0.00000000000E+00 0. -1.
         21   -1    0    0  503  504 -0.00000000000E+00 -0.00000000000E+00 -0.30963436539E+03  0.30963436539E+03  0.00000000000E+00 0. -1.
         25    2    1    2    0    0 -0.44831086567E+02 -0.50065790885E+02 -0.72993246792E+02  0.15958814090E+03  0.12499580352E+03 0.  0.
         25    2    1    2    0    0  0.44831086567E+02  0.50065790885E+02 -0.16730639621E+03  0.21938094688E+03  0.12498063811E+03 0.  0.
          5    1    3    3  501    0  0.68165069373E+00  0.30722226047E+02 -0.57630853695E+02  0.65480723259E+02  0.47000000000E+01 0.  1.
         -5    1    3    3    0  501 -0.45512737261E+02 -0.80788016933E+02 -0.15362393097E+02  0.94107417638E+02  0.47000000000E+01 0.  1.
          5    1    4    4  502    0  0.48710593968E+02  0.84386218988E+02 -0.82742662657E+02  0.12791479251E+03  0.47000000000E+01 0.  1.
         -5    1    4    4    0  502 -0.38795074011E+01 -0.34320428102E+02 -0.84563733553E+02  0.91466154370E+02  0.47000000000E+01 0.  1.
<mgrwt>
<rscale>  0 0.29304206E+03</rscale>
<asrwt>0</asrwt>
<pdfrwt beam="1">  1       21 0.10666880E-01 0.29304206E+03</pdfrwt>
<pdfrwt beam="2">  1       21 0.47636056E-01 0.29304206E+03</pdfrwt>
<totfact> 0.29780169E+05</totfact>
</mgrwt>
</event>
<event>
 8    1  0.9175398E-006  0.2663752E+03  0.7546771E-02  0.1103372E+00
         21   -1    0    0  504  503  0.00000000000E+00  0.00000000000E+00  0.16378523608E+04  0.16378523608E+04  0.00000000000E+00 0. -1.
         21   -1    0    0  503  504 -0.00000000000E+00 -0.00000000000E+00 -0.10830605542E+02  0.10830605542E+02  0.00000000000E+00 0. -1.
         25    2    1    2    0    0 -0.25440814631E+02  0.26249201981E+02  0.64032548930E+03  0.65342115319E+03  0.12492483956E+03 0.  0.
         25    2    1    2    0    0  0.25440814631E+02 -0.26249201981E+02  0.98669626599E+03  0.99526181318E+03  0.12506118425E+03 0.  0.
          5    1    3    3  501    0  0.62027426626E+01  0.12156185195E+02  0.59950180873E+03  0.59967554188E+03  0.47000000000E+01 0.  1.
         -5    1    3    3    0  501 -0.31643557293E+02  0.14093016786E+02  0.40823680567E+02  0.53745611312E+02  0.47000000000E+01 0.  1.
          5    1    4    4  502    0  0.73486100311E+02 -0.18171112106E+01  0.66243787214E+03  0.66652046726E+03  0.47000000000E+01 0. -1.
         -5    1    4    4    0  502 -0.48045285681E+02 -0.24432090770E+02  0.32425839384E+03  0.32874134592E+03  0.47000000000E+01 0. -1.
<mgrwt>
<rscale>  0 0.26637517E+03</rscale>
<asrwt>0</asrwt>
<pdfrwt beam="1">  1       21 0.25197709E+00 0.26637517E+03</pdfrwt>
<pdfrwt beam="2">  1       21 0.16662483E-02 0.26637517E+03</pdfrwt>
<totfact> 0.10244359E+05</totfact>
</mgrwt>
</event>
<event>
 8    1  0.9175398E-006  0.2557753E+03  0.7546771E-02  0.1109708E+00
         21   -1    0    0  504  503  0.00000000000E+00  0.00000000000E+00  0.24103622396E+03  0.24103622396E+03  0.00000000000E+00 0.  1.
         21   -1    0    0  503  504 -0.00000000000E+00 -0.00000000000E+00 -0.67853935507E+02  0.67853935507E+02  0.00000000000E+00 0.  1.
         25    2    1    2    0    0 -0.21409763235E+02 -0.15537389670E+02  0.79752247457E+02  0.15061213219E+03  0.12499521970E+03 0.  0.
         25    2    1    2    0    0  0.21409763235E+02  0.15537389670E+02  0.93430040992E+02  0.15827802727E+03  0.12499189141E+03 0.  0.
          5    1    3    3  501    0 -0.52543281907E+01 -0.68894216125E+02  0.58872892172E+02  0.90896250819E+02  0.47000000000E+01 0. -1.
         -5    1    3    3    0  501 -0.16155435044E+02  0.53356826455E+02  0.20879355285E+02  0.59715881371E+02  0.47000000000E+01 0. -1.
          5    1    4    4  502    0 -0.28774751774E+02 -0.22595237249E+02  0.87306161177E+02  0.94778620297E+02  0.47000000000E+01 0. -1.
         -5    1    4    4    0  502  0.50184515008E+02  0.38132626919E+02  0.61238798149E+01  0.63499406977E+02  0.47000000000E+01 0. -1.
<mgrwt>
<rscale>  0 0.25577534E+03</rscale>
<asrwt>0</asrwt>
<pdfrwt beam="1">  1       21 0.37082496E-01 0.25577534E+03</pdfrwt>
<pdfrwt beam="2">  1       21 0.10439067E-01 0.25577534E+03</pdfrwt>
<totfact> 0.52107196E+05</totfact>
</mgrwt>
</event>
<event>
 8    1  0.9175398E-006  0.2614429E+03  0.7546771E-02  0.1106279E+00
         21   -1    0    0  504  503  0.00000000000E+00  0.00000000000E+00  0.17392079041E+03  0.17392079041E+03  0.00000000000E+00 0. -1.
         21   -1    0    0  503  504 -0.00000000000E+00 -0.00000000000E+00 -0.98252209087E+02  0.98252209087E+02  0.00000000000E+00 0. -1.
         25    2    1    2    0    0 -0.23222281987E+02 -0.19913975127E+02  0.13907102335E+02  0.12943205103E+03  0.12499363005E+03 0.  0.
         25    2    1    2    0    0  0.23222281987E+02  0.19913975127E+02  0.61761478983E+02  0.14274094846E+03  0.12499862918E+03 0.  0.
          5    1    3    3  501    0  0.30007173680E+02  0.22205818347E+02 -0.30285404524E+02  0.48299322644E+02  0.47000000000E+01 0.  1.
         -5    1    3    3    0  501 -0.53229455667E+02 -0.42119793474E+02  0.44192506859E+02  0.81132728386E+02  0.47000000000E+01 0.  1.
          5    1    4    4  502    0  0.76699737188E+01 -0.41876276974E+02  0.66033126106E+02  0.78707781149E+02  0.47000000000E+01 0.  1.
         -5    1    4    4    0  502  0.15552308268E+02  0.61790252101E+02 -0.42716471224E+01  0.64033167314E+02  0.47000000000E+01 0.  1.
<mgrwt>
<rscale>  0 0.26144293E+03</rscale>
<asrwt>0</asrwt>
<pdfrwt beam="1">  1       21 0.26757045E-01 0.26144293E+03</pdfrwt>
<pdfrwt beam="2">  1       21 0.15115724E-01 0.26144293E+03</pdfrwt>
<totfact> 0.50771795E+05</totfact>
</mgrwt>
</event>
<event>
 8    1  0.9175398E-006  0.3145748E+03  0.7546771E-02  0.1078174E+00
         21   -1    0    0  504  503  0.00000000000E+00  0.00000000000E+00  0.24411678398E+04  0.24411678398E+04  0.00000000000E+00 0.  1.
         21   -1    0    0  503  504 -0.00000000000E+00 -0.00000000000E+00 -0.10134215296E+02  0.10134215296E+02  0.00000000000E+00 0.  1.
         25    2    1    2    0    0 -0.60819621422E+02 -0.28830165694E+01  0.17883429427E+04  0.17937439181E+04  0.12505768661E+03 0.  0.
         25    2    1    2    0    0  0.60819621422E+02  0.28830165694E+01  0.64269068184E+03  0.65755813701E+03  0.12499621148E+03 0.  0.
          5    1    3    3  501    0 -0.52981496177E+02 -0.26245337939E+02  0.17186554255E+04  0.17196785800E+04  0.47000000000E+01 0. -1.
         -5    1    3    3    0  501 -0.78381252453E+01  0.23362321370E+02  0.69687517157E+02  0.74065338146E+02  0.47000000000E+01 0. -1.
          5    1    4    4  502    0  0.57198029781E+02 -0.33293310334E+02  0.58791348230E+03  0.59164551193E+03  0.47000000000E+01 0.  1.
         -5    1    4    4    0  502  0.36215916411E+01  0.36176326903E+02  0.54777199548E+02  0.65912625077E+02  0.47000000000E+01 0.  1.
<mgrwt>
<rscale>  0 0.31457476E+03</rscale>
<asrwt>0</asrwt>
<pdfrwt beam="1">  1       21 0.37556381E+00 0.31457476E+03</pdfrwt>
<pdfrwt beam="2">  1       21 0.15591120E-02 0.31457476E+03</pdfrwt>
<totfact> 0.20325571E+04</totfact>
</mgrwt>
</event>
<event>
 8    1  0.9175398E-006  0.3127769E+03  0.7546771E-02  0.1079022E+00
         21   -1    0    0  504  503  0.00000000000E+00  0.00000000000E+00  0.22571924559E+03  0.22571924559E+03  0.00000000000E+00 0.  1.
         21   -1    0    0  503  504 -0.00000000000E+00 -0.00000000000E+00 -0.10835296520E+03  0.10835296520E+03  0.00000000000E+00 0.  1.
         25    2    1    2    0    0 -0.76490197649E+02  0.53740054003E+02  0.48328284346E+02  0.16339729728E+03  0.12499723977E+03 0.  0.
         25    2    1    2    0    0  0.76490197649E+02 -0.53740054003E+02  0.69037996047E+02  0.17067491350E+03  0.12499974984E+03 0.  0.
          5    1    3    3  501    0 -0.95784391887E+02  0.61053250392E+02  0.34012746284E+01  0.11373569265E+03  0.47000000000E+01 0.  1.
         -5    1    3    3    0  501  0.19294194237E+02 -0.73131963887E+01  0.44927009717E+02  0.49661604634E+02  0.47000000000E+01 0.  1.
          5    1    4    4  502    0  0.33563943988E+02  0.17171292137E+01  0.90931383411E+02  0.97057165412E+02  0.47000000000E+01 0.  1.
         -5    1    4    4    0  502  0.42926253661E+02 -0.55457183217E+02 -0.21893387364E+02  0.73617748091E+02  0.47000000000E+01 0.  1.
<mgrwt>
<rscale>  0 0.31277691E+03</rscale>
<asrwt>0</asrwt>
<pdfrwt beam="1">  1       21 0.34726038E-01 0.31277691E+03</pdfrwt>
<pdfrwt beam="2">  1       21 0.16669687E-01 0.31277691E+03</pdfrwt>
<totfact> 0.25109579E+05</totfact>
</mgrwt>
</event>
<event>
 8    1  0.9175398E-006  0.2892749E+03  0.7546771E-02  0.1090728E+00
         21   -1    0    0  504  503  0.00000000000E+00  0.00000000000E+00  0.11236557067E+02  0.11236557067E+02  0.00000000000E+00 0.  1.
         21   -1    0    0  503  504 -0.00000000000E+00 -0.00000000000E+00 -0.18617801427E+04  0.18617801427E+04  0.00000000000E+00 0.  1.
         25    2    1    2    0    0  0.21060357019E+02 -0.46065255839E+02 -0.58693080099E+03  0.60222778025E+03  0.12499995085E+03 0.  0.
         25    2    1    2    0    0 -0.21060357019E+02  0.46065255839E+02 -0.12636127846E+04  0.12707889195E+04  0.12498664743E+03 0.  0.
          5    1    3    3  501    0  0.51306748146E+02  0.25006361492E+02 -0.26677038591E+03  0.27284836323E+03  0.47000000000E+01 0. -1.
         -5    1    3    3    0  501 -0.30246391127E+02 -0.71071617331E+02 -0.32016041509E+03  0.32937941702E+03  0.47000000000E+01 0. -1.
          5    1    4    4  502    0 -0.71997346374E+02  0.22691669323E+02 -0.85221268851E+03  0.85556243852E+03  0.47000000000E+01 0.  1.
         -5    1    4    4    0  502  0.50936989355E+02  0.23373586516E+02 -0.41140009608E+03  0.41522648096E+03  0.47000000000E+01 0.  1.
<mgrwt>
<rscale>  0 0.28927495E+03</rscale>
<asrwt>0</asrwt>
<pdfrwt beam="1">  1       21 0.17287018E-02 0.28927495E+03</pdfrwt>
<pdfrwt beam="2">  1       21 0.28642760E+00 0.28927495E+03</pdfrwt>
<totfact> 0.59577306E+04</totfact>
</mgrwt>
</event>
<event>
 8    1  0.9175398E-006  0.3048257E+03  0.7546771E-02  0.1082853E+00
         21   -1    0    0  504  503  0.00000000000E+00  0.00000000000E+00  0.23821604172E+02  0.23821604172E+02  0.00000000000E+00 0.  1.
         21   -1    0    0  503  504 -0.00000000000E+00 -0.00000000000E+00 -0.97515192961E+03  0.97515192961E+03  0.00000000000E+00 0.  1.
         25    2    1    2    0    0  0.75938517759E+02  0.14449642087E+02 -0.34334481749E+03  0.37347711446E+03  0.12499616272E+03 0.  0.
         25    2    1    2    0    0 -0.75938517759E+02 -0.14449642087E+02 -0.60798550795E+03  0.62549641932E+03  0.12499576820E+03 0.  0.
          5    1    3    3  501    0 -0.19470743629E+02 -0.33530120405E+02 -0.73559483338E+02  0.83285451435E+02  0.47000000000E+01 0.  1.
         -5    1    3    3    0  501  0.95409261388E+02  0.47979762492E+02 -0.26978533415E+03  0.29019166303E+03  0.47000000000E+01 0.  1.
          5    1    4    4  502    0 -0.22991673627E+02 -0.50179826330E+02 -0.47135560678E+03  0.47459965241E+03  0.47000000000E+01 0. -1.
         -5    1    4    4    0  502 -0.52946844132E+02  0.35730184243E+02 -0.13662990117E+03  0.15089676691E+03  0.47000000000E+01 0. -1.
<mgrwt>
<rscale>  0 0.30482574E+03</rscale>
<asrwt>0</asrwt>
<pdfrwt beam="1">  1       21 0.36648626E-02 0.30482574E+03</pdfrwt>
<pdfrwt beam="2">  1       21 0.15002336E+00 0.30482574E+03</pdfrwt>
<totfact> 0.12984032E+05</totfact>
</mgrwt>
</event>
<event>
 8    1  0.9175398E-006  0.4755380E+03  0.7546771E-02  0.1020369E+00
         21   -1    0    0  504  503  0.00000000000E+00  0.00000000000E+00  0.43257262982E+03  0.43257262982E+03  0.00000000000E+00 0. -1.
         21   -1    0    0  503  504 -0.00000000000E+00 -0.00000000000E+00 -0.13069271244E+03  0.13069271244E+03  0.00000000000E+00 0. -1.
         25    2    1    2    0    0 -0.17705700878E+03 -0.88150907328E+02  0.10081670653E+03  0.25477191844E+03  0.12499982114E+03 0.  0.
         25    2    1    2    0    0  0.17705700878E+03  0.88150907328E+02  0.20106321084E+03  0.30849342382E+03  0.12498804329E+03 0.  0.
          5    1    3    3  501    0 -0.17544467873E+03 -0.54284031902E+02  0.44750602781E+02  0.18908278045E+03  0.47000000000E+01 0. -1.
         -5    1    3    3    0  501 -0.16123300543E+01 -0.33866875426E+02  0.56066103752E+02  0.65689137985E+02  0.47000000000E+01 0. -1.
          5    1    4    4  502    0  0.99542954191E+02  0.10992474561E+03  0.98816938078E+02  0.17826700950E+03  0.47000000000E+01 0.  1.
         -5    1    4    4    0  502  0.77514054591E+02 -0.21773838279E+02  0.10224627276E+03  0.13022641432E+03  0.47000000000E+01 0.  1.
<mgrwt>
<rscale>  0 0.47553797E+03</rscale>
<asrwt>0</asrwt>
<pdfrwt beam="1">  1       21 0.66549635E-01 0.47553797E+03</pdfrwt>
<pdfrwt beam="2">  1       21 0.20106571E-01 0.47553797E+03</pdfrwt>
<totfact> 0.43176610E+04</totfact>
</mgrwt>
</event>
<event>
 8    1  0.9175398E-006  0.2832894E+03  0.7546771E-02  0.1093906E+00
         21   -1    0    0  504  503  0.00000000000E+00  0.00000000000E+00  0.17966451077E+03  0.17966451077E+03  0.00000000000E+00 0. -1.
         21   -1    0    0  503  504 -0.00000000000E+00 -0.00000000000E+00 -0.11167049799E+03  0.11167049799E+03  0.00000000000E+00 0. -1.
         25    2    1    2    0    0  0.12491013435E+02  0.63394593737E+02  0.50660039591E+02  0.14955587981E+03  0.12500248654E+03 0.  0.
         25    2    1    2    0    0 -0.12491013435E+02 -0.63394593737E+02  0.17333973190E+02  0.14177912895E+03  0.12500381933E+03 0.  0.
          5    1    3    3  501    0 -0.40266326689E+02 -0.15751696020E+02  0.45004687929E+01  0.43724560740E+02  0.47000000000E+01 0. -1.
         -5    1    3    3    0  501  0.52757340124E+02  0.79146289756E+02  0.46159570798E+02  0.10583131907E+03  0.47000000000E+01 0. -1.
          5    1    4    4  502    0 -0.57580200001E+02  0.56985695445E+01  0.58181285761E+01  0.58342898001E+02  0.47000000000E+01 0. -1.
         -5    1    4    4    0  502  0.45089186567E+02 -0.69093163281E+02  0.11515844614E+02  0.83436230947E+02  0.47000000000E+01 0. -1.
<mgrwt>
<rscale>  0 0.28328943E+03</rscale>
<asrwt>0</asrwt>
<pdfrwt beam="1">  1       21 0.27640694E-01 0.28328943E+03</pdfrwt>
<pdfrwt beam="2">  1       21 0.17180077E-01 0.28328943E+03</pdfrwt>
<totfact> 0.37487285E+05</totfact>
</mgrwt>
</event>
<event>
 8    1  0.9175398E-006  0.3672149E+03  0.7546771E-02  0.1055763E+00
         21   -1    0    0  504  503  0.00000000000E+00  0.00000000000E+00  0.50006098619E+03  0.50006098619E+03  0.00000000000E+00 0. -1.
         21   -1    0    0  503  504 -0.00000000000E+00 -0.00000000000E+00 -0.67415170858E+02  0.67415170858E+02  0.00000000000E+00 0. -1.
         25    2    1    2    0    0  0.66008719438E+02  0.60916040021E+02  0.61641866277E+02  0.16580873573E+03  0.12499960877E+03 0.  0.
         25    2    1    2    0    0 -0.66008719438E+02 -0.60916040021E+02  0.37100394905E+03  0.40166742132E+03  0.12499948864E+03 0.  0.
          5    1    3    3  501    0 -0.41978532627E+01  0.36827490413E+02 -0.29906483792E+02  0.47857849878E+02  0.47000000000E+01 0.  1.
         -5    1    3    3    0  501  0.70206572701E+02  0.24088549608E+02  0.91548350069E+02  0.11795088585E+03  0.47000000000E+01 0.  1.
          5    1    4    4  502    0 -0.52956130469E+02 -0.94889225787E+02  0.20956109319E+03  0.23610645629E+03  0.47000000000E+01 0.  1.
         -5    1    4    4    0  502 -0.13052588969E+02  0.33973185767E+02  0.16144285587E+03  0.16556096502E+03  0.47000000000E+01 0.  1.
<mgrwt>
<rscale>  0 0.36721491E+03</rscale>
<asrwt>0</asrwt>
<pdfrwt beam="1">  1       21 0.76932457E-01 0.36721491E+03</pdfrwt>
<pdfrwt beam="2">  1       21 0.10371565E-01 0.36721491E+03</pdfrwt>
<totfact> 0.10833710E+05</totfact>
</mgrwt>
</event>
<event>
 8    1  0.9175398E-006  0.3147241E+03  0.7546771E-02  0.1078103E+00
         21   -1    0    0  504  503  0.00000000000E+00  0.00000000000E+00  0.12507824073E+03  0.12507824073E+03  0.00000000000E+00 0. -1.
         21   -1    0    0  503  504 -0.00000000000E+00 -0.00000000000E+00 -0.19797865119E+03  0.19797865119E+03  0.00000000000E+00 0. -1.
         25    2    1    2    0    0  0.47052305041E+02  0.26417861556E+02  0.44546296201E+02  0.14325435957E+03  0.12500246482E+03 0.  0.
         25    2    1    2    0    0 -0.47052305041E+02 -0.26417861556E+02 -0.11744670665E+03  0.17980253236E+03  0.12499359551E+03 0.  0.
          5    1    3    3  501    0  0.35002119515E+02 -0.10258710608E+02 -0.37459149313E+02  0.52494450956E+02  0.47000000000E+01 0. -1.
         -5    1    3    3    0  501  0.12050185526E+02  0.36676572164E+02  0.82005445514E+02  0.90759908610E+02  0.47000000000E+01 0. -1.
          5    1    4    4  502    0  0.49768331671E+01 -0.20783559534E+02 -0.12483802631E+03  0.12674126411E+03  0.47000000000E+01 0.  1.
         -5    1    4    4    0  502 -0.52029138208E+02 -0.56343020222E+01  0.73913196541E+01  0.53061268249E+02  0.47000000000E+01 0.  1.
<mgrwt>
<rscale>  0 0.31472414E+03</rscale>
<asrwt>0</asrwt>
<pdfrwt beam="1">  1       21 0.19242806E-01 0.31472414E+03</pdfrwt>
<pdfrwt beam="2">  1       21 0.30458254E-01 0.31472414E+03</pdfrwt>
<totfact> 0.24916857E+05</totfact>
</mgrwt>
</event>
<event>
 8    1  0.9175398E-006  0.4026568E+03  0.7546771E-02  0.1042864E+00
         21   -1    0    0  504  503  0.00000000000E+00  0.00000000000E+00  0.49867874878E+02  0.49867874878E+02  0.00000000000E+00 0. -1.
         21   -1    0    0  503  504 -0.00000000000E+00 -0.00000000000E+00 -0.81281045201E+03  0.81281045201E+03  0.00000000000E+00 0. -1.
         25    2    1    2    0    0 -0.38897885936E+02 -0.92674412349E+02 -0.64216954025E+03  0.66189729397E+03  0.12499886839E+03 0.  0.
         25    2    1    2    0    0  0.38897885936E+02  0.92674412349E+02 -0.12077303688E+03  0.20078103292E+03  0.12500121803E+03 0.  0.
          5    1    3    3  501    0 -0.20646638981E+00 -0.13663959158E+02 -0.76604863353E+00  0.14471462910E+02  0.47000000000E+01 0. -1.
         -5    1    3    3    0  501 -0.38691419546E+02 -0.79010453191E+02 -0.64140349162E+03  0.64742583105E+03  0.47000000000E+01 0. -1.
          5    1    4    4  502    0  0.68216255276E+01  0.77100373791E+02 -0.29600922228E+01  0.77600607984E+02  0.47000000000E+01 0.  1.
         -5    1    4    4    0  502  0.32076260408E+02  0.15574038558E+02 -0.11781294465E+03  0.12318042493E+03  0.47000000000E+01 0.  1.
<mgrwt>
<rscale>  0 0.40265683E+03</rscale>
<asrwt>0</asrwt>
<pdfrwt beam="1">  1       21 0.76719810E-02 0.40265683E+03</pdfrwt>
<pdfrwt beam="2">  1       21 0.12504776E+00 0.40265683E+03</pdfrwt>
<totfact> 0.56949865E+04</totfact>
</mgrwt>
</event>
<event>
 8    1  0.9175398E-006  0.4512167E+03  0.7546771E-02  0.1027360E+00
         21   -1    0    0  504  503  0.00000000000E+00  0.00000000000E+00  0.25605234932E+03  0.25605234932E+03  0.00000000000E+00 0.  1.
         21   -1    0    0  503  504 -0.00000000000E+00 -0.00000000000E+00 -0.19878405043E+03  0.19878405043E+03  0.00000000000E+00 0.  1.
         25    2    1    2    0    0 -0.17640556603E+02  0.14544517176E+03  0.14708521766E+03  0.24233375661E+03  0.12500440437E+03 0.  0.
         25    2    1    2    0    0  0.17640556603E+02 -0.14544517176E+03 -0.89816918761E+02  0.21250264314E+03  0.12499922887E+03 0.  0.
          5    1    3    3  501    0 -0.51891639194E+02  0.34484037927E+02  0.97884232002E+02  0.11612624150E+03  0.47000000000E+01 0.  1.
         -5    1    3    3    0  501  0.34251082591E+02  0.11096113384E+03  0.49200985657E+02  0.12620751511E+03  0.47000000000E+01 0.  1.
          5    1    4    4  502    0 -0.45036291367E+02 -0.42009648579E+02  0.26464188429E-01  0.61767052821E+02  0.47000000000E+01 0.  1.
         -5    1    4    4    0  502  0.62676847970E+02 -0.10343552318E+03 -0.89843382950E+02  0.15073559032E+03  0.47000000000E+01 0.  1.
<mgrwt>
<rscale>  0 0.45121668E+03</rscale>
<asrwt>0</asrwt>
<pdfrwt beam="1">  1       21 0.39392669E-01 0.45121668E+03</pdfrwt>
<pdfrwt beam="2">  1       21 0.30582162E-01 0.45121668E+03</pdfrwt>
<totfact> 0.58904478E+04</totfact>
</mgrwt>
</event>
<event>
 8    1  0.9175398E-006  0.3624845E+03  0.7546771E-02  0.1057604E+00
         21   -1    0    0  504  503  0.00000000000E+00  0.00000000000E+00  0.12931410201E+03  0.12931410201E+03  0.00000000000E+00 0. -1.
         21   -1    0    0  503  504 -0.00000000000E+00 -0.00000000000E+00 -0.25402302484E+03  0.25402302484E+03  0.00000000000E+00 0. -1.
         25    2    1    2    0    0 -0.12947287113E+03 -0.93096680344E+01 -0.41907529653E+02  0.18501601628E+03  0.12499916384E+03 0.  0.
         25    2    1    2    0    0  0.12947287113E+03  0.93096680344E+01 -0.82801393181E+02  0.19832111058E+03  0.12500119164E+03 0.  0.
          5    1    3    3  501    0 -0.53021315026E+02 -0.60518945344E+02 -0.45976625251E+02  0.92788699000E+02  0.47000000000E+01 0. -1.
         -5    1    3    3    0  501 -0.76451556102E+02  0.51209277310E+02  0.40690955976E+01  0.92227317277E+02  0.47000000000E+01 0. -1.
          5    1    4    4  502    0  0.14018857615E+03  0.27349485704E+02 -0.96851080305E+02  0.17263560759E+03  0.47000000000E+01 0.  1.
         -5    1    4    4    0  502 -0.10715705019E+02 -0.18039817669E+02  0.14049687124E+02  0.25685502990E+02  0.47000000000E+01 0.  1.
<mgrwt>
<rscale>  0 0.36248453E+03</rscale>
<asrwt>0</asrwt>
<pdfrwt beam="1">  1       21 0.19894477E-01 0.36248453E+03</pdfrwt>
<pdfrwt beam="2">  1       21 0.39080465E-01 0.36248453E+03</pdfrwt>
<totfact> 0.14047140E+05</totfact>
</mgrwt>
</event>
<event>
 8    1  0.9175398E-006  0.3830845E+03  0.7546771E-02  0.1049800E+00
         21   -1    0    0  504  503  0.00000000000E+00  0.00000000000E+00  0.10535515239E+03  0.10535515239E+03  0.00000000000E+00 0.  1.
         21   -1    0    0  503  504 -0.00000000000E+00 -0.00000000000E+00 -0.34823574346E+03  0.34823574346E+03  0.00000000000E+00 0.  1.
         25    2    1    2    0    0 -0.63739164256E+02 -0.11283037511E+03 -0.19881826403E+03  0.26822952493E+03  0.12500000530E+03 0.  0.
         25    2    1    2    0    0  0.63739164256E+02  0.11283037511E+03 -0.44062327036E+02  0.18536137092E+03  0.12499589817E+03 0.  0.
          5    1    3    3  501    0 -0.99943943334E+01 -0.70628538048E+02 -0.16355381361E+02  0.73333940330E+02  0.47000000000E+01 0.  1.
         -5    1    3    3    0  501 -0.53744769922E+02 -0.42201837064E+02 -0.18246288267E+03  0.19489558460E+03  0.47000000000E+01 0.  1.
          5    1    4    4  502    0  0.76849770271E+02  0.59800473458E+02  0.21564229315E+02  0.99845329397E+02  0.47000000000E+01 0.  1.
         -5    1    4    4    0  502 -0.13110606015E+02  0.53029901653E+02 -0.65626556351E+02  0.85516041524E+02  0.47000000000E+01 0.  1.
<mgrwt>
<rscale>  0 0.38308448E+03</rscale>
<asrwt>0</asrwt>
<pdfrwt beam="1">  1       21 0.16208485E-01 0.38308448E+03</pdfrwt>
<pdfrwt beam="2">  1       21 0.53574730E-01 0.38308448E+03</pdfrwt>
<totfact> 0.10620251E+05</totfact>
</mgrwt>
</event>
<event>
 8    1  0.9175398E-006  0.3012215E+03  0.7546771E-02  0.1084632E+00
         21   -1    0    0  504  503  0.00000000000E+00  0.00000000000E+00  0.13977564052E+04  0.13977564052E+04  0.00000000000E+00 0.  1.
         21   -1    0    0  503  504 -0.00000000000E+00 -0.00000000000E+00 -0.16228578388E+02  0.16228578388E+02  0.00000000000E+00 0.  1.
         25    2    1    2    0    0  0.51509687461E+02  0.61692840831E+02  0.57582785310E+03  0.59469469839E+03  0.12499925353E+03 0.  0.
         25    2    1    2    0    0 -0.51509687461E+02 -0.61692840831E+02  0.80569997367E+03  0.81929028515E+03  0.12499947702E+03 0.  0.
          5    1    3    3  501    0 -0.12825175180E+02  0.44562759427E+02  0.67644947962E+02  0.82147754875E+02  0.47000000000E+01 0.  1.
         -5    1    3    3    0  501  0.64334862641E+02  0.17130081403E+02  0.50818290514E+03  0.51254694352E+03  0.47000000000E+01 0.  1.
          5    1    4    4  502    0  0.21498687087E+02 -0.35311681419E+02  0.87466887386E+02  0.96858942695E+02  0.47000000000E+01 0.  1.
         -5    1    4    4    0  502 -0.73008374548E+02 -0.26381159412E+02  0.71823308628E+03  0.72243134245E+03  0.47000000000E+01 0.  1.
<mgrwt>
<rscale>  0 0.30122151E+03</rscale>
<asrwt>0</asrwt>
<pdfrwt beam="1">  1       21 0.21503935E+00 0.30122151E+03</pdfrwt>
<pdfrwt beam="2">  1       21 0.24967055E-02 0.30122151E+03</pdfrwt>
<totfact> 0.87416366E+04</totfact>
</mgrwt>
</event>
<event>
 8    1  0.9175398E-006  0.3667972E+03  0.7546771E-02  0.1055924E+00
         21   -1    0    0  504  503  0.00000000000E+00  0.00000000000E+00  0.15076731402E+03  0.15076731402E+03  0.00000000000E+00 0. -1.
         21   -1    0    0  503  504 -0.00000000000E+00 -0.00000000000E+00 -0.22309243406E+03  0.22309243406E+03  0.00000000000E+00 0. -1.
         25    2    1    2    0    0  0.66147685183E+01 -0.12809318702E+03 -0.76412787721E+02  0.19471572582E+03  0.12499472001E+03 0.  0.
         25    2    1    2    0    0 -0.66147685183E+01  0.12809318702E+03  0.40876676856E+01  0.17914402226E+03  0.12499700781E+03 0.  0.
          5    1    3    3  501    0  0.31977855551E+02 -0.41076393003E+02 -0.88874231032E+02  0.10310466648E+03  0.47000000000E+01 0. -1.
         -5    1    3    3    0  501 -0.25363087033E+02 -0.87016794014E+02  0.12461443311E+02  0.91611059342E+02  0.47000000000E+01 0. -1.
          5    1    4    4  502    0  0.58729160366E+02  0.52414264874E+02  0.53690467360E+01  0.79039775445E+02  0.47000000000E+01 0. -1.
         -5    1    4    4    0  502 -0.65343928884E+02  0.75678922144E+02 -0.12813790505E+01  0.10010424682E+03  0.47000000000E+01 0. -1.
<mgrwt>
<rscale>  0 0.36679720E+03</rscale>
<asrwt>0</asrwt>
<pdfrwt beam="1">  1       21 0.23194972E-01 0.36679720E+03</pdfrwt>
<pdfrwt beam="2">  1       21 0.34321913E-01 0.36679720E+03</pdfrwt>
<totfact> 0.13622249E+05</totfact>
</mgrwt>
</event>
<event>
 8    1  0.9175398E-006  0.2885363E+03  0.7546771E-02  0.1091116E+00
         21   -1    0    0  504  503  0.00000000000E+00  0.00000000000E+00  0.38948781712E+02  0.38948781712E+02  0.00000000000E+00 0.  1.
         21   -1    0    0  503  504 -0.00000000000E+00 -0.00000000000E+00 -0.53437609821E+03  0.53437609821E+03  0.00000000000E+00 0.  1.
         25    2    1    2    0    0 -0.65573565187E+02 -0.24728660481E+02 -0.21466055526E+03  0.25809939260E+03  0.12499897350E+03 0.  0.
         25    2    1    2    0    0  0.65573565187E+02  0.24728660481E+02 -0.28076676123E+03  0.31522548732E+03  0.12500293813E+03 0.  0.
          5    1    3    3  501    0 -0.27989899770E+02 -0.24296603118E+02  0.27042498614E+01  0.37458809104E+02  0.47000000000E+01 0.  1.
         -5    1    3    3    0  501 -0.37583665417E+02 -0.43205736317E+00 -0.21736480513E+03  0.22064058350E+03  0.47000000000E+01 0.  1.
          5    1    4    4  502    0  0.54510892475E+02 -0.15173317047E+02 -0.36654846246E+02  0.67582059024E+02  0.47000000000E+01 0.  1.
         -5    1    4    4    0  502  0.11062672712E+02  0.39901977528E+02 -0.24411191499E+03  0.24764342830E+03  0.47000000000E+01 0.  1.
<mgrwt>
<rscale>  0 0.28853629E+03</rscale>
<asrwt>0</asrwt>
<pdfrwt beam="1">  1       21 0.59921206E-02 0.28853629E+03</pdfrwt>
<pdfrwt beam="2">  1       21 0.82211703E-01 0.28853629E+03</pdfrwt>
<totfact> 0.24891613E+05</totfact>
</mgrwt>
</event>
<event>
 8    1  0.9175398E-006  0.3404026E+03  0.7546771E-02  0.1066625E+00
         21   -1    0    0  504  503  0.00000000000E+00  0.00000000000E+00  0.42144390487E+02  0.42144390487E+02  0.00000000000E+00 0. -1.
         21   -1    0    0  503  504 -0.00000000000E+00 -0.00000000000E+00 -0.68736259052E+03  0.68736259052E+03  0.00000000000E+00 0. -1.
         25    2    1    2    0    0  0.10209758710E+03  0.46109113563E+02 -0.38292048177E+03  0.41809453030E+03  0.12499989303E+03 0.  0.
         25    2    1    2    0    0 -0.10209758710E+03 -0.46109113563E+02 -0.26229771826E+03  0.31141245071E+03  0.12501061479E+03 0.  0.
          5    1    3    3  501    0  0.60027730475E+02 -0.17916061952E+02 -0.29396747457E+03  0.30060485660E+03  0.47000000000E+01 0. -1.
         -5    1    3    3    0  501  0.42069856625E+02  0.64025175515E+02 -0.88953007200E+02  0.11748967370E+03  0.47000000000E+01 0. -1.
          5    1    4    4  502    0 -0.54786592674E+02  0.37316483432E+02 -0.70276688822E+02  0.96721216206E+02  0.47000000000E+01 0.  1.
         -5    1    4    4    0  502 -0.47310994426E+02 -0.83425596995E+02 -0.19202102944E+03  0.21469123451E+03  0.47000000000E+01 0.  1.
<mgrwt>
<rscale>  0 0.34040257E+03</rscale>
<asrwt>0</asrwt>
<pdfrwt beam="1">  1       21 0.64837522E-02 0.34040257E+03</pdfrwt>
<pdfrwt beam="2">  1       21 0.10574809E+00 0.34040257E+03</pdfrwt>
<totfact> 0.11811864E+05</totfact>
</mgrwt>
</event>
<event>
 8    1  0.9175398E-006  0.3956296E+03  0.7546771E-02  0.1045304E+00
         21   -1    0    0  504  503  0.00000000000E+00  0.00000000000E+00  0.36915764292E+02  0.36915764292E+02  0.00000000000E+00 0.  1.
         21   -1    0    0  503  504 -0.00000000000E+00 -0.00000000000E+00 -0.10599998062E+04  0.10599998062E+04  0.00000000000E+00 0.  1.
         25    2    1    2    0    0 -0.25295841390E+02 -0.82268310701E+02 -0.86331782343E+03  0.87655613147E+03  0.12500013130E+03 0.  0.
         25    2    1    2    0    0  0.25295841390E+02  0.82268310701E+02 -0.15976621846E+03  0.22035943900E+03  0.12500033304E+03 0.  0.
          5    1    3    3  501    0 -0.12976683857E+02  0.32324180228E+02 -0.15741644095E+03  0.16129250705E+03  0.47000000000E+01 0. -1.
         -5    1    3    3    0  501 -0.12319157533E+02 -0.11459249093E+03 -0.70590138249E+03  0.71526362442E+03  0.47000000000E+01 0. -1.
          5    1    4    4  502    0  0.35717632044E+02  0.11319743698E+03 -0.12494492130E+03  0.17240281997E+03  0.47000000000E+01 0. -1.
         -5    1    4    4    0  502 -0.10421790654E+02 -0.30929126277E+02 -0.34821297162E+02  0.47956619029E+02  0.47000000000E+01 0. -1.
<mgrwt>
<rscale>  0 0.39562964E+03</rscale>
<asrwt>0</asrwt>
<pdfrwt beam="1">  1       21 0.56793480E-02 0.39562964E+03</pdfrwt>
<pdfrwt beam="2">  1       21 0.16307690E+00 0.39562964E+03</pdfrwt>
<totfact> 0.47549216E+04</totfact>
</mgrwt>
</event>
<event>
 8    1  0.9175398E-006  0.2809137E+03  0.7546771E-02  0.1095191E+00
         21   -1    0    0  504  503  0.00000000000E+00  0.00000000000E+00  0.26015800522E+02  0.26015800522E+02  0.00000000000E+00 0.  1.
         21   -1    0    0  503  504 -0.00000000000E+00 -0.00000000000E+00 -0.75831336040E+03  0.75831336040E+03  0.00000000000E+00 0.  1.
         25    2    1    2    0    0  0.15895088250E+02 -0.18183031031E+02 -0.53164770779E+03  0.54667840875E+03  0.12499888378E+03 0.  0.
         25    2    1    2    0    0 -0.15895088250E+02  0.18183031031E+02 -0.20064985208E+03  0.23765075217E+03  0.12503695621E+03 0.  0.
          5    1    3    3  501    0 -0.44234698734E+02  0.88081868460E+01 -0.35839803030E+03  0.36125549249E+03  0.47000000000E+01 0. -1.
         -5    1    3    3    0  501  0.60129786984E+02 -0.26991217877E+02 -0.17324967749E+03  0.18542291626E+03  0.47000000000E+01 0. -1.
          5    1    4    4  502    0 -0.15231519693E+02  0.71599568152E+02 -0.10689556759E+03  0.12964277736E+03  0.47000000000E+01 0. -1.
         -5    1    4    4    0  502 -0.66356855667E+00 -0.53416537121E+02 -0.93754284495E+02  0.10800797481E+03  0.47000000000E+01 0. -1.
<mgrwt>
<rscale>  0 0.28091372E+03</rscale>
<asrwt>0</asrwt>
<pdfrwt beam="1">  1       21 0.40024311E-02 0.28091372E+03</pdfrwt>
<pdfrwt beam="2">  1       21 0.11666359E+00 0.28091372E+03</pdfrwt>
<totfact> 0.21546936E+05</totfact>
</mgrwt>
</event>
<event>
 8    1  0.9175398E-006  0.3333316E+03  0.7546771E-02  0.1069672E+00
         21   -1    0    0  504  503  0.00000000000E+00  0.00000000000E+00  0.70925069951E+03  0.70925069951E+03  0.00000000000E+00 0. -1.
         21   -1    0    0  503  504 -0.00000000000E+00 -0.00000000000E+00 -0.39164560269E+02  0.39164560269E+02  0.00000000000E+00 0. -1.
         25    2    1    2    0    0  0.60076365582E+02  0.17805697039E+02  0.53866830019E+03  0.55652085800E+03  0.12500286083E+03 0.  0.
         25    2    1    2    0    0 -0.60076365582E+02 -0.17805697039E+02  0.13141783905E+03  0.19189440177E+03  0.12500640169E+03 0.  0.
          5    1    3    3  501    0  0.93490013925E+02  0.34683862602E+02  0.43177079594E+03  0.44316076457E+03  0.47000000000E+01 0. -1.
         -5    1    3    3    0  501 -0.33413648343E+02 -0.16878165563E+02  0.10689750425E+03  0.11336009343E+03  0.47000000000E+01 0. -1.
          5    1    4    4  502    0 -0.52625532296E+02 -0.30291405288E+02  0.13349158522E+01  0.60917057415E+02  0.47000000000E+01 0. -1.
         -5    1    4    4    0  502 -0.74508332857E+01  0.12485708250E+02  0.13008292320E+03  0.13097734436E+03  0.47000000000E+01 0. -1.
<mgrwt>
<rscale>  0 0.33333162E+03</rscale>
<asrwt>0</asrwt>
<pdfrwt beam="1">  1       21 0.10911548E+00 0.33333162E+03</pdfrwt>
<pdfrwt beam="2">  1       21 0.60253175E-02 0.33333162E+03</pdfrwt>
<totfact> 0.12446468E+05</totfact>
</mgrwt>
</event>
<event>
 8    1  0.9175398E-006  0.3159569E+03  0.7546771E-02  0.1077525E+00
         21   -1    0    0  504  503  0.00000000000E+00  0.00000000000E+00  0.76495024806E+02  0.76495024806E+02  0.00000000000E+00 0. -1.
         21   -1    0    0  503  504 -0.00000000000E+00 -0.00000000000E+00 -0.32625894163E+03  0.32625894163E+03  0.00000000000E+00 0. -1.
         25    2    1    2    0    0 -0.61864656782E+02 -0.41293711047E+02 -0.46295467971E+02  0.15264218126E+03  0.12499583519E+03 0.  0.
         25    2    1    2    0    0  0.61864656782E+02  0.41293711047E+02 -0.20346844886E+03  0.25011178517E+03  0.12499635624E+03 0.  0.
          5    1    3    3  501    0  0.10480828924E+02 -0.65228078899E+02 -0.36629864014E+02  0.75686108299E+02  0.47000000000E+01 0. -1.
         -5    1    3    3    0  501 -0.72345485706E+02  0.23934367852E+02 -0.96656039562E+01  0.76956072966E+02  0.47000000000E+01 0. -1.
          5    1    4    4  502    0  0.96614185563E+02  0.17274241832E+02 -0.11037841082E+03  0.14777748089E+03  0.47000000000E+01 0. -1.
         -5    1    4    4    0  502 -0.34749528781E+02  0.24019469215E+02 -0.93090038038E+02  0.10233430429E+03  0.47000000000E+01 0. -1.
<mgrwt>
<rscale>  0 0.31595687E+03</rscale>
<asrwt>0</asrwt>
<pdfrwt beam="1">  1       21 0.11768465E-01 0.31595687E+03</pdfrwt>
<pdfrwt beam="2">  1       21 0.50193684E-01 0.31595687E+03</pdfrwt>
<totfact> 0.22252718E+05</totfact>
</mgrwt>
</event>
<event>
 8    1  0.9175398E-006  0.4933138E+03  0.7546771E-02  0.1015539E+00
         21   -1    0    0  504  503  0.00000000000E+00  0.00000000000E+00  0.32737671274E+03  0.32737671274E+03  0.00000000000E+00 0.  1.
         21   -1    0    0  503  504 -0.00000000000E+00 -0.00000000000E+00 -0.18583977731E+03  0.18583977731E+03  0.00000000000E+00 0.  1.
         25    2    1    2    0    0 -0.55033641041E+02  0.17291583792E+03 -0.44544907691E+02  0.22480746231E+03  0.12500223062E+03 0.  0.
         25    2    1    2    0    0  0.55033641041E+02 -0.17291583792E+03  0.18608184312E+03  0.28840902774E+03  0.12499890517E+03 0.  0.
          5    1    3    3  501    0 -0.89326377829E+02  0.76073315280E+02 -0.20658849050E+02  0.11922763571E+03  0.47000000000E+01 0.  1.
         -5    1    3    3    0  501  0.34292736788E+02  0.96842522636E+02 -0.23886058640E+02  0.10557982660E+03  0.47000000000E+01 0.  1.
          5    1    4    4  502    0  0.90160132310E+02 -0.15316797267E+03  0.16556198038E+03  0.24294471935E+03  0.47000000000E+01 0. -1.
         -5    1    4    4    0  502 -0.35126491269E+02 -0.19747865242E+02  0.20519862733E+02  0.45464308387E+02  0.47000000000E+01 0. -1.
<mgrwt>
<rscale>  0 0.49331376E+03</rscale>
<asrwt>0</asrwt>
<pdfrwt beam="1">  1       21 0.50365648E-01 0.49331376E+03</pdfrwt>
<pdfrwt beam="2">  1       21 0.28590735E-01 0.49331376E+03</pdfrwt>
<totfact> 0.39893998E+04</totfact>
</mgrwt>
</event>
<event>
 8    1  0.9175398E-006  0.3604488E+03  0.7546771E-02  0.1058406E+00
         21   -1    0    0  504  503  0.00000000000E+00  0.00000000000E+00  0.49129615756E+02  0.49129615756E+02  0.00000000000E+00 0.  1.
         21   -1    0    0  503  504 -0.00000000000E+00 -0.00000000000E+00 -0.66112545972E+03  0.66112545972E+03  0.00000000000E+00 0.  1.
         25    2    1    2    0    0  0.65670982432E+02  0.41465973283E+02 -0.10099580315E+03  0.17848548320E+03  0.12499924233E+03 0.  0.
         25    2    1    2    0    0 -0.65670982432E+02 -0.41465973283E+02 -0.51100004082E+03  0.53176959228E+03  0.12500301071E+03 0.  0.
          5    1    3    3  501    0 -0.33446605655E+02 -0.10151462155E+02 -0.26082369026E+02  0.43864650776E+02  0.47000000000E+01 0.  1.
         -5    1    3    3    0  501  0.99117588087E+02  0.51617435438E+02 -0.74913434124E+02  0.13462083242E+03  0.47000000000E+01 0.  1.
          5    1    4    4  502    0 -0.99785335390E+02 -0.49943265800E+02 -0.38441469759E+03  0.40031012063E+03  0.47000000000E+01 0.  1.
         -5    1    4    4    0  502  0.34114352957E+02  0.84772925170E+01 -0.12658534323E+03  0.13145947165E+03  0.47000000000E+01 0.  1.
<mgrwt>
<rscale>  0 0.36044883E+03</rscale>
<asrwt>0</asrwt>
<pdfrwt beam="1">  1       21 0.75584022E-02 0.36044883E+03</pdfrwt>
<pdfrwt beam="2">  1       21 0.10171161E+00 0.36044883E+03</pdfrwt>
<totfact> 0.98815658E+04</totfact>
</mgrwt>
</event>
<event>
 8    1  0.9175398E-006  0.3293538E+03  0.7546771E-02  0.1071423E+00
         21   -1    0    0  504  503  0.00000000000E+00  0.00000000000E+00  0.34501752144E+03  0.34501752144E+03  0.00000000000E+00 0.  1.
         21   -1    0    0  503  504 -0.00000000000E+00 -0.00000000000E+00 -0.78600297478E+02  0.78600297478E+02  0.00000000000E+00 0.  1.
         25    2    1    2    0    0  0.19612315394E+02 -0.10490287559E+03  0.12006368775E+03  0.20354161850E+03  0.12499858049E+03 0.  0.
         25    2    1    2    0    0 -0.19612315394E+02  0.10490287559E+03  0.14635353621E+03  0.22007620041E+03  0.12499968082E+03 0.  0.
          5    1    3    3  501    0  0.42638096252E+02 -0.12015926885E+03  0.12053481464E+03  0.17551919748E+03  0.47000000000E+01 0. -1.
         -5    1    3    3    0  501 -0.23025780858E+02  0.15256393260E+02 -0.47112689488E+00  0.28022421023E+02  0.47000000000E+01 0. -1.
          5    1    4    4  502    0 -0.29919842878E+02  0.60279477126E+02  0.85315684199E+00  0.67465770855E+02  0.47000000000E+01 0. -1.
         -5    1    4    4    0  502  0.10307527485E+02  0.44623398465E+02  0.14550037937E+03  0.15261042956E+03  0.47000000000E+01 0. -1.
<mgrwt>
<rscale>  0 0.32935379E+03</rscale>
<asrwt>0</asrwt>
<pdfrwt beam="1">  1       21 0.53079618E-01 0.32935379E+03</pdfrwt>
<pdfrwt beam="2">  1       21 0.12092354E-01 0.32935379E+03</pdfrwt>
<totfact> 0.18763979E+05</totfact>
</mgrwt>
</event>
<event>
 8    1  0.9175398E-006  0.3221295E+03  0.7546771E-02  0.1074673E+00
         21   -1    0    0  504  503  0.00000000000E+00  0.00000000000E+00  0.47175607176E+02  0.47175607176E+02  0.00000000000E+00 0.  1.
         21   -1    0    0  503  504 -0.00000000000E+00 -0.00000000000E+00 -0.54989977693E+03  0.54989977693E+03  0.00000000000E+00 0.  1.
         25    2    1    2    0    0  0.35904950907E+02 -0.76436016448E+02 -0.14677189907E+03  0.21047259388E+03  0.12500036924E+03 0.  0.
         25    2    1    2    0    0 -0.35904950907E+02  0.76436016448E+02 -0.35595227069E+03  0.38660279023E+03  0.12501227257E+03 0.  0.
          5    1    3    3  501    0  0.18871936386E+02 -0.27567745592E+02  0.17621094820E+02  0.38062101395E+02  0.47000000000E+01 0.  1.
         -5    1    3    3    0  501  0.17033014522E+02 -0.48868270855E+02 -0.16439299389E+03  0.17241049248E+03  0.47000000000E+01 0.  1.
          5    1    4    4  502    0 -0.22753747120E+02  0.72713539566E+02 -0.36270424789E+03  0.37065004152E+03  0.47000000000E+01 0. -1.
         -5    1    4    4    0  502 -0.13151203787E+02  0.37224768820E+01  0.67519771984E+01  0.15952748706E+02  0.47000000000E+01 0. -1.
<mgrwt>
<rscale>  0 0.32212951E+03</rscale>
<asrwt>0</asrwt>
<pdfrwt beam="1">  1       21 0.72577851E-02 0.32212951E+03</pdfrwt>
<pdfrwt beam="2">  1       21 0.84599973E-01 0.32212951E+03</pdfrwt>
<totfact> 0.16567749E+05</totfact>
</mgrwt>
</event>
<event>
 8    1  0.9175398E-006  0.2829812E+03  0.7546771E-02  0.1094072E+00
         21   -1    0    0  504  503  0.00000000000E+00  0.00000000000E+00  0.18920221010E+02  0.18920221010E+02  0.00000000000E+00 0.  1.
         21   -1    0    0  503  504 -0.00000000000E+00 -0.00000000000E+00 -0.10581051378E+04  0.10581051378E+04  0.00000000000E+00 0.  1.
         25    2    1    2    0    0 -0.48889805881E+02  0.37178427524E+02 -0.42478370565E+03  0.44703642235E+03  0.12501167038E+03 0.  0.
         25    2    1    2    0    0  0.48889805881E+02 -0.37178427524E+02 -0.61440121114E+03  0.62998893646E+03  0.12499905286E+03 0.  0.
          5    1    3    3  501    0 -0.17750639238E+02 -0.20114611725E+02 -0.13151206438E+02  0.30244454516E+02  0.47000000000E+01 0. -1.
         -5    1    3    3    0  501 -0.31139166643E+02  0.57293039249E+02 -0.41163249921E+03  0.41679196783E+03  0.47000000000E+01 0. -1.
          5    1    4    4  502    0 -0.53574182708E+01 -0.63891013459E+02 -0.45354824900E+03  0.45808172600E+03  0.47000000000E+01 0.  1.
         -5    1    4    4    0  502  0.54247224151E+02  0.26712585936E+02 -0.16085296215E+03  0.17190721046E+03  0.47000000000E+01 0.  1.
<mgrwt>
<rscale>  0 0.28298115E+03</rscale>
<asrwt>0</asrwt>
<pdfrwt beam="1">  1       21 0.29108032E-02 0.28298115E+03</pdfrwt>
<pdfrwt beam="2">  1       21 0.16278541E+00 0.28298115E+03</pdfrwt>
<totfact> 0.15410000E+05</totfact>
</mgrwt>
</event>
<event>
 8    1  0.9175398E-006  0.2636640E+03  0.7546771E-02  0.1104962E+00
         21   -1    0    0  504  503  0.00000000000E+00  0.00000000000E+00  0.80272747554E+02  0.80272747554E+02  0.00000000000E+00 0.  1.
         21   -1    0    0  503  504 -0.00000000000E+00 -0.00000000000E+00 -0.21650776101E+03  0.21650776101E+03  0.00000000000E+00 0.  1.
         25    2    1    2    0    0 -0.31796589880E+02  0.26307492209E+02 -0.76131610945E+02  0.15206960264E+03  0.12500413828E+03 0.  0.
         25    2    1    2    0    0  0.31796589880E+02 -0.26307492209E+02 -0.60103402509E+02  0.14471090593E+03  0.12500288007E+03 0.  0.
          5    1    3    3  501    0 -0.29705223273E+02  0.42714736224E+02  0.18855362225E+02  0.55538848251E+02  0.47000000000E+01 0.  1.
         -5    1    3    3    0  501 -0.20913666073E+01 -0.16407244015E+02 -0.94986973169E+02  0.96530754386E+02  0.47000000000E+01 0.  1.
          5    1    4    4  502    0  0.32498611143E+02  0.36337418072E+02 -0.65351871836E+02  0.81667158827E+02  0.47000000000E+01 0. -1.
         -5    1    4    4    0  502 -0.70202126314E+00 -0.62644910281E+02  0.52484693273E+01  0.63043747099E+02  0.47000000000E+01 0. -1.
<mgrwt>
<rscale>  0 0.26366397E+03</rscale>
<asrwt>0</asrwt>
<pdfrwt beam="1">  1       21 0.12349654E-01 0.26366397E+03</pdfrwt>
<pdfrwt beam="2">  1       21 0.33308886E-01 0.26366397E+03</pdfrwt>
<totfact> 0.47704494E+05</totfact>
</mgrwt>
</event>
<event>
 8    1  0.9175398E-006  0.2575024E+03  0.7546771E-02  0.1108653E+00
         21   -1    0    0  504  503  0.00000000000E+00  0.00000000000E+00  0.10367839857E+03  0.10367839857E+03  0.00000000000E+00 0.  1.
         21   -1    0    0  503  504 -0.00000000000E+00 -0.00000000000E+00 -0.15988738137E+03  0.15988738137E+03  0.00000000000E+00 0.  1.
         25    2    1    2    0    0 -0.30105201986E+02 -0.55297041571E+01 -0.31091117235E+02  0.13239648114E+03  0.12500107932E+03 0.  0.
         25    2    1    2    0    0  0.30105201986E+02  0.55297041571E+01 -0.25117865561E+02  0.13116929880E+03  0.12505029773E+03 0.  0.
          5    1    3    3  501    0  0.30312927733E+02 -0.24155136078E+02 -0.52548110539E+02  0.65465549015E+02  0.47000000000E+01 0. -1.
         -5    1    3    3    0  501 -0.60418129719E+02  0.18625431920E+02  0.21456993304E+02  0.66930932121E+02  0.47000000000E+01 0. -1.
          5    1    4    4  502    0  0.53687889158E+02  0.52881981485E+02 -0.11851797176E+02  0.76429369383E+02  0.47000000000E+01 0. -1.
         -5    1    4    4    0  502 -0.23582687172E+02 -0.47352277327E+02 -0.13266068386E+02  0.54739929419E+02  0.47000000000E+01 0. -1.
<mgrwt>
<rscale>  0 0.25750237E+03</rscale>
<asrwt>0</asrwt>
<pdfrwt beam="1">  1       21 0.15950523E-01 0.25750237E+03</pdfrwt>
<pdfrwt beam="2">  1       21 0.24598058E-01 0.25750237E+03</pdfrwt>
<totfact> 0.54128337E+05</totfact>
</mgrwt>
</event>
<event>
 8    1  0.9175398E-006  0.3459645E+03  0.7546771E-02  0.1064284E+00
         21   -1    0    0  504  503  0.00000000000E+00  0.00000000000E+00  0.59336368533E+03  0.59336368533E+03  0.00000000000E+00 0.  1.
         21   -1    0    0  503  504 -0.00000000000E+00 -0.00000000000E+00 -0.50429219266E+02  0.50429219266E+02  0.00000000000E+00 0.  1.
         25    2    1    2    0    0  0.90831204815E+02  0.54539392640E+02  0.16832319672E+03  0.23491132083E+03  0.12500310790E+03 0.  0.
         25    2    1    2    0    0 -0.90831204815E+02 -0.54539392640E+02  0.37461126935E+03  0.40888158377E+03  0.12500277318E+03 0.  0.
          5    1    3    3  501    0  0.75113177143E+02 -0.26980859929E+02  0.71250828835E+02  0.10709214160E+03  0.47000000000E+01 0. -1.
         -5    1    3    3    0  501  0.15718027672E+02  0.81520252568E+02  0.97072367882E+02  0.12781917923E+03  0.47000000000E+01 0. -1.
          5    1    4    4  502    0  0.12565810350E+02  0.14518912350E+02  0.73091961608E+01  0.21076355333E+02  0.47000000000E+01 0.  1.
         -5    1    4    4    0  502 -0.10339701517E+03 -0.69058304990E+02  0.36730207319E+03  0.38780522844E+03  0.47000000000E+01 0.  1.
<mgrwt>
<rscale>  0 0.34596455E+03</rscale>
<asrwt>0</asrwt>
<pdfrwt beam="1">  1       21 0.91286716E-01 0.34596455E+03</pdfrwt>
<pdfrwt beam="2">  1       21 0.77583418E-02 0.34596455E+03</pdfrwt>
<totfact> 0.12266043E+05</totfact>
</mgrwt>
</event>
<event>
 8    1  0.9175398E-006  0.2782977E+03  0.7546771E-02  0.1096622E+00
         21   -1    0    0  504  503  0.00000000000E+00  0.00000000000E+00  0.27025396118E+02  0.27025396118E+02  0.00000000000E+00 0.  1.
         21   -1    0    0  503  504 -0.00000000000E+00 -0.00000000000E+00 -0.71645189648E+03  0.71645189648E+03  0.00000000000E+00 0.  1.
         25    2    1    2    0    0  0.28641735120E+02 -0.24138652244E+02 -0.47377940096E+03  0.49142162928E+03  0.12500109370E+03 0.  0.
         25    2    1    2    0    0 -0.28641735120E+02  0.24138652244E+02 -0.21564709941E+03  0.25205566332E+03  0.12500144962E+03 0.  0.
          5    1    3    3  501    0 -0.29172472020E+02 -0.52197619843E+02 -0.15511692759E+03  0.16630987904E+03  0.47000000000E+01 0. -1.
         -5    1    3    3    0  501  0.57814207139E+02  0.28058967599E+02 -0.31866247336E+03  0.32511175023E+03  0.47000000000E+01 0. -1.
          5    1    4    4  502    0  0.15623126103E+02  0.40276017159E+02 -0.15113570287E+02  0.46008147477E+02  0.47000000000E+01 0.  1.
         -5    1    4    4    0  502 -0.44264861223E+02 -0.16137364915E+02 -0.20053352912E+03  0.20604751585E+03  0.47000000000E+01 0.  1.
<mgrwt>
<rscale>  0 0.27829766E+03</rscale>
<asrwt>0</asrwt>
<pdfrwt beam="1">  1       21 0.41577527E-02 0.27829766E+03</pdfrwt>
<pdfrwt beam="2">  1       21 0.11022338E+00 0.27829766E+03</pdfrwt>
<totfact> 0.23249183E+05</totfact>
</mgrwt>
</event>
<event>
 8    1  0.9175398E-006  0.3151902E+03  0.7546771E-02  0.1077884E+00
         21   -1    0    0  504  503  0.00000000000E+00  0.00000000000E+00  0.45202499995E+03  0.45202499995E+03  0.00000000000E+00 0. -1.
         21   -1    0    0  503  504 -0.00000000000E+00 -0.00000000000E+00 -0.54944337015E+02  0.54944337015E+02  0.00000000000E+00 0. -1.
         25    2    1    2    0    0  0.77154451696E+02 -0.26804703894E+02  0.11746501731E+03  0.18998264430E+03  0.12499629305E+03 0.  0.
         25    2    1    2    0    0 -0.77154451696E+02  0.26804703894E+02  0.27961564563E+03  0.31698669267E+03  0.12499740990E+03 0.  0.
          5    1    3    3  501    0 -0.20828955463E+02 -0.13810541218E+02  0.80383387977E+02  0.84309877814E+02  0.47000000000E+01 0. -1.
         -5    1    3    3    0  501  0.97983407159E+02 -0.12994162676E+02  0.37081629330E+02  0.10567276648E+03  0.47000000000E+01 0. -1.
          5    1    4    4  502    0 -0.90584375464E+02 -0.19112211389E+02  0.12875865559E+03  0.15865587632E+03  0.47000000000E+01 0. -1.
         -5    1    4    4    0  502  0.13429923768E+02  0.45916915283E+02  0.15085699004E+03  0.15833081634E+03  0.47000000000E+01 0. -1.
<mgrwt>
<rscale>  0 0.31519019E+03</rscale>
<asrwt>0</asrwt>
<pdfrwt beam="1">  1       21 0.69542305E-01 0.31519019E+03</pdfrwt>
<pdfrwt beam="2">  1       21 0.84529752E-02 0.31519019E+03</pdfrwt>
<totfact> 0.19815883E+05</totfact>
</mgrwt>
</event>
<event>
 8    1  0.9175398E-006  0.3032599E+03  0.7546771E-02  0.1083622E+00
         21   -1    0    0  504  503  0.00000000000E+00  0.00000000000E+00  0.54555447144E+02  0.54555447144E+02  0.00000000000E+00 0. -1.
         21   -1    0    0  503  504 -0.00000000000E+00 -0.00000000000E+00 -0.42143611172E+03  0.42143611172E+03  0.00000000000E+00 0. -1.
         25    2    1    2    0    0 -0.41377658841E+02  0.67208974806E+02 -0.23636891758E+03  0.27878751550E+03  0.12499222638E+03 0.  0.
         25    2    1    2    0    0  0.41377658841E+02 -0.67208974806E+02 -0.13051174700E+03  0.19720404336E+03  0.12500784643E+03 0.  0.
          5    1    3    3  501    0  0.37871863847E+02  0.46318904505E+02 -0.13918327091E+03  0.15157107867E+03  0.47000000000E+01 0. -1.
         -5    1    3    3    0  501 -0.79249522688E+02  0.20890070301E+02 -0.97185646664E+02  0.12721643683E+03  0.47000000000E+01 0. -1.
          5    1    4    4  502    0 -0.36927125635E+02 -0.49312080764E+02 -0.30677138663E+02  0.68981669692E+02  0.47000000000E+01 0. -1.
         -5    1    4    4    0  502  0.78304784476E+02 -0.17896894042E+02 -0.99834608336E+02  0.12822237367E+03  0.47000000000E+01 0. -1.
<mgrwt>
<rscale>  0 0.30325986E+03</rscale>
<asrwt>0</asrwt>
<pdfrwt beam="1">  1       21 0.83931459E-02 0.30325986E+03</pdfrwt>
<pdfrwt beam="2">  1       21 0.64836324E-01 0.30325986E+03</pdfrwt>
<totfact> 0.23496728E+05</totfact>
</mgrwt>
</event>
<event>
 8    1  0.9175398E-006  0.4623136E+03  0.7546771E-02  0.1024112E+00
         21   -1    0    0  504  503  0.00000000000E+00  0.00000000000E+00  0.50403634270E+03  0.50403634270E+03  0.00000000000E+00 0.  1.
         21   -1    0    0  503  504 -0.00000000000E+00 -0.00000000000E+00 -0.10601115018E+03  0.10601115018E+03  0.00000000000E+00 0.  1.
         25    2    1    2    0    0 -0.93788140390E+02 -0.89457053471E+02  0.39027751929E+03  0.42981365320E+03  0.12499781888E+03 0.  0.
         25    2    1    2    0    0  0.93788140390E+02  0.89457053471E+02  0.77476732289E+01  0.18023383968E+03  0.12500172332E+03 0.  0.
          5    1    3    3  501    0 -0.39849788201E+02 -0.74895457502E+02  0.87790472356E+02  0.12217443354E+03  0.47000000000E+01 0.  1.
         -5    1    3    3    0  501 -0.53938352189E+02 -0.14561595969E+02  0.30248704693E+03  0.30763921967E+03  0.47000000000E+01 0.  1.
          5    1    4    4  502    0  0.85936077000E+02  0.10986650444E+02  0.39191726529E+02  0.95203977052E+02  0.47000000000E+01 0. -1.
         -5    1    4    4    0  502  0.78520633897E+01  0.78470403027E+02 -0.31444053300E+02  0.85029862628E+02  0.47000000000E+01 0. -1.
<mgrwt>
<rscale>  0 0.46231363E+03</rscale>
<asrwt>0</asrwt>
<pdfrwt beam="1">  1       21 0.77544051E-01 0.46231363E+03</pdfrwt>
<pdfrwt beam="2">  1       21 0.16309408E-01 0.46231363E+03</pdfrwt>
<totfact> 0.45458888E+04</totfact>
</mgrwt>
</event>
<event>
 8    1  0.9175398E-006  0.2567460E+03  0.7546771E-02  0.1109114E+00
         21   -1    0    0  504  503  0.00000000000E+00  0.00000000000E+00  0.83248321561E+02  0.83248321561E+02  0.00000000000E+00 0.  1.
         21   -1    0    0  503  504 -0.00000000000E+00 -0.00000000000E+00 -0.19795752693E+03  0.19795752693E+03  0.00000000000E+00 0.  1.
         25    2    1    2    0    0  0.10797245235E+02 -0.21131601141E+02 -0.38711077834E+02  0.13300569865E+03  0.12501537207E+03 0.  0.
         25    2    1    2    0    0 -0.10797245235E+02  0.21131601141E+02 -0.75998127537E+02  0.14820014984E+03  0.12499777579E+03 0.  0.
          5    1    3    3  501    0  0.45200754042E+02 -0.59866450801E+02 -0.24988745397E+02  0.79206233934E+02  0.47000000000E+01 0.  1.
         -5    1    3    3    0  501 -0.34403508806E+02  0.38734849660E+02 -0.13722332437E+02  0.53799464717E+02  0.47000000000E+01 0.  1.
          5    1    4    4  502    0 -0.61686492929E+02  0.38067018937E+02 -0.35620828379E+02  0.80902748748E+02  0.47000000000E+01 0.  1.
         -5    1    4    4    0  502  0.50889247693E+02 -0.16935417796E+02 -0.40377299157E+02  0.67297401093E+02  0.47000000000E+01 0.  1.
<mgrwt>
<rscale>  0 0.25674604E+03</rscale>
<asrwt>0</asrwt>
<pdfrwt beam="1">  1       21 0.12807434E-01 0.25674604E+03</pdfrwt>
<pdfrwt beam="2">  1       21 0.30455004E-01 0.25674604E+03</pdfrwt>
<totfact> 0.53383263E+05</totfact>
</mgrwt>
</event>
<event>
 8    1  0.9175398E-006  0.3075704E+03  0.7546771E-02  0.1081516E+00
         21   -1    0    0  504  503  0.00000000000E+00  0.00000000000E+00  0.87401543578E+02  0.87401543578E+02  0.00000000000E+00 0.  1.
         21   -1    0    0  503  504 -0.00000000000E+00 -0.00000000000E+00 -0.27058897089E+03  0.27058897089E+03  0.00000000000E+00 0.  1.
         25    2    1    2    0    0  0.24982296928E+02  0.59858437032E+02 -0.19696718784E+02  0.14219893385E+03  0.12500171364E+03 0.  0.
         25    2    1    2    0    0 -0.24982296928E+02 -0.59858437032E+02 -0.16349070853E+03  0.21579158062E+03  0.12501858601E+03 0.  0.
          5    1    3    3  501    0  0.63766503372E+01  0.19848282835E+02 -0.71128918007E+02  0.74269973596E+02  0.47000000000E+01 0. -1.
         -5    1    3    3    0  501  0.18605646591E+02  0.40010154198E+02  0.51432199224E+02  0.67928960253E+02  0.47000000000E+01 0. -1.
          5    1    4    4  502    0  0.43549960755E+02 -0.45115060607E+02 -0.11284624247E+03  0.12918332793E+03  0.47000000000E+01 0.  1.
         -5    1    4    4    0  502 -0.68532257684E+02 -0.14743376425E+02 -0.50644466055E+02  0.86608252688E+02  0.47000000000E+01 0.  1.
<mgrwt>
<rscale>  0 0.30757044E+03</rscale>
<asrwt>0</asrwt>
<pdfrwt beam="1">  1       21 0.13446391E-01 0.30757044E+03</pdfrwt>
<pdfrwt beam="2">  1       21 0.41629073E-01 0.30757044E+03</pdfrwt>
<totfact> 0.25838531E+05</totfact>
</mgrwt>
</event>
<event>
 8    1  0.9175398E-006  0.3955918E+03  0.7546771E-02  0.1045317E+00
         21   -1    0    0  504  503  0.00000000000E+00  0.00000000000E+00  0.40724786179E+03  0.40724786179E+03  0.00000000000E+00 0. -1.
         21   -1    0    0  503  504 -0.00000000000E+00 -0.00000000000E+00 -0.96067329948E+02  0.96067329948E+02  0.00000000000E+00 0. -1.
         25    2    1    2    0    0 -0.85004624339E+02 -0.11308380368E+03  0.23064303647E+03  0.29805198704E+03  0.12500017558E+03 0.  0.
         25    2    1    2    0    0  0.85004624339E+02  0.11308380368E+03  0.80537495368E+02  0.20526320469E+03  0.12503184485E+03 0.  0.
          5    1    3    3  501    0 -0.35968982344E+02 -0.78267082150E+02  0.34611456019E+02  0.92949162056E+02  0.47000000000E+01 0.  1.
         -5    1    3    3    0  501 -0.49035641995E+02 -0.34816721530E+02  0.19603158045E+03  0.20510282499E+03  0.47000000000E+01 0.  1.
          5    1    4    4  502    0  0.37395811543E+02  0.41646262093E+02  0.10218326049E+03  0.11660345874E+03  0.47000000000E+01 0.  1.
         -5    1    4    4    0  502  0.47608812796E+02  0.71437541587E+02 -0.21645765119E+02  0.88659745947E+02  0.47000000000E+01 0.  1.
<mgrwt>
<rscale>  0 0.39559178E+03</rscale>
<asrwt>0</asrwt>
<pdfrwt beam="1">  1       21 0.62653516E-01 0.39559178E+03</pdfrwt>
<pdfrwt beam="2">  1       21 0.14779589E-01 0.39559178E+03</pdfrwt>
<totfact> 0.89466030E+04</totfact>
</mgrwt>
</event>
<event>
 8    1  0.9175398E-006  0.2953563E+03  0.7546771E-02  0.1087585E+00
         21   -1    0    0  504  503  0.00000000000E+00  0.00000000000E+00  0.43162604495E+02  0.43162604495E+02  0.00000000000E+00 0.  1.
         21   -1    0    0  503  504 -0.00000000000E+00 -0.00000000000E+00 -0.50527164226E+03  0.50527164226E+03  0.00000000000E+00 0.  1.
         25    2    1    2    0    0 -0.77055844594E+02 -0.15616862242E+02 -0.22781494715E+03  0.27148820141E+03  0.12499881513E+03 0.  0.
         25    2    1    2    0    0  0.77055844594E+02  0.15616862242E+02 -0.23429409061E+03  0.27694604535E+03  0.12499560619E+03 0.  0.
          5    1    3    3  501    0 -0.59696439288E+02 -0.68868280522E+02 -0.14780090409E+03  0.17370579200E+03  0.47000000000E+01 0.  1.
         -5    1    3    3    0  501 -0.17359405306E+02  0.53251418280E+02 -0.80014043063E+02  0.97782409403E+02  0.47000000000E+01 0.  1.
          5    1    4    4  502    0  0.10627502920E+03  0.19115924300E+02 -0.13311030934E+03  0.17146499598E+03  0.47000000000E+01 0.  1.
         -5    1    4    4    0  502 -0.29219184602E+02 -0.34990620579E+01 -0.10118378127E+03  0.10548104937E+03  0.47000000000E+01 0.  1.
<mgrwt>
<rscale>  0 0.29535633E+03</rscale>
<asrwt>0</asrwt>
<pdfrwt beam="1">  1       21 0.66404007E-02 0.29535633E+03</pdfrwt>
<pdfrwt beam="2">  1       21 0.77734099E-01 0.29535633E+03</pdfrwt>
<totfact> 0.23640774E+05</totfact>
</mgrwt>
</event>
<event>
 8    1  0.9175398E-006  0.3765495E+03  0.7546771E-02  0.1052216E+00
         21   -1    0    0  504  503  0.00000000000E+00  0.00000000000E+00  0.55290744773E+02  0.55290744773E+02  0.00000000000E+00 0. -1.
         21   -1    0    0  503  504 -0.00000000000E+00 -0.00000000000E+00 -0.64110882595E+03  0.64110882595E+03  0.00000000000E+00 0. -1.
         25    2    1    2    0    0 -0.17724785668E+02  0.13958461770E+03 -0.30209587999E+03  0.35592884011E+03  0.12500153994E+03 0.  0.
         25    2    1    2    0    0  0.17724785668E+02 -0.13958461770E+03 -0.28372220119E+03  0.34047073061E+03  0.12499598967E+03 0.  0.
          5    1    3    3  501    0  0.41568844075E+02  0.20612719556E+02 -0.13203206447E+03  0.14002645840E+03  0.47000000000E+01 0.  1.
         -5    1    3    3    0  501 -0.59293629743E+02  0.11897189814E+03 -0.17006381552E+03  0.21590238171E+03  0.47000000000E+01 0.  1.
          5    1    4    4  502    0 -0.34669088818E+02 -0.13014160073E+03 -0.20305904098E+03  0.24370852690E+03  0.47000000000E+01 0. -1.
         -5    1    4    4    0  502  0.52393874486E+02 -0.94430169678E+01 -0.80663160205E+02  0.96762203713E+02  0.47000000000E+01 0. -1.
<mgrwt>
<rscale>  0 0.37654952E+03</rscale>
<asrwt>0</asrwt>
<pdfrwt beam="1">  1       21 0.85062688E-02 0.37654952E+03</pdfrwt>
<pdfrwt beam="2">  1       21 0.98632123E-01 0.37654952E+03</pdfrwt>
<totfact> 0.86063765E+04</totfact>
</mgrwt>
</event>
<event>
 8    1  0.9175398E-006  0.3280424E+03  0.7546771E-02  0.1072006E+00
         21   -1    0    0  504  503  0.00000000000E+00  0.00000000000E+00  0.66835556988E+03  0.66835556988E+03  0.00000000000E+00 0.  1.
         21   -1    0    0  503  504 -0.00000000000E+00 -0.00000000000E+00 -0.40252446427E+02  0.40252446427E+02  0.00000000000E+00 0.  1.
         25    2    1    2    0    0 -0.67796091976E+02  0.39413876132E+02  0.46873516798E+03  0.49141330206E+03  0.12499844807E+03 0.  0.
         25    2    1    2    0    0  0.67796091976E+02 -0.39413876132E+02  0.15936795546E+03  0.21719471424E+03  0.12500253976E+03 0.  0.
          5    1    3    3  501    0 -0.54490045600E+02 -0.45310781766E+01  0.42261992121E+03  0.42616825731E+03  0.47000000000E+01 0.  1.
         -5    1    3    3    0  501 -0.13306046376E+02  0.43944954308E+02  0.46115246776E+02  0.65245044751E+02  0.47000000000E+01 0.  1.
          5    1    4    4  502    0 -0.26232930138E+02  0.95444710234E+01  0.79476159171E+02  0.84367134758E+02  0.47000000000E+01 0. -1.
         -5    1    4    4    0  502  0.94029022114E+02 -0.48958347155E+02  0.79891796293E+02  0.13282757948E+03  0.47000000000E+01 0. -1.
<mgrwt>
<rscale>  0 0.32804236E+03</rscale>
<asrwt>0</asrwt>
<pdfrwt beam="1">  1       21 0.10282393E+00 0.32804236E+03</pdfrwt>
<pdfrwt beam="2">  1       21 0.61926845E-02 0.32804236E+03</pdfrwt>
<totfact> 0.13741683E+05</totfact>
</mgrwt>
</event>
<event>
 8    1  0.9175398E-006  0.2619119E+03  0.7546771E-02  0.1106000E+00
         21   -1    0    0  504  503  0.00000000000E+00  0.00000000000E+00  0.50241052211E+02  0.50241052211E+02  0.00000000000E+00 0. -1.
         21   -1    0    0  503  504 -0.00000000000E+00 -0.00000000000E+00 -0.34134360012E+03  0.34134360012E+03  0.00000000000E+00 0. -1.
         25    2    1    2    0    0  0.35857766751E+02  0.15119965874E+02 -0.14150113132E+03  0.19279153797E+03  0.12502645378E+03 0.  0.
         25    2    1    2    0    0 -0.35857766751E+02 -0.15119965874E+02 -0.14960141659E+03  0.19879311436E+03  0.12499490256E+03 0.  0.
          5    1    3    3  501    0 -0.32001923340E+01  0.53152963495E+02 -0.15871566596E+02  0.55762670179E+02  0.47000000000E+01 0.  1.
         -5    1    3    3    0  501  0.39057959085E+02 -0.38032997621E+02 -0.12562956472E+03  0.13702886779E+03  0.47000000000E+01 0.  1.
          5    1    4    4  502    0 -0.37399776985E+02  0.24185525896E+02 -0.15262705176E+03  0.15906222025E+03  0.47000000000E+01 0.  1.
         -5    1    4    4    0  502  0.15420102334E+01 -0.39305491769E+02  0.30256351688E+01  0.39730894112E+02  0.47000000000E+01 0.  1.
<mgrwt>
<rscale>  0 0.26191191E+03</rscale>
<asrwt>0</asrwt>
<pdfrwt beam="1">  1       21 0.77293925E-02 0.26191191E+03</pdfrwt>
<pdfrwt beam="2">  1       21 0.52514401E-01 0.26191191E+03</pdfrwt>
<totfact> 0.43157685E+05</totfact>
</mgrwt>
</event>
<event>
 8    1  0.9175398E-006  0.3507279E+03  0.7546771E-02  0.1062317E+00
         21   -1    0    0  504  503  0.00000000000E+00  0.00000000000E+00  0.46892221630E+03  0.46892221630E+03  0.00000000000E+00 0. -1.
         21   -1    0    0  503  504 -0.00000000000E+00 -0.00000000000E+00 -0.65581278186E+02  0.65581278186E+02  0.00000000000E+00 0. -1.
         25    2    1    2    0    0  0.19188697069E+02 -0.11998204795E+03  0.17261817199E+03  0.24532746567E+03  0.12499853673E+03 0.  0.
         25    2    1    2    0    0 -0.19188697069E+02  0.11998204795E+03  0.23072276613E+03  0.28917602882E+03  0.12500353157E+03 0.  0.
          5    1    3    3  501    0 -0.22305589080E+02 -0.11504755062E+03  0.75466615622E+02  0.13946604706E+03  0.47000000000E+01 0. -1.
         -5    1    3    3    0  501  0.41494286149E+02 -0.49344973324E+01  0.97151556363E+02  0.10586141861E+03  0.47000000000E+01 0. -1.
          5    1    4    4  502    0 -0.76268825333E+01  0.14266788362E+03  0.21705268697E+03  0.25989662036E+03  0.47000000000E+01 0. -1.
         -5    1    4    4    0  502 -0.11561814536E+02 -0.22685835669E+02  0.13670079161E+02  0.29279408457E+02  0.47000000000E+01 0. -1.
<mgrwt>
<rscale>  0 0.35072792E+03</rscale>
<asrwt>0</asrwt>
<pdfrwt beam="1">  1       21 0.72141877E-01 0.35072792E+03</pdfrwt>
<pdfrwt beam="2">  1       21 0.10089428E-01 0.35072792E+03</pdfrwt>
<totfact> 0.13217697E+05</totfact>
</mgrwt>
</event>
<event>
 8    1  0.9175398E-006  0.2976109E+03  0.7546771E-02  0.1086441E+00
         21   -1    0    0  504  503  0.00000000000E+00  0.00000000000E+00  0.48454719286E+03  0.48454719286E+03  0.00000000000E+00 0. -1.
         21   -1    0    0  503  504 -0.00000000000E+00 -0.00000000000E+00 -0.45698472360E+02  0.45698472360E+02  0.00000000000E+00 0. -1.
         25    2    1    2    0    0  0.35151033022E+01 -0.48913248774E+02  0.33368529631E+03  0.35968788991E+03  0.12499855726E+03 0.  0.
         25    2    1    2    0    0 -0.35151033022E+01  0.48913248774E+02  0.10516342420E+03  0.17055777532E+03  0.12500298827E+03 0.  0.
          5    1    3    3  501    0 -0.39155793223E+02 -0.69527182201E+02  0.15045438622E+03  0.17036964970E+03  0.47000000000E+01 0.  1.
         -5    1    3    3    0  501  0.42670896525E+02  0.20613933427E+02  0.18323091009E+03  0.18931824021E+03  0.47000000000E+01 0.  1.
          5    1    4    4  502    0  0.43759759559E+02  0.12395437512E+02  0.10055153347E+03  0.11045933329E+03  0.47000000000E+01 0.  1.
         -5    1    4    4    0  502 -0.47274862861E+02  0.36517811262E+02  0.46118907250E+01  0.60098442026E+02  0.47000000000E+01 0.  1.
<mgrwt>
<rscale>  0 0.29761093E+03</rscale>
<asrwt>0</asrwt>
<pdfrwt beam="1">  1       21 0.74545718E-01 0.29761093E+03</pdfrwt>
<pdfrwt beam="2">  1       21 0.70305345E-02 0.29761093E+03</pdfrwt>
<totfact> 0.23521171E+05</totfact>
</mgrwt>
</event>
<event>
 8    1  0.9175398E-006  0.2693428E+03  0.7546771E-02  0.1101656E+00
         21   -1    0    0  504  503  0.00000000000E+00  0.00000000000E+00  0.20906516737E+03  0.20906516737E+03  0.00000000000E+00 0. -1.
         21   -1    0    0  503  504 -0.00000000000E+00 -0.00000000000E+00 -0.86749941882E+02  0.86749941882E+02  0.00000000000E+00 0. -1.
         25    2    1    2    0    0  0.30166011886E+02  0.38835034213E+02  0.71569080615E+02  0.15223851518E+03  0.12504512804E+03 0.  0.
         25    2    1    2    0    0 -0.30166011886E+02 -0.38835034213E+02  0.50746144869E+02  0.14357659407E+03  0.12498367490E+03 0.  0.
          5    1    3    3  501    0  0.66257235334E+02  0.57609432204E+02  0.27609801789E+02  0.92158879484E+02  0.47000000000E+01 0.  1.
         -5    1    3    3    0  501 -0.36091223448E+02 -0.18774397991E+02  0.43959278826E+02  0.60079635691E+02  0.47000000000E+01 0.  1.
          5    1    4    4  502    0  0.47673678585E+02 -0.28243696460E+02  0.21315677944E+02  0.59556142804E+02  0.47000000000E+01 0.  1.
         -5    1    4    4    0  502 -0.77839690470E+02 -0.10591337753E+02  0.29430466925E+02  0.84020451268E+02  0.47000000000E+01 0.  1.
<mgrwt>
<rscale>  0 0.26934284E+03</rscale>
<asrwt>0</asrwt>
<pdfrwt beam="1">  1       21 0.32163872E-01 0.26934284E+03</pdfrwt>
<pdfrwt beam="2">  1       21 0.13346145E-01 0.26934284E+03</pdfrwt>
<totfact> 0.44382074E+05</totfact>
</mgrwt>
</event>
<event>
 8    1  0.9175398E-006  0.3282828E+03  0.7546771E-02  0.1071899E+00
         21   -1    0    0  504  503  0.00000000000E+00  0.00000000000E+00  0.13941218380E+03  0.13941218380E+03  0.00000000000E+00 0.  1.
         21   -1    0    0  503  504 -0.00000000000E+00 -0.00000000000E+00 -0.19325716151E+03  0.19325716151E+03  0.00000000000E+00 0.  1.
         25    2    1    2    0    0  0.10254016033E+03 -0.23143893010E+02 -0.10356559197E+02  0.16365344887E+03  0.12500027498E+03 0.  0.
         25    2    1    2    0    0 -0.10254016033E+03  0.23143893010E+02 -0.43488418514E+02  0.16901589644E+03  0.12500002577E+03 0.  0.
          5    1    3    3  501    0 -0.65051941933E+01 -0.45173865300E+02 -0.23471030110E+02  0.51536151507E+02  0.47000000000E+01 0.  1.
         -5    1    3    3    0  501  0.10904535452E+03  0.22029972291E+02  0.13114470914E+02  0.11211729737E+03  0.47000000000E+01 0.  1.
          5    1    4    4  502    0 -0.11064985715E+03  0.36839168000E+02 -0.71197186466E+02  0.13671738934E+03  0.47000000000E+01 0.  1.
         -5    1    4    4    0  502  0.81096968294E+01 -0.13695274990E+02  0.27708767952E+02  0.32298507104E+02  0.47000000000E+01 0.  1.
<mgrwt>
<rscale>  0 0.32828282E+03</rscale>
<asrwt>0</asrwt>
<pdfrwt beam="1">  1       21 0.21448028E-01 0.32828282E+03</pdfrwt>
<pdfrwt beam="2">  1       21 0.29731871E-01 0.32828282E+03</pdfrwt>
<totfact> 0.21223728E+05</totfact>
</mgrwt>
</event>
<event>
 8    1  0.9175398E-006  0.2684988E+03  0.7546771E-02  0.1102142E+00
         21   -1    0    0  504  503  0.00000000000E+00  0.00000000000E+00  0.72458101836E+03  0.72458101836E+03  0.00000000000E+00 0.  1.
         21   -1    0    0  503  504 -0.00000000000E+00 -0.00000000000E+00 -0.24873553791E+02  0.24873553791E+02  0.00000000000E+00 0.  1.
         25    2    1    2    0    0  0.18243052606E+02 -0.30163441383E+02  0.44473832265E+03  0.46331324441E+03  0.12499737859E+03 0.  0.
         25    2    1    2    0    0 -0.18243052606E+02  0.30163441383E+02  0.25496914192E+03  0.28614132774E+03  0.12499981577E+03 0.  0.
          5    1    3    3  501    0 -0.23634913852E+02 -0.17340938128E+01  0.38109689528E+03  0.38186195127E+03  0.47000000000E+01 0. -1.
         -5    1    3    3    0  501  0.41877966458E+02 -0.28429347570E+02  0.63641427364E+02  0.81451293144E+02  0.47000000000E+01 0. -1.
          5    1    4    4  502    0  0.51143514662E+02 -0.44011338337E+01  0.11616442091E+03  0.12708773252E+03  0.47000000000E+01 0.  1.
         -5    1    4    4    0  502 -0.69386567268E+02  0.34564575216E+02  0.13880472101E+03  0.15905359522E+03  0.47000000000E+01 0.  1.
<mgrwt>
<rscale>  0 0.26849883E+03</rscale>
<asrwt>0</asrwt>
<pdfrwt beam="1">  1       21 0.11147399E+00 0.26849883E+03</pdfrwt>
<pdfrwt beam="2">  1       21 0.38267011E-02 0.26849883E+03</pdfrwt>
<totfact> 0.26084500E+05</totfact>
</mgrwt>
</event>
<event>
 8    1  0.9175398E-006  0.2980218E+03  0.7546771E-02  0.1086234E+00
         21   -1    0    0  504  503  0.00000000000E+00  0.00000000000E+00  0.30737818432E+02  0.30737818432E+02  0.00000000000E+00 0.  1.
         21   -1    0    0  503  504 -0.00000000000E+00 -0.00000000000E+00 -0.72237530869E+03  0.72237530869E+03  0.00000000000E+00 0.  1.
         25    2    1    2    0    0 -0.55327865211E+02  0.35175128818E+02 -0.46651083554E+03  0.48739102093E+03  0.12497673883E+03 0.  0.
         25    2    1    2    0    0  0.55327865211E+02 -0.35175128818E+02 -0.22512665472E+03  0.26572210620E+03  0.12501105831E+03 0.  0.
          5    1    3    3  501    0 -0.94124588581E+02  0.36381413757E+02 -0.30870707884E+03  0.32481563381E+03  0.47000000000E+01 0. -1.
         -5    1    3    3    0  501  0.38796723371E+02 -0.12062849393E+01 -0.15780375670E+03  0.16257538712E+03  0.47000000000E+01 0. -1.
          5    1    4    4  502    0  0.41083005357E+02 -0.76022600320E+02 -0.94978964826E+02  0.12849257896E+03  0.47000000000E+01 0. -1.
         -5    1    4    4    0  502  0.14244859854E+02  0.40847471502E+02 -0.13014768989E+03  0.13722952724E+03  0.47000000000E+01 0. -1.
<mgrwt>
<rscale>  0 0.29802175E+03</rscale>
<asrwt>0</asrwt>
<pdfrwt beam="1">  1       21 0.47288950E-02 0.29802175E+03</pdfrwt>
<pdfrwt beam="2">  1       21 0.11113467E+00 0.29802175E+03</pdfrwt>
<totfact> 0.18212785E+05</totfact>
</mgrwt>
</event>
<event>
 8    1  0.9175398E-006  0.2779398E+03  0.7546771E-02  0.1096820E+00
         21   -1    0    0  504  503  0.00000000000E+00  0.00000000000E+00  0.26027871944E+02  0.26027871944E+02  0.00000000000E+00 0.  1.
         21   -1    0    0  503  504 -0.00000000000E+00 -0.00000000000E+00 -0.74199820632E+03  0.74199820632E+03  0.00000000000E+00 0.  1.
         25    2    1    2    0    0 -0.36985515013E+01 -0.12584862667E+02 -0.52185481369E+03  0.53677531785E+03  0.12499294873E+03 0.  0.
         25    2    1    2    0    0  0.36985515013E+01  0.12584862667E+02 -0.19411552069E+03  0.23125076041E+03  0.12499608301E+03 0.  0.
          5    1    3    3  501    0  0.19071323632E+02 -0.53285048268E+02 -0.12663786357E+03  0.13878850905E+03  0.47000000000E+01 0.  1.
         -5    1    3    3    0  501 -0.22769875133E+02  0.40700185601E+02 -0.39521695011E+03  0.39798680880E+03  0.47000000000E+01 0.  1.
          5    1    4    4  502    0  0.18952290674E+02 -0.52174968673E+02 -0.62668064472E+02  0.83849823986E+02  0.47000000000E+01 0. -1.
         -5    1    4    4    0  502 -0.15253739173E+02  0.64759831340E+02 -0.13144745622E+03  0.14740093643E+03  0.47000000000E+01 0. -1.
<mgrwt>
<rscale>  0 0.27793981E+03</rscale>
<asrwt>0</asrwt>
<pdfrwt beam="1">  1       21 0.40042882E-02 0.27793981E+03</pdfrwt>
<pdfrwt beam="2">  1       21 0.11415356E+00 0.27793981E+03</pdfrwt>
<totfact> 0.22735690E+05</totfact>
</mgrwt>
</event>
<event>
 8    1  0.9175398E-006  0.3092653E+03  0.7546771E-02  0.1080699E+00
         21   -1    0    0  504  503  0.00000000000E+00  0.00000000000E+00  0.30756759977E+03  0.30756759977E+03  0.00000000000E+00 0. -1.
         21   -1    0    0  503  504 -0.00000000000E+00 -0.00000000000E+00 -0.77743081284E+02  0.77743081284E+02  0.00000000000E+00 0. -1.
         25    2    1    2    0    0 -0.32750455561E+02 -0.47967138339E+02  0.20221815448E+03  0.24473720522E+03  0.12502271361E+03 0.  0.
         25    2    1    2    0    0  0.32750455561E+02  0.47967138339E+02  0.27606364010E+02  0.14057347584E+03  0.12500140829E+03 0.  0.
          5    1    3    3  501    0 -0.57364982073E+02 -0.14069540731E+02  0.19258782981E+03  0.20149653926E+03  0.47000000000E+01 0. -1.
         -5    1    3    3    0  501  0.24614526512E+02 -0.33897597608E+02  0.96303246666E+01  0.43240665954E+02  0.47000000000E+01 0. -1.
          5    1    4    4  502    0  0.45262220359E+02  0.81961400023E+02  0.40107929045E+02  0.10196605150E+03  0.47000000000E+01 0.  1.
         -5    1    4    4    0  502 -0.12511764798E+02 -0.33994261684E+02 -0.12501565035E+02  0.38607424340E+02  0.47000000000E+01 0.  1.
<mgrwt>
<rscale>  0 0.30926528E+03</rscale>
<asrwt>0</asrwt>
<pdfrwt beam="1">  1       21 0.47318092E-01 0.30926528E+03</pdfrwt>
<pdfrwt beam="2">  1       21 0.11960474E-01 0.30926528E+03</pdfrwt>
<totfact> 0.24498226E+05</totfact>
</mgrwt>
</event>
<event>
 8    1  0.9175398E-006  0.6070768E+03  0.7546771E-02  0.9890832E-01
         21   -1    0    0  504  503  0.00000000000E+00  0.00000000000E+00  0.10144833129E+03  0.10144833129E+03  0.00000000000E+00 0.  1.
         21   -1    0    0  503  504 -0.00000000000E+00 -0.00000000000E+00 -0.90820196960E+03  0.90820196960E+03  0.00000000000E+00 0.  1.
         25    2    1    2    0    0 -0.62218638533E+02 -0.26668687328E+03 -0.33860300893E+03  0.45306918788E+03  0.12500657579E+03 0.  0.
         25    2    1    2    0    0  0.62218638533E+02  0.26668687328E+03 -0.46815062939E+03  0.55658111300E+03  0.12499790477E+03 0.  0.
          5    1    3    3  501    0 -0.15516293973E+02 -0.20139612148E+03 -0.16183306532E+03  0.25886904827E+03  0.47000000000E+01 0.  1.
         -5    1    3    3    0  501 -0.46702344560E+02 -0.65290751806E+02 -0.17676994361E+03  0.19420013961E+03  0.47000000000E+01 0.  1.
          5    1    4    4  502    0 -0.37504604799E+02  0.58315993753E+02 -0.95383780507E+02  0.11801485539E+03  0.47000000000E+01 0.  1.
         -5    1    4    4    0  502  0.99723243332E+02  0.20837087953E+03 -0.37276684888E+03  0.43856625762E+03  0.47000000000E+01 0.  1.
<mgrwt>
<rscale>  0 0.60707685E+03</rscale>
<asrwt>0</asrwt>
<pdfrwt beam="1">  1       21 0.15607436E-01 0.60707685E+03</pdfrwt>
<pdfrwt beam="2">  1       21 0.13972338E+00 0.60707685E+03</pdfrwt>
<totfact> 0.11165101E+04</totfact>
</mgrwt>
</event>
<event>
 8    1  0.9175398E-006  0.3342283E+03  0.7546771E-02  0.1069281E+00
         21   -1    0    0  504  503  0.00000000000E+00  0.00000000000E+00  0.23608666726E+03  0.23608666726E+03  0.00000000000E+00 0.  1.
         21   -1    0    0  503  504 -0.00000000000E+00 -0.00000000000E+00 -0.11829192464E+03  0.11829192464E+03  0.00000000000E+00 0.  1.
         25    2    1    2    0    0 -0.97740953361E+02  0.48597179056E+02  0.38040606969E+02  0.17025689141E+03  0.12500136606E+03 0.  0.
         25    2    1    2    0    0  0.97740953361E+02 -0.48597179056E+02  0.79754135643E+02  0.18412170049E+03  0.12500039465E+03 0.  0.
          5    1    3    3  501    0 -0.80169598922E+02 -0.28493256719E+02  0.81641557083E+01  0.85602416486E+02  0.47000000000E+01 0.  1.
         -5    1    3    3    0  501 -0.17571354439E+02  0.77090435775E+02  0.29876451260E+02  0.84654474925E+02  0.47000000000E+01 0.  1.
          5    1    4    4  502    0  0.81914783730E+02 -0.22743083928E+02 -0.13269231324E+02  0.86171005333E+02  0.47000000000E+01 0. -1.
         -5    1    4    4    0  502  0.15826169631E+02 -0.25854095128E+02  0.93023366967E+02  0.97950695159E+02  0.47000000000E+01 0. -1.
<mgrwt>
<rscale>  0 0.33422834E+03</rscale>
<asrwt>0</asrwt>
<pdfrwt beam="1">  1       21 0.36321026E-01 0.33422834E+03</pdfrwt>
<pdfrwt beam="2">  1       21 0.18198758E-01 0.33422834E+03</pdfrwt>
<totfact> 0.19391567E+05</totfact>
</mgrwt>
</event>
<event>
 8    1  0.9175398E-006  0.3102425E+03  0.7546771E-02  0.1080230E+00
         21   -1    0    0  504  503  0.00000000000E+00  0.00000000000E+00  0.13654645096E+03  0.13654645096E+03  0.00000000000E+00 0.  1.
         21   -1    0    0  503  504 -0.00000000000E+00 -0.00000000000E+00 -0.17622285458E+03  0.17622285458E+03  0.00000000000E+00 0.  1.
         25    2    1    2    0    0 -0.66498775469E+02 -0.18570618177E+02 -0.80907134845E+02  0.16412873359E+03  0.12500128689E+03 0.  0.
         25    2    1    2    0    0  0.66498775469E+02  0.18570618177E+02  0.41230731225E+02  0.14864057194E+03  0.12500836544E+03 0.  0.
          5    1    3    3  501    0 -0.64664514380E+02 -0.49052453696E+02 -0.41722187205E+01  0.81407248096E+02  0.47000000000E+01 0. -1.
         -5    1    3    3    0  501 -0.18342610894E+01  0.30481835519E+02 -0.76734916124E+02  0.82721485498E+02  0.47000000000E+01 0. -1.
          5    1    4    4  502    0  0.20761773784E+02  0.49358904734E+02  0.68401425620E+02  0.86995389268E+02  0.47000000000E+01 0.  1.
         -5    1    4    4    0  502  0.45737001686E+02 -0.30788286557E+02 -0.27170694395E+02  0.61645182668E+02  0.47000000000E+01 0.  1.
<mgrwt>
<rscale>  0 0.31024252E+03</rscale>
<asrwt>0</asrwt>
<pdfrwt beam="1">  1       21 0.21007146E-01 0.31024252E+03</pdfrwt>
<pdfrwt beam="2">  1       21 0.27111208E-01 0.31024252E+03</pdfrwt>
<totfact> 0.26549092E+05</totfact>
</mgrwt>
</event>
<event>
 8    1  0.9175398E-006  0.4367026E+03  0.7546771E-02  0.1031763E+00
         21   -1    0    0  504  503  0.00000000000E+00  0.00000000000E+00  0.73995913164E+03  0.73995913164E+03  0.00000000000E+00 0. -1.
         21   -1    0    0  503  504 -0.00000000000E+00 -0.00000000000E+00 -0.64432335094E+02  0.64432335094E+02  0.00000000000E+00 0. -1.
         25    2    1    2    0    0  0.17620207517E+03  0.29545229204E+02  0.31666022502E+03  0.38447380230E+03  0.12500525862E+03 0.  0.
         25    2    1    2    0    0 -0.17620207517E+03 -0.29545229204E+02  0.35886657152E+03  0.41991766443E+03  0.12500214751E+03 0.  0.
          5    1    3    3  501    0  0.37556675505E+02 -0.89392768727E+01  0.25862458819E+01  0.38976829190E+02  0.47000000000E+01 0. -1.
         -5    1    3    3    0  501  0.13864539966E+03  0.38484506077E+02  0.31407397914E+03  0.34549697311E+03  0.47000000000E+01 0. -1.
          5    1    4    4  502    0 -0.54789187087E+01  0.22889088361E+02  0.11577662509E+03  0.11823808960E+03  0.47000000000E+01 0.  1.
         -5    1    4    4    0  502 -0.17072315646E+03 -0.52434317565E+02  0.24308994643E+03  0.30167957483E+03  0.47000000000E+01 0.  1.
<mgrwt>
<rscale>  0 0.43670262E+03</rscale>
<asrwt>0</asrwt>
<pdfrwt beam="1">  1       21 0.11383986E+00 0.43670262E+03</pdfrwt>
<pdfrwt beam="2">  1       21 0.99126675E-02 0.43670262E+03</pdfrwt>
<totfact> 0.45377791E+04</totfact>
</mgrwt>
</event>
<event>
 8    1  0.9175398E-006  0.3899453E+03  0.7546771E-02  0.1047318E+00
         21   -1    0    0  504  503  0.00000000000E+00  0.00000000000E+00  0.30435798503E+03  0.30435798503E+03  0.00000000000E+00 0.  1.
         21   -1    0    0  503  504 -0.00000000000E+00 -0.00000000000E+00 -0.12490007777E+03  0.12490007777E+03  0.00000000000E+00 0.  1.
         25    2    1    2    0    0  0.17947343411E+02 -0.74738135061E+02  0.23104767625E+03  0.27370941068E+03  0.12500366725E+03 0.  0.
         25    2    1    2    0    0 -0.17947343411E+02  0.74738135061E+02 -0.51589768987E+02  0.15554865213E+03  0.12500393173E+03 0.  0.
          5    1    3    3  501    0  0.46235847657E+01  0.34404203875E+02  0.74776322034E+02  0.82574906099E+02  0.47000000000E+01 0.  1.
         -5    1    3    3    0  501  0.13323758645E+02 -0.10914233894E+03  0.15627135421E+03  0.19113450458E+03  0.47000000000E+01 0.  1.
          5    1    4    4  502    0 -0.27225210117E+01 -0.18890678342E+02  0.26220254794E+02  0.32769827744E+02  0.47000000000E+01 0. -1.
         -5    1    4    4    0  502 -0.15224822399E+02  0.93628813404E+02 -0.77810023781E+02  0.12277882438E+03  0.47000000000E+01 0. -1.
<mgrwt>
<rscale>  0 0.38994531E+03</rscale>
<asrwt>0</asrwt>
<pdfrwt beam="1">  1       21 0.46824305E-01 0.38994531E+03</pdfrwt>
<pdfrwt beam="2">  1       21 0.19215397E-01 0.38994531E+03</pdfrwt>
<totfact> 0.10255702E+05</totfact>
</mgrwt>
</event>
<event>
 8    1  0.9175398E-006  0.2525330E+03  0.7546771E-02  0.1111714E+00
         21   -1    0    0  504  503  0.00000000000E+00  0.00000000000E+00  0.38651570431E+02  0.38651570431E+02  0.00000000000E+00 0. -1.
         21   -1    0    0  503  504 -0.00000000000E+00 -0.00000000000E+00 -0.41248585804E+03  0.41248585804E+03  0.00000000000E+00 0. -1.
         25    2    1    2    0    0  0.13599003510E+02 -0.94049888313E+01 -0.17527041045E+03  0.21591137108E+03  0.12499846667E+03 0.  0.
         25    2    1    2    0    0 -0.13599003510E+02  0.94049888313E+01 -0.19856387716E+03  0.23522605739E+03  0.12502119041E+03 0.  0.
          5    1    3    3  501    0 -0.12658528648E+02 -0.24327539628E+02 -0.18241294639E+03  0.18452273719E+03  0.47000000000E+01 0. -1.
         -5    1    3    3    0  501  0.26257532158E+02  0.14922550796E+02  0.71425359412E+01  0.31388633882E+02  0.47000000000E+01 0. -1.
          5    1    4    4  502    0  0.42481615830E+02 -0.27623608519E+02 -0.12762309900E+03  0.13739540323E+03  0.47000000000E+01 0.  1.
         -5    1    4    4    0  502 -0.56080619340E+02  0.37028597350E+02 -0.70940778162E+02  0.97830654161E+02  0.47000000000E+01 0.  1.
<mgrwt>
<rscale>  0 0.25253298E+03</rscale>
<asrwt>0</asrwt>
<pdfrwt beam="1">  1       21 0.59463954E-02 0.25253298E+03</pdfrwt>
<pdfrwt beam="2">  1       21 0.63459363E-01 0.25253298E+03</pdfrwt>
<totfact> 0.45372329E+05</totfact>
</mgrwt>
</event>
<event>
 8    1  0.9175398E-006  0.3016663E+03  0.7546771E-02  0.1084411E+00
         21   -1    0    0  504  503  0.00000000000E+00  0.00000000000E+00  0.87241099715E+03  0.87241099715E+03  0.00000000000E+00 0.  1.
         21   -1    0    0  503  504 -0.00000000000E+00 -0.00000000000E+00 -0.26077892945E+02  0.26077892945E+02  0.00000000000E+00 0.  1.
         25    2    1    2    0    0 -0.53953946166E+02 -0.40056967675E+02  0.27093225564E+03  0.30585178630E+03  0.12500175626E+03 0.  0.
         25    2    1    2    0    0  0.53953946166E+02  0.40056967675E+02  0.57540084856E+03  0.59263710380E+03  0.12496804113E+03 0.  0.
          5    1    3    3  501    0 -0.52828503136E+02 -0.83103046137E+02  0.19041369718E+03  0.21442115823E+03  0.47000000000E+01 0.  1.
         -5    1    3    3    0  501 -0.11254430306E+01  0.43046078462E+02  0.80518558458E+02  0.91430628069E+02  0.47000000000E+01 0.  1.
          5    1    4    4  502    0  0.36816642735E+02  0.83672388576E+02  0.43569501723E+03  0.44520643732E+03  0.47000000000E+01 0. -1.
         -5    1    4    4    0  502  0.17137303431E+02 -0.43615420902E+02  0.13970583134E+03  0.14743066648E+03  0.47000000000E+01 0. -1.
<mgrwt>
<rscale>  0 0.30166631E+03</rscale>
<asrwt>0</asrwt>
<pdfrwt beam="1">  1       21 0.13421705E+00 0.30166631E+03</pdfrwt>
<pdfrwt beam="2">  1       21 0.40119842E-02 0.30166631E+03</pdfrwt>
<totfact> 0.14955280E+05</totfact>
</mgrwt>
</event>
<event>
 8    1  0.9175398E-006  0.2723301E+03  0.7546771E-02  0.1099953E+00
         21   -1    0    0  504  503  0.00000000000E+00  0.00000000000E+00  0.45735963508E+03  0.45735963508E+03  0.00000000000E+00 0.  1.
         21   -1    0    0  503  504 -0.00000000000E+00 -0.00000000000E+00 -0.40539028372E+02  0.40539028372E+02  0.00000000000E+00 0.  1.
         25    2    1    2    0    0 -0.26452122806E+02  0.17887184710E+02  0.28803067274E+03  0.31560271262E+03  0.12499495028E+03 0.  0.
         25    2    1    2    0    0  0.26452122806E+02 -0.17887184710E+02  0.12878993396E+03  0.18229595083E+03  0.12500120168E+03 0.  0.
          5    1    3    3  501    0  0.39969174595E+02  0.82373322500E+01  0.20329200759E+03  0.20740086526E+03  0.47000000000E+01 0. -1.
         -5    1    3    3    0  501 -0.66421297401E+02  0.96498524599E+01  0.84738665157E+02  0.10820184737E+03  0.47000000000E+01 0. -1.
          5    1    4    4  502    0  0.22357028482E+02  0.19378845013E+02  0.13977365001E+03  0.14294803110E+03  0.47000000000E+01 0. -1.
         -5    1    4    4    0  502  0.40950943238E+01 -0.37266029723E+02 -0.10983716050E+02  0.39347919731E+02  0.47000000000E+01 0. -1.
<mgrwt>
<rscale>  0 0.27233006E+03</rscale>
<asrwt>0</asrwt>
<pdfrwt beam="1">  1       21 0.70363017E-01 0.27233006E+03</pdfrwt>
<pdfrwt beam="2">  1       21 0.62367739E-02 0.27233006E+03</pdfrwt>
<totfact> 0.33145733E+05</totfact>
</mgrwt>
</event>
<event>
 8    1  0.9175398E-006  0.3055658E+03  0.7546771E-02  0.1082491E+00
         21   -1    0    0  504  503  0.00000000000E+00  0.00000000000E+00  0.42465145606E+02  0.42465145606E+02  0.00000000000E+00 0. -1.
         21   -1    0    0  503  504 -0.00000000000E+00 -0.00000000000E+00 -0.54968885607E+03  0.54968885607E+03  0.00000000000E+00 0. -1.
         25    2    1    2    0    0 -0.37381000991E+02 -0.77236610350E+02 -0.28997887107E+03  0.32722272140E+03  0.12499652202E+03 0.  0.
         25    2    1    2    0    0  0.37381000991E+02  0.77236610350E+02 -0.21724483940E+03  0.26493128028E+03  0.12502171738E+03 0.  0.
          5    1    3    3  501    0 -0.53187310394E+02  0.63324258697E+01 -0.18150302636E+03  0.18929983672E+03  0.47000000000E+01 0. -1.
         -5    1    3    3    0  501  0.15806309402E+02 -0.83569036220E+02 -0.10847584472E+03  0.13792288468E+03  0.47000000000E+01 0. -1.
          5    1    4    4  502    0  0.28404911368E+02  0.88977259557E+02 -0.69857384292E+02  0.11673018396E+03  0.47000000000E+01 0.  1.
         -5    1    4    4    0  502  0.89760896237E+01 -0.11740649207E+02 -0.14738745510E+03  0.14820109632E+03  0.47000000000E+01 0.  1.
<mgrwt>
<rscale>  0 0.30556582E+03</rscale>
<asrwt>0</asrwt>
<pdfrwt beam="1">  1       21 0.65330994E-02 0.30556582E+03</pdfrwt>
<pdfrwt beam="2">  1       21 0.84567516E-01 0.30556582E+03</pdfrwt>
<totfact> 0.19999294E+05</totfact>
</mgrwt>
</event>
<event>
 8    1  0.9175398E-006  0.2683832E+03  0.7546771E-02  0.1102209E+00
         21   -1    0    0  504  503  0.00000000000E+00  0.00000000000E+00  0.18400311404E+02  0.18400311404E+02  0.00000000000E+00 0.  1.
         21   -1    0    0  503  504 -0.00000000000E+00 -0.00000000000E+00 -0.97864582737E+03  0.97864582737E+03  0.00000000000E+00 0.  1.
         25    2    1    2    0    0  0.31081784412E+02  0.53467829725E+01 -0.61850985683E+03  0.63180210171E+03  0.12499914925E+03 0.  0.
         25    2    1    2    0    0 -0.31081784412E+02 -0.53467829725E+01 -0.34173565913E+03  0.36524403706E+03  0.12500112191E+03 0.  0.
          5    1    3    3  501    0  0.61657157187E+02  0.38559470616E+02 -0.24687385687E+03  0.25740479602E+03  0.47000000000E+01 0. -1.
         -5    1    3    3    0  501 -0.30575372775E+02 -0.33212687643E+02 -0.37163599996E+03  0.37439730569E+03  0.47000000000E+01 0. -1.
          5    1    4    4  502    0 -0.79535089024E+02 -0.64284730875E+01 -0.22411526752E+03  0.23794305787E+03  0.47000000000E+01 0. -1.
         -5    1    4    4    0  502  0.48453304612E+02  0.10816901150E+01 -0.11762039161E+03  0.12730097919E+03  0.47000000000E+01 0. -1.
<mgrwt>
<rscale>  0 0.26838322E+03</rscale>
<asrwt>0</asrwt>
<pdfrwt beam="1">  1       21 0.28308176E-02 0.26838322E+03</pdfrwt>
<pdfrwt beam="2">  1       21 0.15056087E+00 0.26838322E+03</pdfrwt>
<totfact> 0.20044273E+05</totfact>
</mgrwt>
</event>
<event>
 8    1  0.9175398E-006  0.3902815E+03  0.7546771E-02  0.1047198E+00
         21   -1    0    0  504  503  0.00000000000E+00  0.00000000000E+00  0.66142276699E+02  0.66142276699E+02  0.00000000000E+00 0.  1.
         21   -1    0    0  503  504 -0.00000000000E+00 -0.00000000000E+00 -0.57572720454E+03  0.57572720454E+03  0.00000000000E+00 0.  1.
         25    2    1    2    0    0  0.82742792842E+02  0.63645436298E+02 -0.43160408657E+03  0.46130290095E+03  0.12498466925E+03 0.  0.
         25    2    1    2    0    0 -0.82742792842E+02 -0.63645436298E+02 -0.77980841262E+02  0.18056658029E+03  0.12500466785E+03 0.  0.
          5    1    3    3  501    0  0.81259151301E+02  0.44371708473E+02 -0.43156444658E+03  0.44140894840E+03  0.47000000000E+01 0.  1.
         -5    1    3    3    0  501  0.14836415407E+01  0.19273727825E+02 -0.39639998525E-01  0.19893952544E+02  0.47000000000E+01 0.  1.
          5    1    4    4  502    0 -0.27747151686E+02 -0.15456715047E+02 -0.99214154956E+02  0.10428016595E+03  0.47000000000E+01 0.  1.
         -5    1    4    4    0  502 -0.54995641156E+02 -0.48188721251E+02  0.21233313694E+02  0.76286414337E+02  0.47000000000E+01 0.  1.
<mgrwt>
<rscale>  0 0.39028148E+03</rscale>
<asrwt>0</asrwt>
<pdfrwt beam="1">  1       21 0.10175735E-01 0.39028148E+03</pdfrwt>
<pdfrwt beam="2">  1       21 0.88573418E-01 0.39028148E+03</pdfrwt>
<totfact> 0.80466741E+04</totfact>
</mgrwt>
</event>
<event>
 8    1  0.9175398E-006  0.2682941E+03  0.7546771E-02  0.1102260E+00
         21   -1    0    0  504  503  0.00000000000E+00  0.00000000000E+00  0.75515484504E+02  0.75515484504E+02  0.00000000000E+00 0.  1.
         21   -1    0    0  503  504 -0.00000000000E+00 -0.00000000000E+00 -0.23830122283E+03  0.23830122283E+03  0.00000000000E+00 0.  1.
         25    2    1    2    0    0 -0.25650573789E+02 -0.34482477831E+02 -0.54704257819E+02  0.14307003405E+03  0.12501794114E+03 0.  0.
         25    2    1    2    0    0  0.25650573789E+02  0.34482477831E+02 -0.10808148051E+03  0.17074667328E+03  0.12500330714E+03 0.  0.
          5    1    3    3  501    0  0.31908479161E+02  0.25288972149E+02  0.42007058436E+01  0.41199746168E+02  0.47000000000E+01 0. -1.
         -5    1    3    3    0  501 -0.57559052950E+02 -0.59771449980E+02 -0.58904963663E+02  0.10187028788E+03  0.47000000000E+01 0. -1.
          5    1    4    4  502    0 -0.45220208594E+02 -0.85392158031E+01 -0.22289957715E+02  0.51348979413E+02  0.47000000000E+01 0. -1.
         -5    1    4    4    0  502  0.70870782383E+02  0.43021693634E+02 -0.85791522792E+02  0.11939769387E+03  0.47000000000E+01 0. -1.
<mgrwt>
<rscale>  0 0.26829411E+03</rscale>
<asrwt>0</asrwt>
<pdfrwt beam="1">  1       21 0.11617767E-01 0.26829411E+03</pdfrwt>
<pdfrwt beam="2">  1       21 0.36661726E-01 0.26829411E+03</pdfrwt>
<totfact> 0.43924576E+05</totfact>
</mgrwt>
</event>
<event>
 8    1  0.9175398E-006  0.2703807E+03  0.7546771E-02  0.1101062E+00
         21   -1    0    0  504  503  0.00000000000E+00  0.00000000000E+00  0.18919225112E+03  0.18919225112E+03  0.00000000000E+00 0.  1.
         21   -1    0    0  503  504 -0.00000000000E+00 -0.00000000000E+00 -0.96602454315E+02  0.96602454315E+02  0.00000000000E+00 0.  1.
         25    2    1    2    0    0  0.49207684090E+02  0.15144787311E+02  0.44586363925E+02  0.14234581880E+03  0.12499450998E+03 0.  0.
         25    2    1    2    0    0 -0.49207684090E+02 -0.15144787311E+02  0.48003432883E+02  0.14344888664E+03  0.12498997061E+03 0.  0.
          5    1    3    3  501    0  0.59408260165E+02 -0.11778681389E+02  0.77431261656E+02  0.98416304507E+02  0.47000000000E+01 0. -1.
         -5    1    3    3    0  501 -0.10200576075E+02  0.26923468699E+02 -0.32844897731E+02  0.43929514293E+02  0.47000000000E+01 0. -1.
          5    1    4    4  502    0  0.53461452779E+01 -0.32502340774E+02 -0.31197438287E+02  0.45610893225E+02  0.47000000000E+01 0.  1.
         -5    1    4    4    0  502 -0.54553829368E+02  0.17357553463E+02  0.79200871170E+02  0.97837993413E+02  0.47000000000E+01 0.  1.
<mgrwt>
<rscale>  0 0.27038074E+03</rscale>
<asrwt>0</asrwt>
<pdfrwt beam="1">  1       21 0.29106500E-01 0.27038074E+03</pdfrwt>
<pdfrwt beam="2">  1       21 0.14861916E-01 0.27038074E+03</pdfrwt>
<totfact> 0.44385702E+05</totfact>
</mgrwt>
</event>
<event>
 8    1  0.9175398E-006  0.3202275E+03  0.7546771E-02  0.1075545E+00
         21   -1    0    0  504  503  0.00000000000E+00  0.00000000000E+00  0.10578238234E+04  0.10578238234E+04  0.00000000000E+00 0. -1.
         21   -1    0    0  503  504 -0.00000000000E+00 -0.00000000000E+00 -0.24235050364E+02  0.24235050364E+02  0.00000000000E+00 0. -1.
         25    2    1    2    0    0  0.40949345463E+02  0.52722896868E+02  0.76866908976E+03  0.78161765346E+03  0.12496973196E+03 0.  0.
         25    2    1    2    0    0 -0.40949345463E+02 -0.52722896868E+02  0.26491968331E+03  0.30044122033E+03  0.12500374203E+03 0.  0.
          5    1    3    3  501    0  0.58030215969E+02 -0.11270943741E+02  0.54732959547E+03  0.55053275671E+03  0.47000000000E+01 0. -1.
         -5    1    3    3    0  501 -0.17080870507E+02  0.63993840609E+02  0.22133949429E+03  0.23108489675E+03  0.47000000000E+01 0. -1.
          5    1    4    4  502    0  0.23861155801E+02 -0.69998431838E+02  0.12799508481E+03  0.14789850219E+03  0.47000000000E+01 0.  1.
         -5    1    4    4    0  502 -0.64810501264E+02  0.17275534971E+02  0.13692459850E+03  0.15254271814E+03  0.47000000000E+01 0.  1.
<mgrwt>
<rscale>  0 0.32022750E+03</rscale>
<asrwt>0</asrwt>
<pdfrwt beam="1">  1       21 0.16274209E+00 0.32022750E+03</pdfrwt>
<pdfrwt beam="2">  1       21 0.37284701E-02 0.32022750E+03</pdfrwt>
<totfact> 0.10056332E+05</totfact>
</mgrwt>
</event>
<event>
 8    1  0.9175398E-006  0.3228887E+03  0.7546771E-02  0.1074327E+00
         21   -1    0    0  504  503  0.00000000000E+00  0.00000000000E+00  0.15765599889E+03  0.15765599889E+03  0.00000000000E+00 0. -1.
         21   -1    0    0  503  504 -0.00000000000E+00 -0.00000000000E+00 -0.16532372422E+03  0.16532372422E+03  0.00000000000E+00 0. -1.
         25    2    1    2    0    0 -0.57794546215E+02 -0.28603380935E+02  0.75440295388E+02  0.15960758030E+03  0.12499991420E+03 0.  0.
         25    2    1    2    0    0  0.57794546215E+02  0.28603380935E+02 -0.83108020721E+02  0.16337214280E+03  0.12500060385E+03 0.  0.
          5    1    3    3  501    0 -0.36567740466E+02 -0.63805624359E+02  0.89477383031E+02  0.11591656231E+03  0.47000000000E+01 0. -1.
         -5    1    3    3    0  501 -0.21226805748E+02  0.35202243424E+02 -0.14037087643E+02  0.43691018000E+02  0.47000000000E+01 0. -1.
          5    1    4    4  502    0  0.59836537953E+02 -0.39811641661E+02 -0.41082525835E+02  0.82917079150E+02  0.47000000000E+01 0. -1.
         -5    1    4    4    0  502 -0.20419917380E+01  0.68415022595E+02 -0.42025494887E+02  0.80455063653E+02  0.47000000000E+01 0. -1.
<mgrwt>
<rscale>  0 0.32288869E+03</rscale>
<asrwt>0</asrwt>
<pdfrwt beam="1">  1       21 0.24254769E-01 0.32288869E+03</pdfrwt>
<pdfrwt beam="2">  1       21 0.25434419E-01 0.32288869E+03</pdfrwt>
<totfact> 0.22775077E+05</totfact>
</mgrwt>
</event>
<event>
 8    1  0.9175398E-006  0.4248242E+03  0.7546771E-02  0.1035508E+00
         21   -1    0    0  504  503  0.00000000000E+00  0.00000000000E+00  0.10649415503E+04  0.10649415503E+04  0.00000000000E+00 0.  1.
         21   -1    0    0  503  504 -0.00000000000E+00 -0.00000000000E+00 -0.42367487486E+02  0.42367487486E+02  0.00000000000E+00 0.  1.
         25    2    1    2    0    0  0.85207663576E+02  0.10320649564E+03  0.79172964350E+03  0.81264395761E+03  0.12506976756E+03 0.  0.
         25    2    1    2    0    0 -0.85207663576E+02 -0.10320649564E+03  0.23084441929E+03  0.29466508016E+03  0.12500574736E+03 0.  0.
          5    1    3    3  501    0 -0.99694861129E+01 -0.17063840008E+02  0.34608983705E+02  0.40130250962E+02  0.47000000000E+01 0. -1.
         -5    1    3    3    0  501  0.95177149689E+02  0.12027033565E+03  0.75712065980E+03  0.77251370664E+03  0.47000000000E+01 0. -1.
          5    1    4    4  502    0 -0.10883624283E+03 -0.64129593518E+02  0.11835966656E+03  0.17317341940E+03  0.47000000000E+01 0. -1.
         -5    1    4    4    0  502  0.23628579256E+02 -0.39076902126E+02  0.11248475273E+03  0.12149166076E+03  0.47000000000E+01 0. -1.
<mgrwt>
<rscale>  0 0.42482419E+03</rscale>
<asrwt>0</asrwt>
<pdfrwt beam="1">  1       21 0.16383714E+00 0.42482419E+03</pdfrwt>
<pdfrwt beam="2">  1       21 0.65180758E-02 0.42482419E+03</pdfrwt>
<totfact> 0.36612093E+04</totfact>
</mgrwt>
</event>
<event>
 8    1  0.9175398E-006  0.3800002E+03  0.7546771E-02  0.1050934E+00
         21   -1    0    0  504  503  0.00000000000E+00  0.00000000000E+00  0.89450586892E+02  0.89450586892E+02  0.00000000000E+00 0.  1.
         21   -1    0    0  503  504 -0.00000000000E+00 -0.00000000000E+00 -0.40357513752E+03  0.40357513752E+03  0.00000000000E+00 0.  1.
         25    2    1    2    0    0  0.58930267938E+02  0.10507967527E+03 -0.56900861797E+02  0.18269594751E+03  0.12500234610E+03 0.  0.
         25    2    1    2    0    0 -0.58930267938E+02 -0.10507967527E+03 -0.25722368883E+03  0.31032977690E+03  0.12500411873E+03 0.  0.
          5    1    3    3  501    0 -0.17426112536E+02  0.61482065474E+01 -0.54364155782E+02  0.57610947534E+02  0.47000000000E+01 0.  1.
         -5    1    3    3    0  501  0.76356380475E+02  0.98931468723E+02 -0.25367060153E+01  0.12508499998E+03  0.47000000000E+01 0.  1.
          5    1    4    4  502    0 -0.80298426704E+02 -0.67501606910E+02 -0.24277122912E+03  0.26450758771E+03  0.47000000000E+01 0. -1.
         -5    1    4    4    0  502  0.21368158765E+02 -0.37578068360E+02 -0.14452459717E+02  0.45822189194E+02  0.47000000000E+01 0. -1.
<mgrwt>
<rscale>  0 0.38000017E+03</rscale>
<asrwt>0</asrwt>
<pdfrwt beam="1">  1       21 0.13761629E-01 0.38000017E+03</pdfrwt>
<pdfrwt beam="2">  1       21 0.62088482E-01 0.38000017E+03</pdfrwt>
<totfact> 0.10444345E+05</totfact>
</mgrwt>
</event>
<event>
 8    1  0.9175398E-006  0.2999122E+03  0.7546771E-02  0.1085284E+00
         21   -1    0    0  504  503  0.00000000000E+00  0.00000000000E+00  0.15721466248E+03  0.15721466248E+03  0.00000000000E+00 0.  1.
         21   -1    0    0  503  504 -0.00000000000E+00 -0.00000000000E+00 -0.14303268331E+03  0.14303268331E+03  0.00000000000E+00 0.  1.
         25    2    1    2    0    0  0.32409819364E+02 -0.33672458620E+02  0.75554572973E+02  0.15335478959E+03  0.12499986853E+03 0.  0.
         25    2    1    2    0    0 -0.32409819364E+02  0.33672458620E+02 -0.61372593806E+02  0.14689255619E+03  0.12500638757E+03 0.  0.
          5    1    3    3  501    0 -0.14312969122E+02 -0.71541719338E+02  0.42530739926E+02  0.84581514113E+02  0.47000000000E+01 0.  1.
         -5    1    3    3    0  501  0.46722788486E+02  0.37869260718E+02  0.33023833047E+02  0.68773275481E+02  0.47000000000E+01 0.  1.
          5    1    4    4  502    0 -0.23177811342E+02  0.77355661974E+02 -0.62121421093E+02  0.10199152091E+03  0.47000000000E+01 0.  1.
         -5    1    4    4    0  502 -0.92320080223E+01 -0.43683203354E+02  0.74882728624E+00  0.44901035286E+02  0.47000000000E+01 0.  1.
<mgrwt>
<rscale>  0 0.29991222E+03</rscale>
<asrwt>0</asrwt>
<pdfrwt beam="1">  1       21 0.24186871E-01 0.29991222E+03</pdfrwt>
<pdfrwt beam="2">  1       21 0.22005028E-01 0.29991222E+03</pdfrwt>
<totfact> 0.30373756E+05</totfact>
</mgrwt>
</event>
<event>
 8    1  0.9175398E-006  0.3093796E+03  0.7546771E-02  0.1080644E+00
         21   -1    0    0  504  503  0.00000000000E+00  0.00000000000E+00  0.14481103645E+04  0.14481103645E+04  0.00000000000E+00 0.  1.
         21   -1    0    0  503  504 -0.00000000000E+00 -0.00000000000E+00 -0.16524252200E+02  0.16524252200E+02  0.00000000000E+00 0.  1.
         25    2    1    2    0    0 -0.19811559283E+02  0.87494096900E+02  0.63999079553E+03  0.65822538672E+03  0.12499890594E+03 0.  0.
         25    2    1    2    0    0  0.19811559283E+02 -0.87494096900E+02  0.79159531680E+03  0.80640923001E+03  0.12499994317E+03 0.  0.
          5    1    3    3  501    0  0.12616380110E+02  0.11177675176E+03  0.44563531618E+03  0.45963696577E+03  0.47000000000E+01 0.  1.
         -5    1    3    3    0  501 -0.32427939393E+02 -0.24282654855E+02  0.19435547935E+03  0.19858842095E+03  0.47000000000E+01 0.  1.
          5    1    4    4  502    0  0.54263364916E+02  0.11889810404E+01  0.20430308417E+03  0.21144211182E+03  0.47000000000E+01 0. -1.
         -5    1    4    4    0  502 -0.34451805633E+02 -0.88683077940E+02  0.58729223263E+03  0.59496711819E+03  0.47000000000E+01 0. -1.
<mgrwt>
<rscale>  0 0.30937964E+03</rscale>
<asrwt>0</asrwt>
<pdfrwt beam="1">  1       21 0.22278611E+00 0.30937964E+03</pdfrwt>
<pdfrwt beam="2">  1       21 0.25421938E-02 0.30937964E+03</pdfrwt>
<totfact> 0.75567149E+04</totfact>
</mgrwt>
</event>
<event>
 8    1  0.9175398E-006  0.3298518E+03  0.7546771E-02  0.1071202E+00
         21   -1    0    0  504  503  0.00000000000E+00  0.00000000000E+00  0.43853771592E+03  0.43853771592E+03  0.00000000000E+00 0.  1.
         21   -1    0    0  503  504 -0.00000000000E+00 -0.00000000000E+00 -0.62025562472E+02  0.62025562472E+02  0.00000000000E+00 0.  1.
         25    2    1    2    0    0  0.15929900812E+02  0.10405276665E+03  0.15450271065E+03  0.22489247806E+03  0.12499919641E+03 0.  0.
         25    2    1    2    0    0 -0.15929900812E+02 -0.10405276665E+03  0.22200944280E+03  0.27567080033E+03  0.12500182989E+03 0.  0.
          5    1    3    3  501    0  0.19276203770E+02  0.55935450046E+02  0.16496281672E+03  0.17531448173E+03  0.47000000000E+01 0. -1.
         -5    1    3    3    0  501 -0.33463029578E+01  0.48117316606E+02 -0.10460106074E+02  0.49577996329E+02  0.47000000000E+01 0. -1.
          5    1    4    4  502    0 -0.68989641826E+02 -0.54658933740E+02  0.14589364716E+03  0.17045297298E+03  0.47000000000E+01 0. -1.
         -5    1    4    4    0  502  0.53059741014E+02 -0.49393832913E+02  0.76115795643E+02  0.10521782735E+03  0.47000000000E+01 0. -1.
<mgrwt>
<rscale>  0 0.32985178E+03</rscale>
<asrwt>0</asrwt>
<pdfrwt beam="1">  1       21 0.67467339E-01 0.32985178E+03</pdfrwt>
<pdfrwt beam="2">  1       21 0.95423945E-02 0.32985178E+03</pdfrwt>
<totfact> 0.17040572E+05</totfact>
</mgrwt>
</event>
<event>
 8    1  0.9175398E-006  0.5137289E+03  0.7546771E-02  0.1010256E+00
         21   -1    0    0  504  503  0.00000000000E+00  0.00000000000E+00  0.21957789072E+03  0.21957789072E+03  0.00000000000E+00 0.  1.
         21   -1    0    0  503  504 -0.00000000000E+00 -0.00000000000E+00 -0.30048263190E+03  0.30048263190E+03  0.00000000000E+00 0.  1.
         25    2    1    2    0    0  0.13861847640E+03  0.16479744099E+03  0.23443365834E+02  0.25009591566E+03  0.12500038827E+03 0.  0.
         25    2    1    2    0    0 -0.13861847640E+03 -0.16479744099E+03 -0.10434810701E+03  0.26996460697E+03  0.12497632985E+03 0.  0.
          5    1    3    3  501    0  0.72954247784E+02  0.31887819889E+02  0.56994184596E+02  0.98028477519E+02  0.47000000000E+01 0. -1.
         -5    1    3    3    0  501  0.65664228617E+02  0.13290962110E+03 -0.33550818763E+02  0.15206743814E+03  0.47000000000E+01 0. -1.
          5    1    4    4  502    0 -0.86490402154E-01  0.16997618769E+02  0.21482784966E+01  0.17766024454E+02  0.47000000000E+01 0. -1.
         -5    1    4    4    0  502 -0.13853198600E+03 -0.18179505976E+03 -0.10649638551E+03  0.25219858252E+03  0.47000000000E+01 0. -1.
<mgrwt>
<rscale>  0 0.51372889E+03</rscale>
<asrwt>0</asrwt>
<pdfrwt beam="1">  1       21 0.33781214E-01 0.51372889E+03</pdfrwt>
<pdfrwt beam="2">  1       21 0.46228097E-01 0.51372889E+03</pdfrwt>
<totfact> 0.34132617E+04</totfact>
</mgrwt>
</event>
<event>
 8    1  0.9175398E-006  0.2897085E+03  0.7546771E-02  0.1090501E+00
         21   -1    0    0  504  503  0.00000000000E+00  0.00000000000E+00  0.17616220941E+03  0.17616220941E+03  0.00000000000E+00 0. -1.
         21   -1    0    0  503  504 -0.00000000000E+00 -0.00000000000E+00 -0.11911045327E+03  0.11911045327E+03  0.00000000000E+00 0. -1.
         25    2    1    2    0    0 -0.39216231519E+02 -0.41803228693E+02  0.74921663529E+02  0.15659679213E+03  0.12499550750E+03 0.  0.
         25    2    1    2    0    0  0.39216231519E+02  0.41803228693E+02 -0.17869907381E+02  0.13867587056E+03  0.12500496286E+03 0.  0.
          5    1    3    3  501    0 -0.39843055504E+02 -0.84916584799E+02  0.55333295747E+02  0.10900531668E+03  0.47000000000E+01 0.  1.
         -5    1    3    3    0  501  0.62682398447E+00  0.43113356106E+02  0.19588367782E+02  0.47591475449E+02  0.47000000000E+01 0.  1.
          5    1    4    4  502    0  0.66581611444E+02  0.69515421805E+02 -0.20980303589E+01  0.96395002892E+02  0.47000000000E+01 0.  1.
         -5    1    4    4    0  502 -0.27365379925E+02 -0.27712193112E+02 -0.15771877022E+02  0.42280867663E+02  0.47000000000E+01 0.  1.
<mgrwt>
<rscale>  0 0.28970855E+03</rscale>
<asrwt>0</asrwt>
<pdfrwt beam="1">  1       21 0.27101879E-01 0.28970855E+03</pdfrwt>
<pdfrwt beam="2">  1       21 0.18324685E-01 0.28970855E+03</pdfrwt>
<totfact> 0.34498994E+05</totfact>
</mgrwt>
</event>
<event>
 8    1  0.9175398E-006  0.2736026E+03  0.7546771E-02  0.1099235E+00
         21   -1    0    0  504  503  0.00000000000E+00  0.00000000000E+00  0.65347064388E+02  0.65347064388E+02  0.00000000000E+00 0.  1.
         21   -1    0    0  503  504 -0.00000000000E+00 -0.00000000000E+00 -0.28638760795E+03  0.28638760795E+03  0.00000000000E+00 0.  1.
         25    2    1    2    0    0 -0.22595000590E+02  0.45896433178E+02 -0.82575070688E+02  0.15830597522E+03  0.12500049145E+03 0.  0.
         25    2    1    2    0    0  0.22595000590E+02 -0.45896433178E+02 -0.13846547287E+03  0.19342869711E+03  0.12499982823E+03 0.  0.
          5    1    3    3  501    0  0.39871791351E+01 -0.21973031666E+02  0.21369876628E+02  0.31264570125E+02  0.47000000000E+01 0. -1.
         -5    1    3    3    0  501 -0.26582179725E+02  0.67869464844E+02 -0.10394494732E+03  0.12704140510E+03  0.47000000000E+01 0. -1.
          5    1    4    4  502    0 -0.13661708379E+02 -0.12081399976E+02 -0.14224366609E+03  0.14348502724E+03  0.47000000000E+01 0. -1.
         -5    1    4    4    0  502  0.36256708969E+02 -0.33815033202E+02  0.37781932175E+01  0.49943669866E+02  0.47000000000E+01 0. -1.
<mgrwt>
<rscale>  0 0.27360255E+03</rscale>
<asrwt>0</asrwt>
<pdfrwt beam="1">  1       21 0.10053395E-01 0.27360255E+03</pdfrwt>
<pdfrwt beam="2">  1       21 0.44059632E-01 0.27360255E+03</pdfrwt>
<totfact> 0.39081939E+05</totfact>
</mgrwt>
</event>
<event>
 8    1  0.9175398E-006  0.4514832E+03  0.7546771E-02  0.1027281E+00
         21   -1    0    0  504  503  0.00000000000E+00  0.00000000000E+00  0.17115755713E+03  0.17115755713E+03  0.00000000000E+00 0.  1.
         21   -1    0    0  503  504 -0.00000000000E+00 -0.00000000000E+00 -0.29773315180E+03  0.29773315180E+03  0.00000000000E+00 0.  1.
         25    2    1    2    0    0  0.78119977030E+02 -0.58547725082E+02 -0.23011504576E+03  0.27947938042E+03  0.12500089148E+03 0.  0.
         25    2    1    2    0    0 -0.78119977030E+02  0.58547725082E+02  0.10353945108E+03  0.18941132851E+03  0.12500266603E+03 0.  0.
          5    1    3    3  501    0  0.10641505233E+03 -0.37759311254E+02 -0.21067153739E+03  0.23907010607E+03  0.47000000000E+01 0.  1.
         -5    1    3    3    0  501 -0.28295075301E+02 -0.20788413827E+02 -0.19443508366E+02  0.40409274347E+02  0.47000000000E+01 0.  1.
          5    1    4    4  502    0  0.63829901617E+01 -0.12465458653E+02  0.73431727601E+02  0.74902862704E+02  0.47000000000E+01 0.  1.
         -5    1    4    4    0  502 -0.84502967192E+02  0.71013183735E+02  0.30107723484E+02  0.11450846581E+03  0.47000000000E+01 0.  1.
<mgrwt>
<rscale>  0 0.45148324E+03</rscale>
<asrwt>0</asrwt>
<pdfrwt beam="1">  1       21 0.26331932E-01 0.45148324E+03</pdfrwt>
<pdfrwt beam="2">  1       21 0.45805100E-01 0.45148324E+03</pdfrwt>
<totfact> 0.57850681E+04</totfact>
</mgrwt>
</event>
<event>
 8    1  0.9175398E-006  0.2635135E+03  0.7546771E-02  0.1105050E+00
         21   -1    0    0  504  503  0.00000000000E+00  0.00000000000E+00  0.18318112296E+03  0.18318112296E+03  0.00000000000E+00 0.  1.
         21   -1    0    0  503  504 -0.00000000000E+00 -0.00000000000E+00 -0.94768717694E+02  0.94768717694E+02  0.00000000000E+00 0.  1.
         25    2    1    2    0    0  0.75615642806E+00  0.23429242797E+02  0.80510078388E+02  0.15051947154E+03  0.12499894960E+03 0.  0.
         25    2    1    2    0    0 -0.75615642806E+00 -0.23429242797E+02  0.79023268819E+01  0.12743036911E+03  0.12500620389E+03 0.  0.
          5    1    3    3  501    0  0.43747103711E+02 -0.21444775421E+02  0.30502954568E+00  0.48947630372E+02  0.47000000000E+01 0. -1.
         -5    1    3    3    0  501 -0.42990947283E+02  0.44874018218E+02  0.80205048842E+02  0.10157184117E+03  0.47000000000E+01 0. -1.
          5    1    4    4  502    0 -0.13702748034E+02  0.39885281798E+02 -0.30364007443E+02  0.52179152502E+02  0.47000000000E+01 0. -1.
         -5    1    4    4    0  502  0.12946591606E+02 -0.63314524595E+02  0.38266334325E+02  0.75251216612E+02  0.47000000000E+01 0. -1.
<mgrwt>
<rscale>  0 0.26351349E+03</rscale>
<asrwt>0</asrwt>
<pdfrwt beam="1">  1       21 0.28181711E-01 0.26351349E+03</pdfrwt>
<pdfrwt beam="2">  1       21 0.14579803E-01 0.26351349E+03</pdfrwt>
<totfact> 0.49024088E+05</totfact>
</mgrwt>
</event>
<event>
 8    1  0.9175398E-006  0.4315156E+03  0.7546771E-02  0.1033382E+00
         21   -1    0    0  504  503  0.00000000000E+00  0.00000000000E+00  0.20596005103E+03  0.20596005103E+03  0.00000000000E+00 0. -1.
         21   -1    0    0  503  504 -0.00000000000E+00 -0.00000000000E+00 -0.22602166983E+03  0.22602166983E+03  0.00000000000E+00 0. -1.
         25    2    1    2    0    0  0.15070531777E+03  0.44873945690E+02  0.68797237336E+02  0.21233060196E+03  0.12500184342E+03 0.  0.
         25    2    1    2    0    0 -0.15070531777E+03 -0.44873945690E+02 -0.88858856137E+02  0.21965111890E+03  0.12499981565E+03 0.  0.
          5    1    3    3  501    0  0.89288632702E+02 -0.12404452665E+02  0.87987843192E+02  0.12605665760E+03  0.47000000000E+01 0.  1.
         -5    1    3    3    0  501  0.61416685069E+02  0.57278398355E+02 -0.19190605856E+02  0.86273944364E+02  0.47000000000E+01 0.  1.
          5    1    4    4  502    0 -0.15529286376E+03 -0.37375297805E+02 -0.33330855338E+02  0.16323548125E+03  0.47000000000E+01 0. -1.
         -5    1    4    4    0  502  0.45875459926E+01 -0.74986478849E+01 -0.55528000798E+02  0.56415637646E+02  0.47000000000E+01 0. -1.
<mgrwt>
<rscale>  0 0.43151563E+03</rscale>
<asrwt>0</asrwt>
<pdfrwt beam="1">  1       21 0.31686162E-01 0.43151563E+03</pdfrwt>
<pdfrwt beam="2">  1       21 0.34772564E-01 0.43151563E+03</pdfrwt>
<totfact> 0.71052645E+04</totfact>
</mgrwt>
</event>
<event>
 8    1  0.9175398E-006  0.3021379E+03  0.7546771E-02  0.1084177E+00
         21   -1    0    0  504  503  0.00000000000E+00  0.00000000000E+00  0.24449926167E+03  0.24449926167E+03  0.00000000000E+00 0.  1.
         21   -1    0    0  503  504 -0.00000000000E+00 -0.00000000000E+00 -0.93341067004E+02  0.93341067004E+02  0.00000000000E+00 0.  1.
         25    2    1    2    0    0 -0.53456028193E+02  0.57277589197E+02  0.11195762564E+03  0.18520068363E+03  0.12500605627E+03 0.  0.
         25    2    1    2    0    0  0.53456028193E+02 -0.57277589197E+02  0.39200569032E+02  0.15263964505E+03  0.12499562974E+03 0.  0.
          5    1    3    3  501    0  0.66642763552E+01 -0.87284159580E+01 -0.21481299975E+02  0.24579138982E+02  0.47000000000E+01 0.  1.
         -5    1    3    3    0  501 -0.60120304548E+02  0.66006005155E+02  0.13343892561E+03  0.16062154465E+03  0.47000000000E+01 0.  1.
          5    1    4    4  502    0 -0.29474252554E+02  0.14059907383E+02 -0.71208337738E+01  0.33752167825E+02  0.47000000000E+01 0.  1.
         -5    1    4    4    0  502  0.82930280747E+02 -0.71337496580E+02  0.46321402806E+02  0.11888747723E+03  0.47000000000E+01 0.  1.
<mgrwt>
<rscale>  0 0.30213786E+03</rscale>
<asrwt>0</asrwt>
<pdfrwt beam="1">  1       21 0.37615271E-01 0.30213786E+03</pdfrwt>
<pdfrwt beam="2">  1       21 0.14360164E-01 0.30213786E+03</pdfrwt>
<totfact> 0.28204181E+05</totfact>
</mgrwt>
</event>
<event>
 8    1  0.9175398E-006  0.2877466E+03  0.7546771E-02  0.1091532E+00
         21   -1    0    0  504  503  0.00000000000E+00  0.00000000000E+00  0.35891400809E+03  0.35891400809E+03  0.00000000000E+00 0. -1.
         21   -1    0    0  503  504 -0.00000000000E+00 -0.00000000000E+00 -0.57672651050E+02  0.57672651050E+02  0.00000000000E+00 0. -1.
         25    2    1    2    0    0  0.44198786822E+02  0.50580003937E+02  0.11629218396E+03  0.18347105518E+03  0.12500354588E+03 0.  0.
         25    2    1    2    0    0 -0.44198786822E+02 -0.50580003937E+02  0.18494917308E+03  0.23311560396E+03  0.12499927453E+03 0.  0.
          5    1    3    3  501    0 -0.30604695329E+02  0.31688413537E+02  0.92556140583E+02  0.10261350831E+03  0.47000000000E+01 0.  1.
         -5    1    3    3    0  501  0.74803482150E+02  0.18891590400E+02  0.23736043372E+02  0.80857546863E+02  0.47000000000E+01 0.  1.
          5    1    4    4  502    0  0.12900852959E+02  0.31877470850E+02  0.83278021831E+02  0.90221527779E+02  0.47000000000E+01 0. -1.
         -5    1    4    4    0  502 -0.57099639780E+02 -0.82457474787E+02  0.10167115125E+03  0.14289407618E+03  0.47000000000E+01 0. -1.
<mgrwt>
<rscale>  0 0.28774657E+03</rscale>
<asrwt>0</asrwt>
<pdfrwt beam="1">  1       21 0.55217538E-01 0.28774657E+03</pdfrwt>
<pdfrwt beam="2">  1       21 0.88727158E-02 0.28774657E+03</pdfrwt>
<totfact> 0.30277078E+05</totfact>
</mgrwt>
</event>
<event>
 8    1  0.9175398E-006  0.2694589E+03  0.7546771E-02  0.1101590E+00
         21   -1    0    0  504  503  0.00000000000E+00  0.00000000000E+00  0.28871171172E+02  0.28871171172E+02  0.00000000000E+00 0.  1.
         21   -1    0    0  503  504 -0.00000000000E+00 -0.00000000000E+00 -0.62872493285E+03  0.62872493285E+03  0.00000000000E+00 0.  1.
         25    2    1    2    0    0 -0.49686574448E+02  0.33815955705E+01 -0.31657901327E+03  0.34398752553E+03  0.12499982083E+03 0.  0.
         25    2    1    2    0    0  0.49686574448E+02 -0.33815955705E+01 -0.28327474841E+03  0.31360857849E+03  0.12500226617E+03 0.  0.
          5    1    3    3  501    0  0.22239017353E+02  0.27404003332E+02 -0.27211394586E+02  0.44811865469E+02  0.47000000000E+01 0. -1.
         -5    1    3    3    0  501 -0.71925591802E+02 -0.24022407762E+02 -0.28936761868E+03  0.29917566006E+03  0.47000000000E+01 0. -1.
          5    1    4    4  502    0 -0.29446555319E+02  0.34708390198E+02 -0.80797238766E+02  0.92855025510E+02  0.47000000000E+01 0.  1.
         -5    1    4    4    0  502  0.79133129767E+02 -0.38089985769E+02 -0.20247750964E+03  0.22075355298E+03  0.47000000000E+01 0.  1.
<mgrwt>
<rscale>  0 0.26945890E+03</rscale>
<asrwt>0</asrwt>
<pdfrwt beam="1">  1       21 0.44417189E-02 0.26945890E+03</pdfrwt>
<pdfrwt beam="2">  1       21 0.96726906E-01 0.26945890E+03</pdfrwt>
<totfact> 0.28559388E+05</totfact>
</mgrwt>
</event>
<event>
 8    1  0.9175398E-006  0.3673694E+03  0.7546771E-02  0.1055703E+00
         21   -1    0    0  504  503  0.00000000000E+00  0.00000000000E+00  0.79176846790E+03  0.79176846790E+03  0.00000000000E+00 0. -1.
         21   -1    0    0  503  504 -0.00000000000E+00 -0.00000000000E+00 -0.42613550641E+02  0.42613550641E+02  0.00000000000E+00 0. -1.
         25    2    1    2    0    0 -0.58370459810E+02 -0.11079405941E+03  0.26254624334E+03  0.31660446215E+03  0.12500168553E+03 0.  0.
         25    2    1    2    0    0  0.58370459810E+02  0.11079405941E+03  0.48660867392E+03  0.51777755639E+03  0.12499264852E+03 0.  0.
          5    1    3    3  501    0 -0.96292905120E+02 -0.93247107115E+02  0.21186026664E+03  0.25074730137E+03  0.47000000000E+01 0.  1.
         -5    1    3    3    0  501  0.37922445310E+02 -0.17546952294E+02  0.50685976697E+02  0.65857160787E+02  0.47000000000E+01 0.  1.
          5    1    4    4  502    0  0.65672391148E+02  0.21434178154E+02  0.33065611380E+03  0.33782812575E+03  0.47000000000E+01 0.  1.
         -5    1    4    4    0  502 -0.73019313380E+01  0.89359881255E+02  0.15595256012E+03  0.17994943064E+03  0.47000000000E+01 0.  1.
<mgrwt>
<rscale>  0 0.36736938E+03</rscale>
<asrwt>0</asrwt>
<pdfrwt beam="1">  1       21 0.12181052E+00 0.36736938E+03</pdfrwt>
<pdfrwt beam="2">  1       21 0.65559315E-02 0.36736938E+03</pdfrwt>
<totfact> 0.80980281E+04</totfact>
</mgrwt>
</event>
<event>
 8    1  0.9175398E-006  0.2551022E+03  0.7546771E-02  0.1110122E+00
         21   -1    0    0  504  503  0.00000000000E+00  0.00000000000E+00  0.18993574872E+02  0.18993574872E+02  0.00000000000E+00 0. -1.
         21   -1    0    0  503  504 -0.00000000000E+00 -0.00000000000E+00 -0.85656797103E+03  0.85656797103E+03  0.00000000000E+00 0. -1.
         25    2    1    2    0    0 -0.32027102798E+01  0.24633299017E+02 -0.39860330076E+03  0.41846727467E+03  0.12495283840E+03 0.  0.
         25    2    1    2    0    0  0.32027102798E+01 -0.24633299017E+02 -0.43897109540E+03  0.45709427123E+03  0.12498997328E+03 0.  0.
          5    1    3    3  501    0  0.42105923908E+02 -0.31762010821E+02 -0.13313479815E+03  0.14327839558E+03  0.47000000000E+01 0.  1.
         -5    1    3    3    0  501 -0.45308634188E+02  0.56395309838E+02 -0.26546850260E+03  0.27518887910E+03  0.47000000000E+01 0.  1.
          5    1    4    4  502    0 -0.23025691228E+02  0.44173748876E+02 -0.23282191304E+03  0.23813785029E+03  0.47000000000E+01 0.  1.
         -5    1    4    4    0  502  0.26228401508E+02 -0.68807047894E+02 -0.20614918236E+03  0.21895642094E+03  0.47000000000E+01 0.  1.
<mgrwt>
<rscale>  0 0.25510224E+03</rscale>
<asrwt>0</asrwt>
<pdfrwt beam="1">  1       21 0.29220896E-02 0.25510224E+03</pdfrwt>
<pdfrwt beam="2">  1       21 0.13177963E+00 0.25510224E+03</pdfrwt>
<totfact> 0.27045039E+05</totfact>
</mgrwt>
</event>
<event>
 8    1  0.9175398E-006  0.3658084E+03  0.7546771E-02  0.1056307E+00
         21   -1    0    0  504  503  0.00000000000E+00  0.00000000000E+00  0.27700534665E+03  0.27700534665E+03  0.00000000000E+00 0.  1.
         21   -1    0    0  503  504 -0.00000000000E+00 -0.00000000000E+00 -0.12077005242E+03  0.12077005242E+03  0.00000000000E+00 0.  1.
         25    2    1    2    0    0 -0.11271673201E+03 -0.67437763384E+02  0.10410469190E+03  0.20908627575E+03  0.12500548079E+03 0.  0.
         25    2    1    2    0    0  0.11271673201E+03  0.67437763384E+02  0.52130602325E+02  0.18868912331E+03  0.12503228364E+03 0.  0.
          5    1    3    3  501    0 -0.13098814375E+03 -0.42378026201E+02  0.50000318323E+02  0.14654662309E+03  0.47000000000E+01 0. -1.
         -5    1    3    3    0  501  0.18271411739E+02 -0.25059737183E+02  0.54104373579E+02  0.62539652661E+02  0.47000000000E+01 0. -1.
          5    1    4    4  502    0  0.13262975108E+02  0.30804640912E+02 -0.36977034033E+02  0.50142032830E+02  0.47000000000E+01 0. -1.
         -5    1    4    4    0  502  0.99453756903E+02  0.36633122472E+02  0.89107636357E+02  0.13854709048E+03  0.47000000000E+01 0. -1.
<mgrwt>
<rscale>  0 0.36580842E+03</rscale>
<asrwt>0</asrwt>
<pdfrwt beam="1">  1       21 0.42616207E-01 0.36580842E+03</pdfrwt>
<pdfrwt beam="2">  1       21 0.18580008E-01 0.36580842E+03</pdfrwt>
<totfact> 0.13365087E+05</totfact>
</mgrwt>
</event>
<event>
 8    1  0.9175398E-006  0.3008614E+03  0.7546771E-02  0.1084811E+00
         21   -1    0    0  504  503  0.00000000000E+00  0.00000000000E+00  0.64389882286E+02  0.64389882286E+02  0.00000000000E+00 0.  1.
         21   -1    0    0  503  504 -0.00000000000E+00 -0.00000000000E+00 -0.35144331201E+03  0.35144331201E+03  0.00000000000E+00 0.  1.
         25    2    1    2    0    0  0.33399487871E+01  0.80102148523E+02 -0.11031885595E+03  0.18499208158E+03  0.12499724323E+03 0.  0.
         25    2    1    2    0    0 -0.33399487871E+01 -0.80102148523E+02 -0.17673457378E+03  0.23084111271E+03  0.12500000118E+03 0.  0.
          5    1    3    3  501    0  0.59427267484E+02  0.16632712673E+02 -0.60839826074E+02  0.86786068514E+02  0.47000000000E+01 0.  1.
         -5    1    3    3    0  501 -0.56087318697E+02  0.63469435850E+02 -0.49479029872E+02  0.98206013069E+02  0.47000000000E+01 0.  1.
          5    1    4    4  502    0 -0.20397064835E+02 -0.79208631196E+02 -0.36840154632E+02  0.89829474579E+02  0.47000000000E+01 0. -1.
         -5    1    4    4    0  502  0.17057116048E+02 -0.89351732725E+00 -0.13989441915E+03  0.14101163813E+03  0.47000000000E+01 0. -1.
<mgrwt>
<rscale>  0 0.30086139E+03</rscale>
<asrwt>0</asrwt>
<pdfrwt beam="1">  1       21 0.99061356E-02 0.30086139E+03</pdfrwt>
<pdfrwt beam="2">  1       21 0.54068203E-01 0.30086139E+03</pdfrwt>
<totfact> 0.25970313E+05</totfact>
</mgrwt>
</event>
<event>
 8    1  0.9175398E-006  0.2898301E+03  0.7546771E-02  0.1090438E+00
         21   -1    0    0  504  503  0.00000000000E+00  0.00000000000E+00  0.11739831315E+03  0.11739831315E+03  0.00000000000E+00 0.  1.
         21   -1    0    0  503  504 -0.00000000000E+00 -0.00000000000E+00 -0.17888135748E+03  0.17888135748E+03  0.00000000000E+00 0.  1.
         25    2    1    2    0    0  0.65119111241E+02 -0.12736428566E+02 -0.62621247636E+02  0.15475190604E+03  0.12499606596E+03 0.  0.
         25    2    1    2    0    0 -0.65119111241E+02  0.12736428566E+02  0.11382033078E+01  0.14152776460E+03  0.12500438946E+03 0.  0.
          5    1    3    3  501    0 -0.31423073689E+01  0.48142424966E+02 -0.11322521660E+02  0.49778074229E+02  0.47000000000E+01 0. -1.
         -5    1    3    3    0  501  0.68261418610E+02 -0.60878853532E+02 -0.51298725975E+02  0.10497383181E+03  0.47000000000E+01 0. -1.
          5    1    4    4  502    0 -0.94742714588E+01  0.49658246989E+02  0.39538320830E+02  0.64351162599E+02  0.47000000000E+01 0. -1.
         -5    1    4    4    0  502 -0.55644839782E+02 -0.36921818423E+02 -0.38400117523E+02  0.77176601997E+02  0.47000000000E+01 0. -1.
<mgrwt>
<rscale>  0 0.28983009E+03</rscale>
<asrwt>0</asrwt>
<pdfrwt beam="1">  1       21 0.18061279E-01 0.28983009E+03</pdfrwt>
<pdfrwt beam="2">  1       21 0.27520209E-01 0.28983009E+03</pdfrwt>
<totfact> 0.34402620E+05</totfact>
</mgrwt>
</event>
<event>
 8    1  0.9175398E-006  0.5123806E+03  0.7546771E-02  0.1010597E+00
         21   -1    0    0  504  503  0.00000000000E+00  0.00000000000E+00  0.80486621241E+02  0.80486621241E+02  0.00000000000E+00 0. -1.
         21   -1    0    0  503  504 -0.00000000000E+00 -0.00000000000E+00 -0.81545812593E+03  0.81545812593E+03  0.00000000000E+00 0. -1.
         25    2    1    2    0    0  0.48584371189E+02  0.13532884177E+03 -0.66697537189E+03  0.69365391483E+03  0.12500108128E+03 0.  0.
         25    2    1    2    0    0 -0.48584371189E+02 -0.13532884177E+03 -0.67996132797E+02  0.20229083233E+03  0.12499508084E+03 0.  0.
          5    1    3    3  501    0 -0.36427934783E+02  0.24846548548E+02 -0.25178369626E+03  0.25565888428E+03  0.47000000000E+01 0. -1.
         -5    1    3    3    0  501  0.85012305973E+02  0.11048229322E+03 -0.41519167562E+03  0.43799503055E+03  0.47000000000E+01 0. -1.
          5    1    4    4  502    0  0.36302398829E+02 -0.65409370874E+02 -0.42193950362E+01  0.75074251600E+02  0.47000000000E+01 0.  1.
         -5    1    4    4    0  502 -0.84886770018E+02 -0.69919470892E+02 -0.63776737760E+02  0.12721658073E+03  0.47000000000E+01 0.  1.
<mgrwt>
<rscale>  0 0.51238060E+03</rscale>
<asrwt>0</asrwt>
<pdfrwt beam="1">  1       21 0.12382557E-01 0.51238060E+03</pdfrwt>
<pdfrwt beam="2">  1       21 0.12545510E+00 0.51238060E+03</pdfrwt>
<totfact> 0.23252929E+04</totfact>
</mgrwt>
</event>
<event>
 8    1  0.9175398E-006  0.2552026E+03  0.7546771E-02  0.1110060E+00
         21   -1    0    0  504  503  0.00000000000E+00  0.00000000000E+00  0.10522940521E+03  0.10522940521E+03  0.00000000000E+00 0.  1.
         21   -1    0    0  503  504 -0.00000000000E+00 -0.00000000000E+00 -0.15472951280E+03  0.15472951280E+03  0.00000000000E+00 0.  1.
         25    2    1    2    0    0  0.16694621291E+02 -0.17876447353E+02 -0.32770100466E+02  0.13148983123E+03  0.12496967025E+03 0.  0.
         25    2    1    2    0    0 -0.16694621291E+02  0.17876447353E+02 -0.16730007126E+02  0.12846908678E+03  0.12500454140E+03 0.  0.
          5    1    3    3  501    0 -0.24210490111E+02 -0.59183610105E+02  0.94366122200E+00  0.64123537278E+02  0.47000000000E+01 0.  1.
         -5    1    3    3    0  501  0.40905111402E+02  0.41307162753E+02 -0.33713761688E+02  0.67366293951E+02  0.47000000000E+01 0.  1.
          5    1    4    4  502    0 -0.29469385579E+02  0.68583988798E+02 -0.76252460053E+01  0.75182727953E+02  0.47000000000E+01 0.  1.
         -5    1    4    4    0  502  0.12774764287E+02 -0.50707541445E+02 -0.91047611208E+01  0.53286358828E+02  0.47000000000E+01 0.  1.
<mgrwt>
<rscale>  0 0.25520262E+03</rscale>
<asrwt>0</asrwt>
<pdfrwt beam="1">  1       21 0.16189139E-01 0.25520262E+03</pdfrwt>
<pdfrwt beam="2">  1       21 0.23804540E-01 0.25520262E+03</pdfrwt>
<totfact> 0.56102792E+05</totfact>
</mgrwt>
</event>
<event>
 8    1  0.9175398E-006  0.3407035E+03  0.7546771E-02  0.1066497E+00
         21   -1    0    0  504  503  0.00000000000E+00  0.00000000000E+00  0.91677877173E+02  0.91677877173E+02  0.00000000000E+00 0.  1.
         21   -1    0    0  503  504 -0.00000000000E+00 -0.00000000000E+00 -0.31654003404E+03  0.31654003404E+03  0.00000000000E+00 0.  1.
         25    2    1    2    0    0  0.66437412065E+02 -0.81179711890E+02 -0.17088280191E+03  0.23628065534E+03  0.12499416289E+03 0.  0.
         25    2    1    2    0    0 -0.66437412065E+02  0.81179711890E+02 -0.53979354960E+02  0.17193725587E+03  0.12507827089E+03 0.  0.
          5    1    3    3  501    0 -0.18338528684E+02  0.19440254354E+02 -0.53083299175E+02  0.59616707180E+02  0.47000000000E+01 0. -1.
         -5    1    3    3    0  501  0.84775940748E+02 -0.10061996624E+03 -0.11779950273E+03  0.17666394816E+03  0.47000000000E+01 0. -1.
          5    1    4    4  502    0 -0.85468449942E+02  0.53087665051E+02 -0.80237081057E+02  0.12877591115E+03  0.47000000000E+01 0. -1.
         -5    1    4    4    0  502  0.19031037878E+02  0.28092046839E+02  0.26257726096E+02  0.43161344720E+02  0.47000000000E+01 0. -1.
<mgrwt>
<rscale>  0 0.34070350E+03</rscale>
<asrwt>0</asrwt>
<pdfrwt beam="1">  1       21 0.14104289E-01 0.34070350E+03</pdfrwt>
<pdfrwt beam="2">  1       21 0.48698466E-01 0.34070350E+03</pdfrwt>
<totfact> 0.16969569E+05</totfact>
</mgrwt>
</event>
<event>
 8    1  0.9175398E-006  0.2722315E+03  0.7546771E-02  0.1100009E+00
         21   -1    0    0  504  503  0.00000000000E+00  0.00000000000E+00  0.53704388148E+03  0.53704388148E+03  0.00000000000E+00 0. -1.
         21   -1    0    0  503  504 -0.00000000000E+00 -0.00000000000E+00 -0.34499035437E+02  0.34499035437E+02  0.00000000000E+00 0. -1.
         25    2    1    2    0    0 -0.54487430414E+00  0.18688929829E+02  0.14521203674E+03  0.19251504116E+03  0.12500372983E+03 0.  0.
         25    2    1    2    0    0  0.54487430414E+00 -0.18688929829E+02  0.35733280930E+03  0.37902787576E+03  0.12500328401E+03 0.  0.
          5    1    3    3  501    0 -0.54982601377E+02  0.33727483992E+02  0.50140486814E+02  0.81833905250E+02  0.47000000000E+01 0. -1.
         -5    1    3    3    0  501  0.54437727072E+02 -0.15038554163E+02  0.95071549928E+02  0.11068113591E+03  0.47000000000E+01 0. -1.
          5    1    4    4  502    0  0.57235131329E+02  0.58693874604E+01  0.23388217522E+03  0.24090095860E+03  0.47000000000E+01 0. -1.
         -5    1    4    4    0  502 -0.56690257025E+02 -0.24558317290E+02  0.12345063408E+03  0.13812691716E+03  0.47000000000E+01 0. -1.
<mgrwt>
<rscale>  0 0.27223149E+03</rscale>
<asrwt>0</asrwt>
<pdfrwt beam="1">  1       21 0.82622129E-01 0.27223149E+03</pdfrwt>
<pdfrwt beam="2">  1       21 0.53075443E-02 0.27223149E+03</pdfrwt>
<totfact> 0.30431582E+05</totfact>
</mgrwt>
</event>
<event>
 8    1  0.9175398E-006  0.2715660E+03  0.7546771E-02  0.1100387E+00
         21   -1    0    0  504  503  0.00000000000E+00  0.00000000000E+00  0.91558724632E+01  0.91558724632E+01  0.00000000000E+00 0.  1.
         21   -1    0    0  503  504 -0.00000000000E+00 -0.00000000000E+00 -0.20136834024E+04  0.20136834024E+04  0.00000000000E+00 0.  1.
         25    2    1    2    0    0 -0.47711728657E+02 -0.10499526585E+02 -0.11541227756E+04  0.11619014107E+04  0.12501543071E+03 0.  0.
         25    2    1    2    0    0  0.47711728657E+02  0.10499526585E+02 -0.85040475430E+03  0.86093786412E+03  0.12505642983E+03 0.  0.
          5    1    3    3  501    0  0.21311384784E+02 -0.44585635877E+02 -0.65236893226E+03  0.65425481872E+03  0.47000000000E+01 0.  1.
         -5    1    3    3    0  501 -0.69023113441E+02  0.34086109292E+02 -0.50175384336E+03  0.50764659200E+03  0.47000000000E+01 0.  1.
          5    1    4    4  502    0  0.48488698974E+02 -0.18960381538E+02 -0.13288278851E+03  0.14279557233E+03  0.47000000000E+01 0. -1.
         -5    1    4    4    0  502 -0.77697031638E+00  0.29459908123E+02 -0.71752196579E+03  0.71814229179E+03  0.47000000000E+01 0. -1.
<mgrwt>
<rscale>  0 0.27156604E+03</rscale>
<asrwt>0</asrwt>
<pdfrwt beam="1">  1       21 0.14085947E-02 0.27156604E+03</pdfrwt>
<pdfrwt beam="2">  1       21 0.30979768E+00 0.27156604E+03</pdfrwt>
<totfact> 0.61228999E+04</totfact>
</mgrwt>
</event>
<event>
 8    1  0.9175398E-006  0.2571867E+03  0.7546771E-02  0.1108845E+00
         21   -1    0    0  504  503  0.00000000000E+00  0.00000000000E+00  0.23804095498E+02  0.23804095498E+02  0.00000000000E+00 0. -1.
         21   -1    0    0  503  504 -0.00000000000E+00 -0.00000000000E+00 -0.69468072996E+03  0.69468072996E+03  0.00000000000E+00 0. -1.
         25    2    1    2    0    0  0.48865804485E+00 -0.11806920727E+01 -0.25099699495E+03  0.28039267975E+03  0.12497571990E+03 0.  0.
         25    2    1    2    0    0 -0.48865804485E+00  0.11806920727E+01 -0.41987963951E+03  0.43809214570E+03  0.12499673449E+03 0.  0.
          5    1    3    3  501    0 -0.22554230086E+02 -0.42979713908E+02 -0.37340852857E+02  0.61419690609E+02  0.47000000000E+01 0.  1.
         -5    1    3    3    0  501  0.23042888130E+02  0.41799021836E+02 -0.21365614209E+03  0.21897298914E+03  0.47000000000E+01 0.  1.
          5    1    4    4  502    0 -0.52298372987E+02  0.28595289094E+02 -0.14227624925E+03  0.15432897160E+03  0.47000000000E+01 0. -1.
         -5    1    4    4    0  502  0.51809714942E+02 -0.27414597021E+02 -0.27760339026E+03  0.28376317410E+03  0.47000000000E+01 0. -1.
<mgrwt>
<rscale>  0 0.25718667E+03</rscale>
<asrwt>0</asrwt>
<pdfrwt beam="1">  1       21 0.36621683E-02 0.25718667E+03</pdfrwt>
<pdfrwt beam="2">  1       21 0.10687396E+00 0.25718667E+03</pdfrwt>
<totfact> 0.31219558E+05</totfact>
</mgrwt>
</event>
<event>
 8    1  0.9175398E-006  0.4951336E+03  0.7546771E-02  0.1015057E+00
         21   -1    0    0  504  503  0.00000000000E+00  0.00000000000E+00  0.14888119892E+03  0.14888119892E+03  0.00000000000E+00 0.  1.
         21   -1    0    0  503  504 -0.00000000000E+00 -0.00000000000E+00 -0.41166600836E+03  0.41166600836E+03  0.00000000000E+00 0.  1.
         25    2    1    2    0    0  0.18557207505E+03  0.18632194890E+02 -0.13303982656E+02  0.22491493763E+03  0.12500231794E+03 0.  0.
         25    2    1    2    0    0 -0.18557207505E+03 -0.18632194890E+02 -0.24948082679E+03  0.33563226965E+03  0.12499673502E+03 0.  0.
          5    1    3    3  501    0  0.10859231914E+02  0.43216043094E+02 -0.18171586674E+02  0.48351275689E+02  0.47000000000E+01 0.  1.
         -5    1    3    3    0  501  0.17471284314E+03 -0.24583848205E+02  0.48676040185E+01  0.17656366194E+03  0.47000000000E+01 0.  1.
          5    1    4    4  502    0 -0.10467907675E+03 -0.72076848199E+02 -0.14960488533E+03  0.19635807310E+03  0.47000000000E+01 0.  1.
         -5    1    4    4    0  502 -0.80892998307E+02  0.53444653309E+02 -0.99875941457E+02  0.13927419655E+03  0.47000000000E+01 0.  1.
<mgrwt>
<rscale>  0 0.49513363E+03</rscale>
<asrwt>0</asrwt>
<pdfrwt beam="1">  1       21 0.22904800E-01 0.49513363E+03</pdfrwt>
<pdfrwt beam="2">  1       21 0.63333232E-01 0.49513363E+03</pdfrwt>
<totfact> 0.37385438E+04</totfact>
</mgrwt>
</event>
<event>
 8    1  0.9175398E-006  0.3378888E+03  0.7546771E-02  0.1067699E+00
         21   -1    0    0  504  503  0.00000000000E+00  0.00000000000E+00  0.10033270968E+03  0.10033270968E+03  0.00000000000E+00 0. -1.
         21   -1    0    0  503  504 -0.00000000000E+00 -0.00000000000E+00 -0.28447570044E+03  0.28447570044E+03  0.00000000000E+00 0. -1.
         25    2    1    2    0    0  0.94076103259E+02  0.29427632713E+02 -0.15651636083E+03  0.22324469266E+03  0.12499809127E+03 0.  0.
         25    2    1    2    0    0 -0.94076103259E+02 -0.29427632713E+02 -0.27626629934E+02  0.16156371746E+03  0.12499322120E+03 0.  0.
          5    1    3    3  501    0  0.30061058518E+02  0.59459406566E+02 -0.13256544498E+03  0.14844115154E+03  0.47000000000E+01 0. -1.
         -5    1    3    3    0  501  0.64015044741E+02 -0.30031773853E+02 -0.23950915851E+02  0.74803541120E+02  0.47000000000E+01 0. -1.
          5    1    4    4  502    0 -0.12397227812E+03 -0.33361921599E+02 -0.19132652914E+02  0.12988568806E+03  0.47000000000E+01 0. -1.
         -5    1    4    4    0  502  0.29896174865E+02  0.39342888860E+01 -0.84939770194E+01  0.31678029393E+02  0.47000000000E+01 0. -1.
<mgrwt>
<rscale>  0 0.33788884E+03</rscale>
<asrwt>0</asrwt>
<pdfrwt beam="1">  1       21 0.15435802E-01 0.33788884E+03</pdfrwt>
<pdfrwt beam="2">  1       21 0.43765492E-01 0.33788884E+03</pdfrwt>
<totfact> 0.17975458E+05</totfact>
</mgrwt>
</event>
<event>
 8    1  0.9175398E-006  0.3571390E+03  0.7546771E-02  0.1059722E+00
         21   -1    0    0  504  503  0.00000000000E+00  0.00000000000E+00  0.14014239232E+03  0.14014239232E+03  0.00000000000E+00 0. -1.
         21   -1    0    0  503  504 -0.00000000000E+00 -0.00000000000E+00 -0.22753330015E+03  0.22753330015E+03  0.00000000000E+00 0. -1.
         25    2    1    2    0    0  0.12002871574E+03  0.63419043366E+01  0.14805288046E+00  0.17341356915E+03  0.12500052677E+03 0.  0.
         25    2    1    2    0    0 -0.12002871574E+03 -0.63419043366E+01 -0.87538960716E+02  0.19426212332E+03  0.12501036181E+03 0.  0.
          5    1    3    3  501    0  0.74729061229E+02  0.40376169849E+01 -0.61328157600E+02  0.96870882404E+02  0.47000000000E+01 0. -1.
         -5    1    3    3    0  501  0.45299654509E+02  0.23042873517E+01  0.61476210481E+02  0.76542686743E+02  0.47000000000E+01 0. -1.
          5    1    4    4  502    0 -0.52812926923E+02  0.56885893072E+02 -0.21478450534E+02  0.80676043024E+02  0.47000000000E+01 0.  1.
         -5    1    4    4    0  502 -0.67215788816E+02 -0.63227797408E+02 -0.66060510182E+02  0.11358608029E+03  0.47000000000E+01 0.  1.
<mgrwt>
<rscale>  0 0.35713897E+03</rscale>
<asrwt>0</asrwt>
<pdfrwt beam="1">  1       21 0.21560368E-01 0.35713897E+03</pdfrwt>
<pdfrwt beam="2">  1       21 0.35005123E-01 0.35713897E+03</pdfrwt>
<totfact> 0.15089663E+05</totfact>
</mgrwt>
</event>
<event>
 8    1  0.9175398E-006  0.2506927E+03  0.7546771E-02  0.1112868E+00
         21   -1    0    0  504  503  0.00000000000E+00  0.00000000000E+00  0.16623420902E+02  0.16623420902E+02  0.00000000000E+00 0. -1.
         21   -1    0    0  503  504 -0.00000000000E+00 -0.00000000000E+00 -0.94515467933E+03  0.94515467933E+03  0.00000000000E+00 0. -1.
         25    2    1    2    0    0 -0.31956494745E+01 -0.66252601474E+01 -0.48623788431E+03  0.50210132148E+03  0.12499740258E+03 0.  0.
         25    2    1    2    0    0  0.31956494745E+01  0.66252601474E+01 -0.44229337412E+03  0.45967677875E+03  0.12500082353E+03 0.  0.
          5    1    3    3  501    0 -0.29870296617E+02 -0.12603294914E+02 -0.46745770264E+03  0.46860417349E+03  0.47000000000E+01 0. -1.
         -5    1    3    3    0  501  0.26674647142E+02  0.59780347663E+01 -0.18780181671E+02  0.33497147989E+02  0.47000000000E+01 0. -1.
          5    1    4    4  502    0  0.62893523370E+01  0.56871128534E+02 -0.34780751773E+03  0.35251388710E+03  0.47000000000E+01 0. -1.
         -5    1    4    4    0  502 -0.30937028625E+01 -0.50245868386E+02 -0.94485856394E+02  0.10716289165E+03  0.47000000000E+01 0. -1.
<mgrwt>
<rscale>  0 0.25069267E+03</rscale>
<asrwt>0</asrwt>
<pdfrwt beam="1">  1       21 0.25574491E-02 0.25069267E+03</pdfrwt>
<pdfrwt beam="2">  1       21 0.14540843E+00 0.25069267E+03</pdfrwt>
<totfact> 0.26160110E+05</totfact>
</mgrwt>
</event>
<event>
 8    1  0.9175398E-006  0.2855605E+03  0.7546771E-02  0.1092690E+00
         21   -1    0    0  504  503  0.00000000000E+00  0.00000000000E+00  0.10845074706E+04  0.10845074706E+04  0.00000000000E+00 0. -1.
         21   -1    0    0  503  504 -0.00000000000E+00 -0.00000000000E+00 -0.18797657792E+02  0.18797657792E+02  0.00000000000E+00 0. -1.
         25    2    1    2    0    0  0.21070383968E+02  0.65616112481E+02  0.54589453428E+03  0.56424844799E+03  0.12500413276E+03 0.  0.
         25    2    1    2    0    0 -0.21070383968E+02 -0.65616112481E+02  0.51981527851E+03  0.53905668039E+03  0.12499898238E+03 0.  0.
          5    1    3    3  501    0 -0.43531797026E+02  0.48650489313E+02  0.37565550086E+03  0.38131487355E+03  0.47000000000E+01 0. -1.
         -5    1    3    3    0  501  0.64602180994E+02  0.16965623169E+02  0.17023903342E+03  0.18293357444E+03  0.47000000000E+01 0. -1.
          5    1    4    4  502    0 -0.43037540590E+02  0.22981104564E+02  0.23022309818E+03  0.23538293481E+03  0.47000000000E+01 0. -1.
         -5    1    4    4    0  502  0.21967156622E+02 -0.88597217045E+02  0.28959218034E+03  0.30367374557E+03  0.47000000000E+01 0. -1.
<mgrwt>
<rscale>  0 0.28556050E+03</rscale>
<asrwt>0</asrwt>
<pdfrwt beam="1">  1       21 0.16684725E+00 0.28556050E+03</pdfrwt>
<pdfrwt beam="2">  1       21 0.28919482E-02 0.28556050E+03</pdfrwt>
<totfact> 0.14538329E+05</totfact>
</mgrwt>
</event>
<event>
 8    1  0.9175398E-006  0.2983440E+03  0.7546771E-02  0.1086071E+00
         21   -1    0    0  504  503  0.00000000000E+00  0.00000000000E+00  0.21464878564E+03  0.21464878564E+03  0.00000000000E+00 0. -1.
         21   -1    0    0  503  504 -0.00000000000E+00 -0.00000000000E+00 -0.10366832636E+03  0.10366832636E+03  0.00000000000E+00 0. -1.
         25    2    1    2    0    0  0.57295573095E+02  0.25775596423E+02  0.27348865708E+00  0.13990707466E+03  0.12500700251E+03 0.  0.
         25    2    1    2    0    0 -0.57295573095E+02 -0.25775596423E+02  0.11070697062E+03  0.17841003733E+03  0.12500777579E+03 0.  0.
          5    1    3    3  501    0  0.14123565638E+02  0.43171837862E+02 -0.52367958130E+02  0.69482197212E+02  0.47000000000E+01 0.  1.
         -5    1    3    3    0  501  0.43172007457E+02 -0.17396241439E+02  0.52641446787E+02  0.70424877451E+02  0.47000000000E+01 0.  1.
          5    1    4    4  502    0 -0.57924860207E+02  0.33154632464E+02  0.96805134791E+02  0.11767685926E+03  0.47000000000E+01 0. -1.
         -5    1    4    4    0  502  0.62928711250E+00 -0.58930228887E+02  0.13901835834E+02  0.60733178070E+02  0.47000000000E+01 0. -1.
<mgrwt>
<rscale>  0 0.29834396E+03</rscale>
<asrwt>0</asrwt>
<pdfrwt beam="1">  1       21 0.33022890E-01 0.29834396E+03</pdfrwt>
<pdfrwt beam="2">  1       21 0.15948973E-01 0.29834396E+03</pdfrwt>
<totfact> 0.30218989E+05</totfact>
</mgrwt>
</event>
<event>
 8    1  0.9175398E-006  0.3197376E+03  0.7546771E-02  0.1075770E+00
         21   -1    0    0  504  503  0.00000000000E+00  0.00000000000E+00  0.73075020833E+02  0.73075020833E+02  0.00000000000E+00 0. -1.
         21   -1    0    0  503  504 -0.00000000000E+00 -0.00000000000E+00 -0.34975069698E+03  0.34975069698E+03  0.00000000000E+00 0. -1.
         25    2    1    2    0    0  0.87597744408E+02  0.37530096147E+02 -0.17690259705E+03  0.23664820778E+03  0.12500388978E+03 0.  0.
         25    2    1    2    0    0 -0.87597744408E+02 -0.37530096147E+02 -0.99773079091E+02  0.18617751003E+03  0.12500209993E+03 0.  0.
          5    1    3    3  501    0  0.68075034305E+02  0.65860634695E+02 -0.17823744149E+03  0.20189727350E+03  0.47000000000E+01 0. -1.
         -5    1    3    3    0  501  0.19522710103E+02 -0.28330538548E+02  0.13348444319E+01  0.34750934287E+02  0.47000000000E+01 0. -1.
          5    1    4    4  502    0 -0.87676811256E+02  0.27002974550E+02 -0.66611405004E+02  0.11347049459E+03  0.47000000000E+01 0.  1.
         -5    1    4    4    0  502  0.79066847788E-01 -0.64533070697E+02 -0.33161674087E+02  0.72707015435E+02  0.47000000000E+01 0.  1.
<mgrwt>
<rscale>  0 0.31973764E+03</rscale>
<asrwt>0</asrwt>
<pdfrwt beam="1">  1       21 0.11242311E-01 0.31973764E+03</pdfrwt>
<pdfrwt beam="2">  1       21 0.53807798E-01 0.31973764E+03</pdfrwt>
<totfact> 0.20833473E+05</totfact>
</mgrwt>
</event>
<event>
 8    1  0.9175398E-006  0.3398589E+03  0.7546771E-02  0.1066856E+00
         21   -1    0    0  504  503  0.00000000000E+00  0.00000000000E+00  0.22030534441E+02  0.22030534441E+02  0.00000000000E+00 0.  1.
         21   -1    0    0  503  504 -0.00000000000E+00 -0.00000000000E+00 -0.13107270993E+04  0.13107270993E+04  0.00000000000E+00 0.  1.
         25    2    1    2    0    0  0.50366355594E+02 -0.10274795675E+03 -0.59524847666E+03  0.61890228476E+03  0.12500150687E+03 0.  0.
         25    2    1    2    0    0 -0.50366355594E+02  0.10274795675E+03 -0.69344808822E+03  0.71385534901E+03  0.12500118341E+03 0.  0.
          5    1    3    3  501    0  0.27449928006E+02 -0.42670259274E+02 -0.50730793601E+03  0.50986045298E+03  0.47000000000E+01 0. -1.
         -5    1    3    3    0  501  0.22916427589E+02 -0.60077697476E+02 -0.87940540649E+02  0.10904183178E+03  0.47000000000E+01 0. -1.
          5    1    4    4  502    0 -0.52193973149E+01 -0.20485546132E+02 -0.26122963221E+03  0.26212575313E+03  0.47000000000E+01 0.  1.
         -5    1    4    4    0  502 -0.45146958279E+02  0.12323350288E+03 -0.43221845601E+03  0.45172959588E+03  0.47000000000E+01 0.  1.
<mgrwt>
<rscale>  0 0.33985890E+03</rscale>
<asrwt>0</asrwt>
<pdfrwt beam="1">  1       21 0.33893125E-02 0.33985890E+03</pdfrwt>
<pdfrwt beam="2">  1       21 0.20165035E+00 0.33985890E+03</pdfrwt>
<totfact> 0.63027355E+04</totfact>
</mgrwt>
</event>
<event>
 8    1  0.9175398E-006  0.2954502E+03  0.7546771E-02  0.1087537E+00
         21   -1    0    0  504  503  0.00000000000E+00  0.00000000000E+00  0.17073254328E+03  0.17073254328E+03  0.00000000000E+00 0. -1.
         21   -1    0    0  503  504 -0.00000000000E+00 -0.00000000000E+00 -0.12781810586E+03  0.12781810586E+03  0.00000000000E+00 0. -1.
         25    2    1    2    0    0 -0.77950872136E+02  0.52594719995E+01  0.11887914297E+02  0.14791349274E+03  0.12503230909E+03 0.  0.
         25    2    1    2    0    0  0.77950872136E+02 -0.52594719995E+01  0.31026523119E+02  0.15063715640E+03  0.12499962895E+03 0.  0.
          5    1    3    3  501    0 -0.10625301360E+03 -0.57218656790E+00 -0.15910539801E+02  0.10754192473E+03  0.47000000000E+01 0.  1.
         -5    1    3    3    0  501  0.28302141469E+02  0.58316585674E+01  0.27798454098E+02  0.40371568010E+02  0.47000000000E+01 0.  1.
          5    1    4    4  502    0  0.59428495548E+02  0.50783637427E+02 -0.94976974823E+01  0.78886121535E+02  0.47000000000E+01 0.  1.
         -5    1    4    4    0  502  0.18522376588E+02 -0.56043109426E+02  0.40524220602E+02  0.71751034863E+02  0.47000000000E+01 0.  1.
<mgrwt>
<rscale>  0 0.29545023E+03</rscale>
<asrwt>0</asrwt>
<pdfrwt beam="1">  1       21 0.26266545E-01 0.29545023E+03</pdfrwt>
<pdfrwt beam="2">  1       21 0.19664324E-01 0.29545023E+03</pdfrwt>
<totfact> 0.32079140E+05</totfact>
</mgrwt>
</event>
<event>
 8    1  0.9175398E-006  0.3549492E+03  0.7546771E-02  0.1060602E+00
         21   -1    0    0  504  503  0.00000000000E+00  0.00000000000E+00  0.99842744577E+03  0.99842744577E+03  0.00000000000E+00 0. -1.
         21   -1    0    0  503  504 -0.00000000000E+00 -0.00000000000E+00 -0.31546848269E+02  0.31546848269E+02  0.00000000000E+00 0. -1.
         25    2    1    2    0    0 -0.11702247880E+03 -0.40787635944E+02  0.41766843177E+03  0.45324416322E+03  0.12500184323E+03 0.  0.
         25    2    1    2    0    0  0.11702247880E+03  0.40787635944E+02  0.54921216573E+03  0.57673013081E+03  0.12500299601E+03 0.  0.
          5    1    3    3  501    0 -0.29258735154E+02  0.42364059901E+02  0.16851332057E+03  0.17626575493E+03  0.47000000000E+01 0.  1.
         -5    1    3    3    0  501 -0.87763743643E+02 -0.83151695845E+02  0.24915511120E+03  0.27697840829E+03  0.47000000000E+01 0.  1.
          5    1    4    4  502    0 -0.52966540971E+01 -0.57679407236E+01 -0.26750332064E+01  0.95168002748E+01  0.47000000000E+01 0. -1.
         -5    1    4    4    0  502  0.12231913289E+03  0.46555576667E+02  0.55188719894E+03  0.56721333054E+03  0.47000000000E+01 0. -1.
<mgrwt>
<rscale>  0 0.35494923E+03</rscale>
<asrwt>0</asrwt>
<pdfrwt beam="1">  1       21 0.15360420E+00 0.35494923E+03</pdfrwt>
<pdfrwt beam="2">  1       21 0.48533620E-02 0.35494923E+03</pdfrwt>
<totfact> 0.74427204E+04</totfact>
</mgrwt>
</event>
<event>
 8    1  0.9175398E-006  0.2511874E+03  0.7546771E-02  0.1112557E+00
         21   -1    0    0  504  503  0.00000000000E+00  0.00000000000E+00  0.52155817765E+03  0.52155817765E+03  0.00000000000E+00 0. -1.
         21   -1    0    0  503  504 -0.00000000000E+00 -0.00000000000E+00 -0.30243565745E+02  0.30243565745E+02  0.00000000000E+00 0. -1.
         25    2    1    2    0    0 -0.21943642360E+00 -0.79134396879E+00  0.21896475116E+03  0.25213599583E+03  0.12500529494E+03 0.  0.
         25    2    1    2    0    0  0.21943642360E+00  0.79134396879E+00  0.27234986074E+03  0.29966574757E+03  0.12499775694E+03 0.  0.
          5    1    3    3  501    0 -0.15952867477E+02 -0.58763633004E+02  0.79801484416E+02  0.10048893203E+03  0.47000000000E+01 0. -1.
         -5    1    3    3    0  501  0.15733431054E+02  0.57972289035E+02  0.13916326675E+03  0.15164706380E+03  0.47000000000E+01 0. -1.
          5    1    4    4  502    0 -0.41970211533E+02  0.36041343350E+02  0.20609843566E+03  0.21344585324E+03  0.47000000000E+01 0. -1.
         -5    1    4    4    0  502  0.42189647957E+02 -0.35249999382E+02  0.66251425085E+02  0.86219894322E+02  0.47000000000E+01 0. -1.
<mgrwt>
<rscale>  0 0.25118741E+03</rscale>
<asrwt>0</asrwt>
<pdfrwt beam="1">  1       21 0.80239713E-01 0.25118741E+03</pdfrwt>
<pdfrwt beam="2">  1       21 0.46528567E-02 0.25118741E+03</pdfrwt>
<totfact> 0.40923564E+05</totfact>
</mgrwt>
</event>
<event>
 8    1  0.9175398E-006  0.2574727E+03  0.7546771E-02  0.1108671E+00
         21   -1    0    0  504  503  0.00000000000E+00  0.00000000000E+00  0.10745732440E+04  0.10745732440E+04  0.00000000000E+00 0.  1.
         21   -1    0    0  503  504 -0.00000000000E+00 -0.00000000000E+00 -0.15422916553E+02  0.15422916553E+02  0.00000000000E+00 0.  1.
         25    2    1    2    0    0  0.28678394596E+02 -0.40825767828E+00  0.48142504160E+03  0.49821276333E+03  0.12499307930E+03 0.  0.
         25    2    1    2    0    0 -0.28678394596E+02  0.40825767828E+00  0.57772528584E+03  0.59178339722E+03  0.12497386259E+03 0.  0.
          5    1    3    3  501    0 -0.58239125943E+01 -0.11359253545E+02 -0.17017324788E+01  0.13708993123E+02  0.47000000000E+01 0. -1.
         -5    1    3    3    0  501  0.34502307191E+02  0.10950995867E+02  0.48312677408E+03  0.48450377021E+03  0.47000000000E+01 0. -1.
          5    1    4    4  502    0 -0.69266392255E+00 -0.56192348490E+02  0.16843348130E+03  0.17762316131E+03  0.47000000000E+01 0. -1.
         -5    1    4    4    0  502 -0.27985730674E+02  0.56600606168E+02  0.40929180454E+03  0.41416023590E+03  0.47000000000E+01 0. -1.
<mgrwt>
<rscale>  0 0.25747274E+03</rscale>
<asrwt>0</asrwt>
<pdfrwt beam="1">  1       21 0.16531890E+00 0.25747274E+03</pdfrwt>
<pdfrwt beam="2">  1       21 0.23727572E-02 0.25747274E+03</pdfrwt>
<totfact> 0.20903902E+05</totfact>
</mgrwt>
</event>
<event>
 8    1  0.9175398E-006  0.3275189E+03  0.7546771E-02  0.1072240E+00
         21   -1    0    0  504  503  0.00000000000E+00  0.00000000000E+00  0.19643088512E+04  0.19643088512E+04  0.00000000000E+00 0. -1.
         21   -1    0    0  503  504 -0.00000000000E+00 -0.00000000000E+00 -0.13652208075E+02  0.13652208075E+02  0.00000000000E+00 0. -1.
         25    2    1    2    0    0 -0.11606019753E+02  0.10869109464E+02  0.16070163831E+04  0.16119489870E+04  0.12500017555E+03 0.  0.
         25    2    1    2    0    0  0.11606019753E+02 -0.10869109464E+02  0.34364026008E+03  0.36601207234E+03  0.12499348588E+03 0.  0.
          5    1    3    3  501    0 -0.44626645646E+02 -0.21963399492E+02  0.13350857737E+04  0.13360202249E+04  0.47000000000E+01 0.  1.
         -5    1    3    3    0  501  0.33020625893E+02  0.32832508956E+02  0.27193060941E+03  0.27592876203E+03  0.47000000000E+01 0.  1.
          5    1    4    4  502    0  0.27133285424E+02 -0.61258389954E+02  0.24530789971E+03  0.25433611851E+03  0.47000000000E+01 0.  1.
         -5    1    4    4    0  502 -0.15527265670E+02  0.50389280489E+02  0.98332360374E+02  0.11167595383E+03  0.47000000000E+01 0.  1.
<mgrwt>
<rscale>  0 0.32751887E+03</rscale>
<asrwt>0</asrwt>
<pdfrwt beam="1">  1       21 0.30220114E+00 0.32751887E+03</pdfrwt>
<pdfrwt beam="2">  1       21 0.21003413E-02 0.32751887E+03</pdfrwt>
<totfact> 0.34194300E+04</totfact>
</mgrwt>
</event>
<event>
 8    1  0.9175398E-006  0.2919273E+03  0.7546771E-02  0.1089347E+00
         21   -1    0    0  504  503  0.00000000000E+00  0.00000000000E+00  0.11348341294E+03  0.11348341294E+03  0.00000000000E+00 0.  1.
         21   -1    0    0  503  504 -0.00000000000E+00 -0.00000000000E+00 -0.18774013166E+03  0.18774013166E+03  0.00000000000E+00 0.  1.
         25    2    1    2    0    0 -0.64394553127E+02  0.39042520953E+02 -0.40205229445E+02  0.15137305742E+03  0.12500546037E+03 0.  0.
         25    2    1    2    0    0  0.64394553127E+02 -0.39042520953E+02 -0.34051489281E+02  0.14985048718E+03  0.12499875068E+03 0.  0.
          5    1    3    3  501    0  0.35992532077E+02 -0.13514193492E+01 -0.19048216866E+02  0.41014793250E+02  0.47000000000E+01 0.  1.
         -5    1    3    3    0  501 -0.10038708520E+03  0.40393940302E+02 -0.21157012579E+02  0.11035826417E+03  0.47000000000E+01 0.  1.
          5    1    4    4  502    0  0.75458992121E+02 -0.34208254113E+02 -0.71928691727E+02  0.10981844488E+03  0.47000000000E+01 0.  1.
         -5    1    4    4    0  502 -0.11064438994E+02 -0.48342668396E+01  0.37877202447E+02  0.40032042308E+02  0.47000000000E+01 0.  1.
<mgrwt>
<rscale>  0 0.29192733E+03</rscale>
<asrwt>0</asrwt>
<pdfrwt beam="1">  1       21 0.17458987E-01 0.29192733E+03</pdfrwt>
<pdfrwt beam="2">  1       21 0.28883097E-01 0.29192733E+03</pdfrwt>
<totfact> 0.33331413E+05</totfact>
</mgrwt>
</event>
<event>
 8    1  0.9175398E-006  0.2515693E+03  0.7546771E-02  0.1112317E+00
         21   -1    0    0  504  503  0.00000000000E+00  0.00000000000E+00  0.27908754318E+03  0.27908754318E+03  0.00000000000E+00 0.  1.
         21   -1    0    0  503  504 -0.00000000000E+00 -0.00000000000E+00 -0.56691079453E+02  0.56691079453E+02  0.00000000000E+00 0.  1.
         25    2    1    2    0    0  0.78329404240E+00 -0.13777941495E+02  0.11060194015E+03  0.16752818649E+03  0.12506981604E+03 0.  0.
         25    2    1    2    0    0 -0.78329404240E+00  0.13777941495E+02  0.11179452357E+03  0.16825043613E+03  0.12497899238E+03 0.  0.
          5    1    3    3  501    0 -0.53991072911E+00  0.27871663117E+02  0.12105332710E+03  0.12431057522E+03  0.47000000000E+01 0. -1.
         -5    1    3    3    0  501  0.13232047715E+01 -0.41649604611E+02 -0.10451386954E+02  0.43217611276E+02  0.47000000000E+01 0. -1.
          5    1    4    4  502    0  0.27421217001E+02 -0.45553271199E+02  0.77199434560E+02  0.93855561131E+02  0.47000000000E+01 0.  1.
         -5    1    4    4    0  502 -0.28204511044E+02  0.59331212694E+02  0.34595089014E+02  0.74394875004E+02  0.47000000000E+01 0.  1.
<mgrwt>
<rscale>  0 0.25156927E+03</rscale>
<asrwt>0</asrwt>
<pdfrwt beam="1">  1       21 0.42936544E-01 0.25156927E+03</pdfrwt>
<pdfrwt beam="2">  1       21 0.87217047E-02 0.25156927E+03</pdfrwt>
<totfact> 0.53226537E+05</totfact>
</mgrwt>
</event>
<event>
 8    1  0.9175398E-006  0.3899184E+03  0.7546771E-02  0.1047328E+00
         21   -1    0    0  504  503  0.00000000000E+00  0.00000000000E+00  0.68973937358E+03  0.68973937358E+03  0.00000000000E+00 0. -1.
         21   -1    0    0  503  504 -0.00000000000E+00 -0.00000000000E+00 -0.55106462188E+02  0.55106462188E+02  0.00000000000E+00 0. -1.
         25    2    1    2    0    0 -0.10477331856E+01  0.96663363372E+02  0.99191575421E+02  0.18657562948E+03  0.12500637311E+03 0.  0.
         25    2    1    2    0    0  0.10477331856E+01 -0.96663363372E+02  0.53544133597E+03  0.55827020629E+03  0.12499318142E+03 0.  0.
          5    1    3    3  501    0  0.40646385949E+02  0.71539127455E+02  0.10904737559E+03  0.13668721802E+03  0.47000000000E+01 0. -1.
         -5    1    3    3    0  501 -0.41694119134E+02  0.25124235917E+02 -0.98558001678E+01  0.49888411457E+02  0.47000000000E+01 0. -1.
          5    1    4    4  502    0 -0.43289925854E+02 -0.10879974563E+02  0.71935859536E+02  0.84789441643E+02  0.47000000000E+01 0.  1.
         -5    1    4    4    0  502  0.44337659040E+02 -0.85783388809E+02  0.46350547644E+03  0.47348076465E+03  0.47000000000E+01 0.  1.
<mgrwt>
<rscale>  0 0.38991844E+03</rscale>
<asrwt>0</asrwt>
<pdfrwt beam="1">  1       21 0.10611374E+00 0.38991844E+03</pdfrwt>
<pdfrwt beam="2">  1       21 0.84779177E-02 0.38991844E+03</pdfrwt>
<totfact> 0.72215628E+04</totfact>
</mgrwt>
</event>
<event>
 8    1  0.9175398E-006  0.3342042E+03  0.7546771E-02  0.1069292E+00
         21   -1    0    0  504  503  0.00000000000E+00  0.00000000000E+00  0.99650075551E+02  0.99650075551E+02  0.00000000000E+00 0. -1.
         21   -1    0    0  503  504 -0.00000000000E+00 -0.00000000000E+00 -0.28021167217E+03  0.28021167217E+03  0.00000000000E+00 0. -1.
         25    2    1    2    0    0 -0.25664086096E+02  0.85719532111E+02 -0.16476230489E+03  0.22532498504E+03  0.12497299016E+03 0.  0.
         25    2    1    2    0    0  0.25664086096E+02 -0.85719532111E+02 -0.15799291729E+02  0.15453676268E+03  0.12500203959E+03 0.  0.
          5    1    3    3  501    0  0.30605017649E+01  0.19411079594E+02  0.19045575986E+02  0.27766538256E+02  0.47000000000E+01 0.  1.
         -5    1    3    3    0  501 -0.28724587861E+02  0.66308452516E+02 -0.18380788088E+03  0.19755844678E+03  0.47000000000E+01 0.  1.
          5    1    4    4  502    0  0.39923174767E+02 -0.28101234483E+01 -0.49465597010E+02  0.63801974615E+02  0.47000000000E+01 0.  1.
         -5    1    4    4    0  502 -0.14259088671E+02 -0.82909408662E+02  0.33666305281E+02  0.90734788068E+02  0.47000000000E+01 0.  1.
<mgrwt>
<rscale>  0 0.33420421E+03</rscale>
<asrwt>0</asrwt>
<pdfrwt beam="1">  1       21 0.15330781E-01 0.33420421E+03</pdfrwt>
<pdfrwt beam="2">  1       21 0.43109487E-01 0.33420421E+03</pdfrwt>
<totfact> 0.18796277E+05</totfact>
</mgrwt>
</event>
<event>
 8    1  0.9175398E-006  0.2613740E+03  0.7546771E-02  0.1106320E+00
         21   -1    0    0  504  503  0.00000000000E+00  0.00000000000E+00  0.20126675605E+02  0.20126675605E+02  0.00000000000E+00 0. -1.
         21   -1    0    0  503  504 -0.00000000000E+00 -0.00000000000E+00 -0.84858017329E+03  0.84858017329E+03  0.00000000000E+00 0. -1.
         25    2    1    2    0    0  0.28583144326E+02  0.21496732145E+02 -0.45802360129E+03  0.47611880586E+03  0.12499756927E+03 0.  0.
         25    2    1    2    0    0 -0.28583144326E+02 -0.21496732145E+02 -0.37042989640E+03  0.39258804304E+03  0.12501183047E+03 0.  0.
          5    1    3    3  501    0  0.74381426067E+02  0.33375042395E+02 -0.31426416717E+03  0.32470070337E+03  0.47000000000E+01 0.  1.
         -5    1    3    3    0  501 -0.45798281741E+02 -0.11878310250E+02 -0.14375943412E+03  0.15141810249E+03  0.47000000000E+01 0.  1.
          5    1    4    4  502    0 -0.32852173748E+02 -0.71788889171E+02 -0.23739483504E+03  0.25022251623E+03  0.47000000000E+01 0. -1.
         -5    1    4    4    0  502  0.42690294221E+01  0.50292157026E+02 -0.13303506136E+03  0.14236552680E+03  0.47000000000E+01 0. -1.
<mgrwt>
<rscale>  0 0.26137405E+03</rscale>
<asrwt>0</asrwt>
<pdfrwt beam="1">  1       21 0.30964116E-02 0.26137405E+03</pdfrwt>
<pdfrwt beam="2">  1       21 0.13055080E+00 0.26137405E+03</pdfrwt>
<totfact> 0.25105558E+05</totfact>
</mgrwt>
</event>
<event>
 8    1  0.9175398E-006  0.2707929E+03  0.7546771E-02  0.1100827E+00
         21   -1    0    0  504  503  0.00000000000E+00  0.00000000000E+00  0.44156419767E+02  0.44156419767E+02  0.00000000000E+00 0. -1.
         21   -1    0    0  503  504 -0.00000000000E+00 -0.00000000000E+00 -0.41516486526E+03  0.41516486526E+03  0.00000000000E+00 0. -1.
         25    2    1    2    0    0 -0.19382414659E+02 -0.35080964754E+02 -0.12928116912E+03  0.18425205339E+03  0.12501538467E+03 0.  0.
         25    2    1    2    0    0  0.19382414659E+02  0.35080964754E+02 -0.24172727638E+03  0.27506923164E+03  0.12499861584E+03 0.  0.
          5    1    3    3  501    0  0.35406630648E+02  0.28604991768E+02 -0.33194622275E+02  0.56531831705E+02  0.47000000000E+01 0. -1.
         -5    1    3    3    0  501 -0.54789045307E+02 -0.63685956522E+02 -0.96086546844E+02  0.12772022169E+03  0.47000000000E+01 0. -1.
          5    1    4    4  502    0  0.51337172298E+02 -0.16418148362E+02 -0.49042372257E+02  0.73022634380E+02  0.47000000000E+01 0. -1.
         -5    1    4    4    0  502 -0.31954757639E+02  0.51499113116E+02 -0.19268490412E+03  0.20204659726E+03  0.47000000000E+01 0. -1.
<mgrwt>
<rscale>  0 0.27079287E+03</rscale>
<asrwt>0</asrwt>
<pdfrwt beam="1">  1       21 0.67932951E-02 0.27079287E+03</pdfrwt>
<pdfrwt beam="2">  1       21 0.63871520E-01 0.27079287E+03</pdfrwt>
<totfact> 0.35402765E+05</totfact>
</mgrwt>
</event>
<event>
 8    1  0.9175398E-006  0.3748318E+03  0.7546771E-02  0.1052861E+00
         21   -1    0    0  504  503  0.00000000000E+00  0.00000000000E+00  0.11303020196E+03  0.11303020196E+03  0.00000000000E+00 0.  1.
         21   -1    0    0  503  504 -0.00000000000E+00 -0.00000000000E+00 -0.31075510263E+03  0.31075510263E+03  0.00000000000E+00 0.  1.
         25    2    1    2    0    0  0.11091631909E+03 -0.74096630239E+02 -0.14555631689E+03  0.23367700713E+03  0.12500224726E+03 0.  0.
         25    2    1    2    0    0 -0.11091631909E+03  0.74096630239E+02 -0.52168583778E+02  0.19010829747E+03  0.12500745249E+03 0.  0.
          5    1    3    3  501    0  0.30108638731E+02  0.13950324326E+02  0.12237724160E+02  0.35679035408E+02  0.47000000000E+01 0. -1.
         -5    1    3    3    0  501  0.80807680362E+02 -0.88046954565E+02 -0.15779404105E+03  0.19799797172E+03  0.47000000000E+01 0. -1.
          5    1    4    4  502    0 -0.78713051564E+02 -0.14573629654E+02  0.38694605944E+01  0.80281989843E+02  0.47000000000E+01 0.  1.
         -5    1    4    4    0  502 -0.32203267529E+02  0.88670259893E+02 -0.56038044372E+02  0.10982630762E+03  0.47000000000E+01 0.  1.
<mgrwt>
<rscale>  0 0.37483176E+03</rscale>
<asrwt>0</asrwt>
<pdfrwt beam="1">  1       21 0.17389262E-01 0.37483176E+03</pdfrwt>
<pdfrwt beam="2">  1       21 0.47808477E-01 0.37483176E+03</pdfrwt>
<totfact> 0.11882717E+05</totfact>
</mgrwt>
</event>
<event>
 8    1  0.9175398E-006  0.2728402E+03  0.7546771E-02  0.1099665E+00
         21   -1    0    0  504  503  0.00000000000E+00  0.00000000000E+00  0.24460934595E+02  0.24460934595E+02  0.00000000000E+00 0.  1.
         21   -1    0    0  503  504 -0.00000000000E+00 -0.00000000000E+00 -0.76082300548E+03  0.76082300548E+03  0.00000000000E+00 0.  1.
         25    2    1    2    0    0  0.23098960203E+02 -0.49414523826E+02 -0.37717570953E+03  0.40107628724E+03  0.12500126079E+03 0.  0.
         25    2    1    2    0    0 -0.23098960203E+02  0.49414523826E+02 -0.35918636136E+03  0.38420765284E+03  0.12500128474E+03 0.  0.
          5    1    3    3  501    0  0.54839303085E+02  0.76798206851E+01 -0.84318978440E+02  0.10098568678E+03  0.47000000000E+01 0.  1.
         -5    1    3    3    0  501 -0.31740342882E+02 -0.57094344511E+02 -0.29285673109E+03  0.30009060046E+03  0.47000000000E+01 0.  1.
          5    1    4    4  502    0  0.41309190638E+02  0.50605011508E+02 -0.12301536018E+03  0.13936350046E+03  0.47000000000E+01 0. -1.
         -5    1    4    4    0  502 -0.64408150841E+02 -0.11904876817E+01 -0.23617100118E+03  0.24484415237E+03  0.47000000000E+01 0. -1.
<mgrwt>
<rscale>  0 0.27284019E+03</rscale>
<asrwt>0</asrwt>
<pdfrwt beam="1">  1       21 0.37632205E-02 0.27284019E+03</pdfrwt>
<pdfrwt beam="2">  1       21 0.11704970E+00 0.27284019E+03</pdfrwt>
<totfact> 0.23765338E+05</totfact>
</mgrwt>
</event>
<event>
 8    1  0.9175398E-006  0.3558588E+03  0.7546771E-02  0.1060236E+00
         21   -1    0    0  504  503  0.00000000000E+00  0.00000000000E+00  0.47279366867E+02  0.47279366867E+02  0.00000000000E+00 0.  1.
         21   -1    0    0  503  504 -0.00000000000E+00 -0.00000000000E+00 -0.66961302484E+03  0.66961302484E+03  0.00000000000E+00 0.  1.
         25    2    1    2    0    0 -0.40799980502E+02  0.51914219035E+02 -0.93490537488E+02  0.16948152709E+03  0.12499513141E+03 0.  0.
         25    2    1    2    0    0  0.40799980502E+02 -0.51914219035E+02 -0.52884312049E+03  0.54741086462E+03  0.12499553622E+03 0.  0.
          5    1    3    3  501    0  0.14204418795E+02  0.46831043895E+02  0.11736017120E+02  0.50544399131E+02  0.47000000000E+01 0.  1.
         -5    1    3    3    0  501 -0.55004399298E+02  0.50831751399E+01 -0.10522655461E+03  0.11893712795E+03  0.47000000000E+01 0.  1.
          5    1    4    4  502    0 -0.71440530749E+00  0.86761848799E+01  0.31254516873E+01  0.10375211191E+02  0.47000000000E+01 0. -1.
         -5    1    4    4    0  502  0.41514385810E+02 -0.60590403915E+02 -0.53196857217E+03  0.53703565343E+03  0.47000000000E+01 0. -1.
<mgrwt>
<rscale>  0 0.35585885E+03</rscale>
<asrwt>0</asrwt>
<pdfrwt beam="1">  1       21 0.72737490E-02 0.35585885E+03</pdfrwt>
<pdfrwt beam="2">  1       21 0.10301739E+00 0.35585885E+03</pdfrwt>
<totfact> 0.10259313E+05</totfact>
</mgrwt>
</event>
<event>
 8    1  0.9175398E-006  0.2866815E+03  0.7546771E-02  0.1092095E+00
         21   -1    0    0  504  503  0.00000000000E+00  0.00000000000E+00  0.23132571130E+03  0.23132571130E+03  0.00000000000E+00 0.  1.
         21   -1    0    0  503  504 -0.00000000000E+00 -0.00000000000E+00 -0.88820948638E+02  0.88820948638E+02  0.00000000000E+00 0.  1.
         25    2    1    2    0    0 -0.34181274904E+02  0.17445562432E+02  0.56108126814E+01  0.13083007883E+03  0.12494927412E+03 0.  0.
         25    2    1    2    0    0  0.34181274904E+02 -0.17445562432E+02  0.13689394998E+03  0.18931658111E+03  0.12501242794E+03 0.  0.
          5    1    3    3  501    0 -0.34026238365E+01  0.49105353155E+02  0.48379935770E+02  0.69178188344E+02  0.47000000000E+01 0. -1.
         -5    1    3    3    0  501 -0.30778651067E+02 -0.31659790723E+02 -0.42769123089E+02  0.61651890481E+02  0.47000000000E+01 0. -1.
          5    1    4    4  502    0  0.41952179257E+02 -0.67570685080E+02  0.87967966254E+02  0.11868544946E+03  0.47000000000E+01 0.  1.
         -5    1    4    4    0  502 -0.77709043530E+01  0.50125122647E+02  0.48925983727E+02  0.70631131653E+02  0.47000000000E+01 0.  1.
<mgrwt>
<rscale>  0 0.28668149E+03</rscale>
<asrwt>0</asrwt>
<pdfrwt beam="1">  1       21 0.35588571E-01 0.28668149E+03</pdfrwt>
<pdfrwt beam="2">  1       21 0.13664761E-01 0.28668149E+03</pdfrwt>
<totfact> 0.34636474E+05</totfact>
</mgrwt>
</event>
<event>
 8    1  0.9175398E-006  0.2821572E+03  0.7546771E-02  0.1094517E+00
         21   -1    0    0  504  503  0.00000000000E+00  0.00000000000E+00  0.30465312182E+02  0.30465312182E+02  0.00000000000E+00 0. -1.
         21   -1    0    0  503  504 -0.00000000000E+00 -0.00000000000E+00 -0.65330615769E+03  0.65330615769E+03  0.00000000000E+00 0. -1.
         25    2    1    2    0    0  0.36897433987E+02 -0.53213932524E+02 -0.33393683908E+03  0.36239799402E+03  0.12500140129E+03 0.  0.
         25    2    1    2    0    0 -0.36897433987E+02  0.53213932524E+02 -0.28890400643E+03  0.32137347585E+03  0.12498897072E+03 0.  0.
          5    1    3    3  501    0 -0.39299562693E+02  0.38321137123E+01 -0.56823973356E+02  0.69355566981E+02  0.47000000000E+01 0. -1.
         -5    1    3    3    0  501  0.76196996679E+02 -0.57046046236E+02 -0.27711286573E+03  0.29304242704E+03  0.47000000000E+01 0. -1.
          5    1    4    4  502    0  0.33303766353E+01 -0.25168588678E+02 -0.81382233192E+01  0.27071570759E+02  0.47000000000E+01 0. -1.
         -5    1    4    4    0  502 -0.40227810622E+02  0.78382521201E+02 -0.28076578311E+03  0.29430190510E+03  0.47000000000E+01 0. -1.
<mgrwt>
<rscale>  0 0.28215723E+03</rscale>
<asrwt>0</asrwt>
<pdfrwt beam="1">  1       21 0.46869711E-02 0.28215723E+03</pdfrwt>
<pdfrwt beam="2">  1       21 0.10050864E+00 0.28215723E+03</pdfrwt>
<totfact> 0.23709943E+05</totfact>
</mgrwt>
</event>
<event>
 8    1  0.9175398E-006  0.2716756E+03  0.7546771E-02  0.1100324E+00
         21   -1    0    0  504  503  0.00000000000E+00  0.00000000000E+00  0.18799228603E+03  0.18799228603E+03  0.00000000000E+00 0.  1.
         21   -1    0    0  503  504 -0.00000000000E+00 -0.00000000000E+00 -0.98152480139E+02  0.98152480139E+02  0.00000000000E+00 0.  1.
         25    2    1    2    0    0 -0.46661570501E+02  0.18144738477E+02  0.26036005079E+02  0.13713665346E+03  0.12498821730E+03 0.  0.
         25    2    1    2    0    0  0.46661570501E+02 -0.18144738477E+02  0.63803800809E+02  0.14900811271E+03  0.12500383578E+03 0.  0.
          5    1    3    3  501    0 -0.52457523593E+02 -0.28300137895E+02 -0.27550959032E+02  0.65831868651E+02  0.47000000000E+01 0.  1.
         -5    1    3    3    0  501  0.57959530925E+01  0.46444876373E+02  0.53586964111E+02  0.71304784806E+02  0.47000000000E+01 0.  1.
          5    1    4    4  502    0  0.11601495247E+02  0.10013618131E+02  0.93533182108E+02  0.94896856615E+02  0.47000000000E+01 0. -1.
         -5    1    4    4    0  502  0.35060075254E+02 -0.28158356608E+02 -0.29729381299E+02  0.54111256094E+02  0.47000000000E+01 0. -1.
<mgrwt>
<rscale>  0 0.27167561E+03</rscale>
<asrwt>0</asrwt>
<pdfrwt beam="1">  1       21 0.28921890E-01 0.27167561E+03</pdfrwt>
<pdfrwt beam="2">  1       21 0.15100382E-01 0.27167561E+03</pdfrwt>
<totfact> 0.43638178E+05</totfact>
</mgrwt>
</event>
<event>
 8    1  0.9175398E-006  0.2697479E+03  0.7546771E-02  0.1101424E+00
         21   -1    0    0  504  503  0.00000000000E+00  0.00000000000E+00  0.23500823108E+03  0.23500823108E+03  0.00000000000E+00 0. -1.
         21   -1    0    0  503  504 -0.00000000000E+00 -0.00000000000E+00 -0.77405719283E+02  0.77405719283E+02  0.00000000000E+00 0. -1.
         25    2    1    2    0    0  0.26089815294E+02 -0.31138913362E+02  0.11383514652E+03  0.17388267596E+03  0.12500573598E+03 0.  0.
         25    2    1    2    0    0 -0.26089815294E+02  0.31138913362E+02  0.43767365281E+02  0.13853127441E+03  0.12500008535E+03 0.  0.
          5    1    3    3  501    0 -0.36009691387E+02 -0.42922679321E+02  0.90097571023E+02  0.10620130215E+03  0.47000000000E+01 0. -1.
         -5    1    3    3    0  501  0.62099506681E+02  0.11783765958E+02  0.23737575494E+02  0.67681373808E+02  0.47000000000E+01 0. -1.
          5    1    4    4  502    0  0.11126446759E+02  0.67907255894E+02  0.50626150932E+02  0.85558695518E+02  0.47000000000E+01 0. -1.
         -5    1    4    4    0  502 -0.37216262053E+02 -0.36768342532E+02 -0.68587856513E+01  0.52972578890E+02  0.47000000000E+01 0. -1.
<mgrwt>
<rscale>  0 0.26974789E+03</rscale>
<asrwt>0</asrwt>
<pdfrwt beam="1">  1       21 0.36155112E-01 0.26974789E+03</pdfrwt>
<pdfrwt beam="2">  1       21 0.11908572E-01 0.26974789E+03</pdfrwt>
<totfact> 0.43193327E+05</totfact>
</mgrwt>
</event>
<event>
 8    1  0.9175398E-006  0.3228518E+03  0.7546771E-02  0.1074344E+00
         21   -1    0    0  504  503  0.00000000000E+00  0.00000000000E+00  0.30850887794E+02  0.30850887794E+02  0.00000000000E+00 0.  1.
         21   -1    0    0  503  504 -0.00000000000E+00 -0.00000000000E+00 -0.84465386233E+03  0.84465386233E+03  0.00000000000E+00 0.  1.
         25    2    1    2    0    0  0.64525003754E+02 -0.71473721662E+02 -0.49930704376E+03  0.52364531757E+03  0.12499970269E+03 0.  0.
         25    2    1    2    0    0 -0.64525003754E+02  0.71473721662E+02 -0.31449593078E+03  0.35185943255E+03  0.12500160319E+03 0.  0.
          5    1    3    3  501    0 -0.26675238684E+02 -0.69580334880E+01 -0.23503826010E+03  0.23669612650E+03  0.47000000000E+01 0. -1.
         -5    1    3    3    0  501  0.91200242439E+02 -0.64515688174E+02 -0.26426878366E+03  0.28694919107E+03  0.47000000000E+01 0. -1.
          5    1    4    4  502    0  0.27296964926E+02 -0.12518148811E+02 -0.91906201926E+02  0.96802212249E+02  0.47000000000E+01 0.  1.
         -5    1    4    4    0  502 -0.91821968680E+02  0.83991870473E+02 -0.22258972886E+03  0.25505722030E+03  0.47000000000E+01 0.  1.
<mgrwt>
<rscale>  0 0.32285180E+03</rscale>
<asrwt>0</asrwt>
<pdfrwt beam="1">  1       21 0.47462905E-02 0.32285180E+03</pdfrwt>
<pdfrwt beam="2">  1       21 0.12994675E+00 0.32285180E+03</pdfrwt>
<totfact> 0.12137287E+05</totfact>
</mgrwt>
</event>
<event>
 8    1  0.9175398E-006  0.3496834E+03  0.7546771E-02  0.1062745E+00
         21   -1    0    0  504  503  0.00000000000E+00  0.00000000000E+00  0.25205580827E+03  0.25205580827E+03  0.00000000000E+00 0. -1.
         21   -1    0    0  503  504 -0.00000000000E+00 -0.00000000000E+00 -0.12128114650E+03  0.12128114650E+03  0.00000000000E+00 0. -1.
         25    2    1    2    0    0  0.12055631937E+03  0.16775555713E+02  0.77585578401E+02  0.19094693237E+03  0.12500385433E+03 0.  0.
         25    2    1    2    0    0 -0.12055631937E+03 -0.16775555713E+02  0.53189083373E+02  0.18239002240E+03  0.12498718443E+03 0.  0.
          5    1    3    3  501    0  0.78415453965E+02  0.70829953598E+02  0.47004322515E+02  0.11574697440E+03  0.47000000000E+01 0. -1.
         -5    1    3    3    0  501  0.42140865404E+02 -0.54054397886E+02  0.30581255886E+02  0.75199957974E+02  0.47000000000E+01 0. -1.
          5    1    4    4  502    0 -0.78101480588E+02  0.51047630348E+02  0.19451490181E+02  0.95426161530E+02  0.47000000000E+01 0.  1.
         -5    1    4    4    0  502 -0.42454838781E+02 -0.67823186060E+02  0.33737593192E+02  0.86963860871E+02  0.47000000000E+01 0.  1.
<mgrwt>
<rscale>  0 0.34968338E+03</rscale>
<asrwt>0</asrwt>
<pdfrwt beam="1">  1       21 0.38777817E-01 0.34968338E+03</pdfrwt>
<pdfrwt beam="2">  1       21 0.18658638E-01 0.34968338E+03</pdfrwt>
<totfact> 0.16151188E+05</totfact>
</mgrwt>
</event>
<event>
 8    1  0.9175398E-006  0.2845203E+03  0.7546771E-02  0.1093245E+00
         21   -1    0    0  504  503  0.00000000000E+00  0.00000000000E+00  0.45913764872E+03  0.45913764872E+03  0.00000000000E+00 0.  1.
         21   -1    0    0  503  504 -0.00000000000E+00 -0.00000000000E+00 -0.44078189910E+02  0.44078189910E+02  0.00000000000E+00 0.  1.
         25    2    1    2    0    0  0.13478273091E+02 -0.39524413255E+02  0.30227453459E+03  0.32975482992E+03  0.12499804200E+03 0.  0.
         25    2    1    2    0    0 -0.13478273091E+02  0.39524413255E+02  0.11278492422E+03  0.17346100871E+03  0.12499775727E+03 0.  0.
          5    1    3    3  501    0 -0.50442856959E+02  0.18740140278E+01  0.79623310142E+02  0.94392559372E+02  0.47000000000E+01 0.  1.
         -5    1    3    3    0  501  0.63921130051E+02 -0.41398427283E+02  0.22265122445E+03  0.23536227055E+03  0.47000000000E+01 0.  1.
          5    1    4    4  502    0 -0.25515143284E+02 -0.37820610671E+02  0.71217783582E+02  0.84708227621E+02  0.47000000000E+01 0. -1.
         -5    1    4    4    0  502  0.12036870193E+02  0.77345023926E+02  0.41567140634E+02  0.88752781087E+02  0.47000000000E+01 0. -1.
<mgrwt>
<rscale>  0 0.28452034E+03</rscale>
<asrwt>0</asrwt>
<pdfrwt beam="1">  1       21 0.70636558E-01 0.28452034E+03</pdfrwt>
<pdfrwt beam="2">  1       21 0.67812603E-02 0.28452034E+03</pdfrwt>
<totfact> 0.28346286E+05</totfact>
</mgrwt>
</event>
<event>
 8    1  0.9175398E-006  0.2631849E+03  0.7546771E-02  0.1105245E+00
         21   -1    0    0  504  503  0.00000000000E+00  0.00000000000E+00  0.71376499426E+02  0.71376499426E+02  0.00000000000E+00 0.  1.
         21   -1    0    0  503  504 -0.00000000000E+00 -0.00000000000E+00 -0.24260883416E+03  0.24260883416E+03  0.00000000000E+00 0.  1.
         25    2    1    2    0    0  0.31057567728E+02  0.26049667697E+02 -0.93988010182E+02  0.16156281252E+03  0.12500255449E+03 0.  0.
         25    2    1    2    0    0 -0.31057567728E+02 -0.26049667697E+02 -0.77244324555E+02  0.15242252107E+03  0.12499112590E+03 0.  0.
          5    1    3    3  501    0  0.60055690265E+02  0.58030320707E+02 -0.80506697402E+02  0.11609316251E+03  0.47000000000E+01 0.  1.
         -5    1    3    3    0  501 -0.28998122537E+02 -0.31980653010E+02 -0.13481312780E+02  0.45469650008E+02  0.47000000000E+01 0.  1.
          5    1    4    4  502    0  0.42959374149E+01  0.21319422259E+02 -0.89201667693E+02  0.91934761450E+02  0.47000000000E+01 0. -1.
         -5    1    4    4    0  502 -0.35353505143E+02 -0.47369089957E+02  0.11957343138E+02  0.60487759622E+02  0.47000000000E+01 0. -1.
<mgrwt>
<rscale>  0 0.26318487E+03</rscale>
<asrwt>0</asrwt>
<pdfrwt beam="1">  1       21 0.10981000E-01 0.26318487E+03</pdfrwt>
<pdfrwt beam="2">  1       21 0.37324436E-01 0.26318487E+03</pdfrwt>
<totfact> 0.46920736E+05</totfact>
</mgrwt>
</event>
<event>
 8    1  0.9175398E-006  0.4660249E+03  0.7546771E-02  0.1023048E+00
         21   -1    0    0  504  503  0.00000000000E+00  0.00000000000E+00  0.97606438682E+02  0.97606438682E+02  0.00000000000E+00 0.  1.
         21   -1    0    0  503  504 -0.00000000000E+00 -0.00000000000E+00 -0.55626253036E+03  0.55626253036E+03  0.00000000000E+00 0.  1.
         25    2    1    2    0    0 -0.83725764092E+02  0.42196679877E+02  0.13211822683E+02  0.15680409776E+03  0.12498963738E+03 0.  0.
         25    2    1    2    0    0  0.83725764092E+02 -0.42196679877E+02 -0.47186791436E+03  0.49706487127E+03  0.12499437703E+03 0.  0.
          5    1    3    3  501    0  0.25795509135E+02  0.33896927923E+02 -0.10978511572E+02  0.44238306144E+02  0.47000000000E+01 0. -1.
         -5    1    3    3    0  501 -0.10952127323E+03  0.82997519536E+01  0.24190334256E+02  0.11256579162E+03  0.47000000000E+01 0. -1.
          5    1    4    4  502    0  0.40760826161E+02 -0.44968992200E+02 -0.43766404704E+03  0.44187731700E+03  0.47000000000E+01 0. -1.
         -5    1    4    4    0  502  0.42964937930E+02  0.27723123231E+01 -0.34203867317E+02  0.55187554271E+02  0.47000000000E+01 0. -1.
<mgrwt>
<rscale>  0 0.46602491E+03</rscale>
<asrwt>0</asrwt>
<pdfrwt beam="1">  1       21 0.15016375E-01 0.46602491E+03</pdfrwt>
<pdfrwt beam="2">  1       21 0.85578850E-01 0.46602491E+03</pdfrwt>
<totfact> 0.42141459E+04</totfact>
</mgrwt>
</event>
<event>
 8    1  0.9175398E-006  0.4361949E+03  0.7546771E-02  0.1031921E+00
         21   -1    0    0  504  503  0.00000000000E+00  0.00000000000E+00  0.19556565927E+04  0.19556565927E+04  0.00000000000E+00 0. -1.
         21   -1    0    0  503  504 -0.00000000000E+00 -0.00000000000E+00 -0.24322523838E+02  0.24322523838E+02  0.00000000000E+00 0. -1.
         25    2    1    2    0    0  0.17268394595E+03 -0.36870114975E+02  0.84037094986E+03  0.86777209997E+03  0.12500373413E+03 0.  0.
         25    2    1    2    0    0 -0.17268394595E+03  0.36870114975E+02  0.10909631190E+04  0.11122070166E+04  0.12499908048E+03 0.  0.
          5    1    3    3  501    0  0.65032368488E+02 -0.16134481502E+02  0.59749053543E+03  0.60125415622E+03  0.47000000000E+01 0. -1.
         -5    1    3    3    0  501  0.10765157746E+03 -0.20735633473E+02  0.24288041443E+03  0.26651794375E+03  0.47000000000E+01 0. -1.
          5    1    4    4  502    0 -0.71533256149E+02  0.66697189913E+02  0.33856585648E+03  0.35244070572E+03  0.47000000000E+01 0. -1.
         -5    1    4    4    0  502 -0.10115068980E+03 -0.29827074938E+02  0.75239726256E+03  0.75976631088E+03  0.47000000000E+01 0. -1.
<mgrwt>
<rscale>  0 0.43619493E+03</rscale>
<asrwt>0</asrwt>
<pdfrwt beam="1">  1       21 0.30087012E+00 0.43619493E+03</pdfrwt>
<pdfrwt beam="2">  1       21 0.37419283E-02 0.43619493E+03</pdfrwt>
<totfact> 0.12559578E+04</totfact>
</mgrwt>
</event>
<event>
 8    1  0.9175398E-006  0.3153014E+03  0.7546771E-02  0.1077832E+00
         21   -1    0    0  504  503  0.00000000000E+00  0.00000000000E+00  0.26812568918E+02  0.26812568918E+02  0.00000000000E+00 0. -1.
         21   -1    0    0  503  504 -0.00000000000E+00 -0.00000000000E+00 -0.92694357033E+03  0.92694357033E+03  0.00000000000E+00 0. -1.
         25    2    1    2    0    0 -0.48366721291E+02 -0.22699555000E+02 -0.20853537171E+03  0.24892953379E+03  0.12499720803E+03 0.  0.
         25    2    1    2    0    0  0.48366721291E+02  0.22699555000E+02 -0.69159562971E+03  0.70482660546E+03  0.12498567599E+03 0.  0.
          5    1    3    3  501    0  0.37847070439E+02  0.15231276020E+02 -0.53178109621E+02  0.67189239116E+02  0.47000000000E+01 0. -1.
         -5    1    3    3    0  501 -0.86213791731E+02 -0.37930831020E+02 -0.15535726209E+03  0.18174029468E+03  0.47000000000E+01 0. -1.
          5    1    4    4  502    0  0.89912333586E+02  0.63266961941E+01 -0.49578048668E+03  0.50392919720E+03  0.47000000000E+01 0. -1.
         -5    1    4    4    0  502 -0.41545612295E+02  0.16372858806E+02 -0.19581514302E+03  0.20089740825E+03  0.47000000000E+01 0. -1.
<mgrwt>
<rscale>  0 0.31530137E+03</rscale>
<asrwt>0</asrwt>
<pdfrwt beam="1">  1       21 0.41250102E-02 0.31530137E+03</pdfrwt>
<pdfrwt beam="2">  1       21 0.14260672E+00 0.31530137E+03</pdfrwt>
<totfact> 0.12126836E+05</totfact>
</mgrwt>
</event>
<event>
 8    1  0.9175398E-006  0.3132650E+03  0.7546771E-02  0.1078791E+00
         21   -1    0    0  504  503  0.00000000000E+00  0.00000000000E+00  0.21993807800E+03  0.21993807800E+03  0.00000000000E+00 0.  1.
         21   -1    0    0  503  504 -0.00000000000E+00 -0.00000000000E+00 -0.11154837774E+03  0.11154837774E+03  0.00000000000E+00 0.  1.
         25    2    1    2    0    0  0.61480466753E+02 -0.22898271640E+02 -0.17606537294E+02  0.14227244469E+03  0.12500911857E+03 0.  0.
         25    2    1    2    0    0 -0.61480466753E+02  0.22898271640E+02  0.12599623755E+03  0.18921401106E+03  0.12499084553E+03 0.  0.
          5    1    3    3  501    0  0.42982850031E+02 -0.42207971500E+02  0.44134026941E+02  0.74826068913E+02  0.47000000000E+01 0. -1.
         -5    1    3    3    0  501  0.18497616722E+02  0.19309699860E+02 -0.61740564235E+02  0.67446375775E+02  0.47000000000E+01 0. -1.
          5    1    4    4  502    0 -0.62223773536E+02 -0.27397175570E+02  0.18778889724E+02  0.70690451417E+02  0.47000000000E+01 0. -1.
         -5    1    4    4    0  502  0.74330678291E+00  0.50295447210E+02  0.10721734783E+03  0.11852355964E+03  0.47000000000E+01 0. -1.
<mgrwt>
<rscale>  0 0.31326497E+03</rscale>
<asrwt>0</asrwt>
<pdfrwt beam="1">  1       21 0.33836627E-01 0.31326497E+03</pdfrwt>
<pdfrwt beam="2">  1       21 0.17161289E-01 0.31326497E+03</pdfrwt>
<totfact> 0.25054909E+05</totfact>
</mgrwt>
</event>
<event>
 8    1  0.9175398E-006  0.2890003E+03  0.7546771E-02  0.1090872E+00
         21   -1    0    0  504  503  0.00000000000E+00  0.00000000000E+00  0.25992100693E+02  0.25992100693E+02  0.00000000000E+00 0.  1.
         21   -1    0    0  503  504 -0.00000000000E+00 -0.00000000000E+00 -0.80333223120E+03  0.80333223120E+03  0.00000000000E+00 0.  1.
         25    2    1    2    0    0 -0.10808120041E+02 -0.62514717097E+02 -0.48937145363E+03  0.50905012672E+03  0.12499082596E+03 0.  0.
         25    2    1    2    0    0  0.10808120041E+02  0.62514717097E+02 -0.28796867688E+03  0.32027420517E+03  0.12499880929E+03 0.  0.
          5    1    3    3  501    0 -0.19114404627E+02 -0.55569693926E+02 -0.49314657884E+03  0.49665781940E+03  0.47000000000E+01 0. -1.
         -5    1    3    3    0  501  0.83062845861E+01 -0.69450231709E+01  0.37751252095E+01  0.12392307324E+02  0.47000000000E+01 0. -1.
          5    1    4    4  502    0 -0.44431277732E+02 -0.10365332000E+02 -0.68162483517E+02  0.82157122075E+02  0.47000000000E+01 0.  1.
         -5    1    4    4    0  502  0.55239397774E+02  0.72880049098E+02 -0.21980619336E+03  0.23811708310E+03  0.47000000000E+01 0.  1.
<mgrwt>
<rscale>  0 0.28900029E+03</rscale>
<asrwt>0</asrwt>
<pdfrwt beam="1">  1       21 0.39987851E-02 0.28900029E+03</pdfrwt>
<pdfrwt beam="2">  1       21 0.12358956E+00 0.28900029E+03</pdfrwt>
<totfact> 0.18634013E+05</totfact>
</mgrwt>
</event>
<event>
 8    1  0.9175398E-006  0.2963266E+03  0.7546771E-02  0.1087091E+00
         21   -1    0    0  504  503  0.00000000000E+00  0.00000000000E+00  0.36842093312E+03  0.36842093312E+03  0.00000000000E+00 0. -1.
         21   -1    0    0  503  504 -0.00000000000E+00 -0.00000000000E+00 -0.59585003692E+02  0.59585003692E+02  0.00000000000E+00 0. -1.
         25    2    1    2    0    0 -0.29401978762E+02  0.26168803496E+02  0.25422300633E+03  0.28601344343E+03  0.12500028097E+03 0.  0.
         25    2    1    2    0    0  0.29401978762E+02 -0.26168803496E+02  0.54612923099E+02  0.14199249338E+03  0.12502005510E+03 0.  0.
          5    1    3    3  501    0 -0.37100343920E+02  0.71751729628E+02  0.12715360841E+03  0.15071455257E+03  0.47000000000E+01 0. -1.
         -5    1    3    3    0  501  0.76983651585E+01 -0.45582926132E+02  0.12706939792E+03  0.13529889086E+03  0.47000000000E+01 0. -1.
          5    1    4    4  502    0  0.30791821956E+02  0.11513051348E+02 -0.32801091192E+02  0.46676420536E+02  0.47000000000E+01 0.  1.
         -5    1    4    4    0  502 -0.13898431938E+01 -0.37681854844E+02  0.87414014291E+02  0.95316072848E+02  0.47000000000E+01 0.  1.
<mgrwt>
<rscale>  0 0.29632659E+03</rscale>
<asrwt>0</asrwt>
<pdfrwt beam="1">  1       21 0.56680142E-01 0.29632659E+03</pdfrwt>
<pdfrwt beam="2">  1       21 0.91669239E-02 0.29632659E+03</pdfrwt>
<totfact> 0.26972360E+05</totfact>
</mgrwt>
</event>
<event>
 8    1  0.9175398E-006  0.3290289E+03  0.7546771E-02  0.1071567E+00
         21   -1    0    0  504  503  0.00000000000E+00  0.00000000000E+00  0.83248538824E+02  0.83248538824E+02  0.00000000000E+00 0.  1.
         21   -1    0    0  503  504 -0.00000000000E+00 -0.00000000000E+00 -0.32511078607E+03  0.32511078607E+03  0.00000000000E+00 0.  1.
         25    2    1    2    0    0  0.31229432552E+02  0.32779954868E+02 -0.24119329129E+03  0.27541074692E+03  0.12500829115E+03 0.  0.
         25    2    1    2    0    0 -0.31229432552E+02 -0.32779954868E+02 -0.66895595726E+00  0.13294857798E+03  0.12500029594E+03 0.  0.
          5    1    3    3  501    0  0.61260312791E+02  0.62648479262E+02 -0.18618276539E+03  0.20582460982E+03  0.47000000000E+01 0. -1.
         -5    1    3    3    0  501 -0.30030880239E+02 -0.29868524393E+02 -0.55010525900E+02  0.69586137104E+02  0.47000000000E+01 0. -1.
          5    1    4    4  502    0  0.10185999958E+02 -0.21257772044E+02  0.56421901736E+02  0.61328365892E+02  0.47000000000E+01 0.  1.
         -5    1    4    4    0  502 -0.41415432509E+02 -0.11522182824E+02 -0.57090857693E+02  0.71620212085E+02  0.47000000000E+01 0.  1.
<mgrwt>
<rscale>  0 0.32902886E+03</rscale>
<asrwt>0</asrwt>
<pdfrwt beam="1">  1       21 0.12807468E-01 0.32902886E+03</pdfrwt>
<pdfrwt beam="2">  1       21 0.50017043E-01 0.32902886E+03</pdfrwt>
<totfact> 0.19178922E+05</totfact>
</mgrwt>
</event>
<event>
 8    1  0.9175398E-006  0.3050122E+03  0.7546771E-02  0.1082762E+00
         21   -1    0    0  504  503  0.00000000000E+00  0.00000000000E+00  0.28460301813E+02  0.28460301813E+02  0.00000000000E+00 0.  1.
         21   -1    0    0  503  504 -0.00000000000E+00 -0.00000000000E+00 -0.81721237755E+03  0.81721237755E+03  0.00000000000E+00 0.  1.
         25    2    1    2    0    0  0.20742493839E+02  0.84328600014E+02 -0.36784074903E+03  0.39808767784E+03  0.12500167507E+03 0.  0.
         25    2    1    2    0    0 -0.20742493839E+02 -0.84328600014E+02 -0.42091132670E+03  0.44758500152E+03  0.12499769921E+03 0.  0.
          5    1    3    3  501    0  0.83901690734E+01  0.20635325525E+02  0.17336129962E+01  0.22832148620E+02  0.47000000000E+01 0.  1.
         -5    1    3    3    0  501  0.12352324766E+02  0.63693274489E+02 -0.36957436203E+03  0.37525552922E+03  0.47000000000E+01 0.  1.
          5    1    4    4  502    0 -0.40745074234E+02 -0.37804848775E+02 -0.55626874665E+02  0.78776943646E+02  0.47000000000E+01 0.  1.
         -5    1    4    4    0  502  0.20002580394E+02 -0.46523751239E+02 -0.36528445204E+03  0.36880805787E+03  0.47000000000E+01 0.  1.
<mgrwt>
<rscale>  0 0.30501220E+03</rscale>
<asrwt>0</asrwt>
<pdfrwt beam="1">  1       21 0.43785080E-02 0.30501220E+03</pdfrwt>
<pdfrwt beam="2">  1       21 0.12572498E+00 0.30501220E+03</pdfrwt>
<totfact> 0.15229671E+05</totfact>
</mgrwt>
</event>
<event>
 8    1  0.9175398E-006  0.3600060E+03  0.7546771E-02  0.1058581E+00
         21   -1    0    0  504  503  0.00000000000E+00  0.00000000000E+00  0.36520144080E+03  0.36520144080E+03  0.00000000000E+00 0.  1.
         21   -1    0    0  503  504 -0.00000000000E+00 -0.00000000000E+00 -0.88721116269E+02  0.88721116269E+02  0.00000000000E+00 0.  1.
         25    2    1    2    0    0 -0.48983638847E+02  0.59941505206E+02  0.73050347066E+01  0.14720796606E+03  0.12499776326E+03 0.  0.
         25    2    1    2    0    0  0.48983638847E+02 -0.59941505206E+02  0.26917528982E+03  0.30671459101E+03  0.12500449097E+03 0.  0.
          5    1    3    3  501    0 -0.68828949662E+02  0.36112431926E+02  0.51247719690E+02  0.93219905732E+02  0.47000000000E+01 0. -1.
         -5    1    3    3    0  501  0.19845310815E+02  0.23829073280E+02 -0.43942684984E+02  0.53988060331E+02  0.47000000000E+01 0. -1.
          5    1    4    4  502    0  0.19814012158E+02  0.17528103012E+02  0.19694414232E+01  0.26940641651E+02  0.47000000000E+01 0.  1.
         -5    1    4    4    0  502  0.29169626689E+02 -0.77469608218E+02  0.26720584840E+03  0.27977394936E+03  0.47000000000E+01 0.  1.
<mgrwt>
<rscale>  0 0.36000600E+03</rscale>
<asrwt>0</asrwt>
<pdfrwt beam="1">  1       21 0.56184836E-01 0.36000600E+03</pdfrwt>
<pdfrwt beam="2">  1       21 0.13649403E-01 0.36000600E+03</pdfrwt>
<totfact> 0.13234668E+05</totfact>
</mgrwt>
</event>
<event>
 8    1  0.9175398E-006  0.4223273E+03  0.7546771E-02  0.1036312E+00
         21   -1    0    0  504  503  0.00000000000E+00  0.00000000000E+00  0.19775286300E+03  0.19775286300E+03  0.00000000000E+00 0.  1.
         21   -1    0    0  503  504 -0.00000000000E+00 -0.00000000000E+00 -0.22548390399E+03  0.22548390399E+03  0.00000000000E+00 0.  1.
         25    2    1    2    0    0  0.84826029279E+02 -0.14084610737E+03  0.30191732993E+02  0.20873079889E+03  0.12499569777E+03 0.  0.
         25    2    1    2    0    0 -0.84826029279E+02  0.14084610737E+03 -0.57922773981E+02  0.21450596810E+03  0.12499872559E+03 0.  0.
          5    1    3    3  501    0  0.10275056886E+03 -0.12506941404E+03 -0.94573435085E+01  0.16220841246E+03  0.47000000000E+01 0.  1.
         -5    1    3    3    0  501 -0.17924539579E+02 -0.15776693334E+02  0.39649076501E+02  0.46522386429E+02  0.47000000000E+01 0.  1.
          5    1    4    4  502    0 -0.10697240354E+03  0.14119422843E+03 -0.31969408339E+02  0.18006398399E+03  0.47000000000E+01 0. -1.
         -5    1    4    4    0  502  0.22146374259E+02 -0.34812106030E+00 -0.25953365641E+02  0.34441984107E+02  0.47000000000E+01 0. -1.
<mgrwt>
<rscale>  0 0.42232730E+03</rscale>
<asrwt>0</asrwt>
<pdfrwt beam="1">  1       21 0.30423517E-01 0.42232730E+03</pdfrwt>
<pdfrwt beam="2">  1       21 0.34689831E-01 0.42232730E+03</pdfrwt>
<totfact> 0.77569309E+04</totfact>
</mgrwt>
</event>
<event>
 8    1  0.9175398E-006  0.4179006E+03  0.7546771E-02  0.1037752E+00
         21   -1    0    0  504  503  0.00000000000E+00  0.00000000000E+00  0.10766201638E+03  0.10766201638E+03  0.00000000000E+00 0. -1.
         21   -1    0    0  503  504 -0.00000000000E+00 -0.00000000000E+00 -0.40553041468E+03  0.40553041468E+03  0.00000000000E+00 0. -1.
         25    2    1    2    0    0 -0.94756563936E+02 -0.12313645166E+03 -0.72309288630E+02  0.21212229203E+03  0.12500336562E+03 0.  0.
         25    2    1    2    0    0  0.94756563936E+02  0.12313645166E+03 -0.22555910967E+03  0.30107013903E+03  0.12499969809E+03 0.  0.
          5    1    3    3  501    0 -0.36017245084E+02  0.45847417583E+01 -0.60826987177E+02  0.70994888333E+02  0.47000000000E+01 0.  1.
         -5    1    3    3    0  501 -0.58739318853E+02 -0.12772119342E+03 -0.11482301453E+02  0.14112740369E+03  0.47000000000E+01 0.  1.
          5    1    4    4  502    0  0.63889308706E+02  0.65375849104E+02 -0.32465147409E+02  0.97118078694E+02  0.47000000000E+01 0. -1.
         -5    1    4    4    0  502  0.30867255230E+02  0.57760602554E+02 -0.19309396226E+03  0.20395206033E+03  0.47000000000E+01 0. -1.
<mgrwt>
<rscale>  0 0.41790057E+03</rscale>
<asrwt>0</asrwt>
<pdfrwt beam="1">  1       21 0.16563387E-01 0.41790057E+03</pdfrwt>
<pdfrwt beam="2">  1       21 0.62389295E-01 0.41790057E+03</pdfrwt>
<totfact> 0.72720501E+04</totfact>
</mgrwt>
</event>
<event>
 8    1  0.9175398E-006  0.3275585E+03  0.7546771E-02  0.1072222E+00
         21   -1    0    0  504  503  0.00000000000E+00  0.00000000000E+00  0.53834957098E+02  0.53834957098E+02  0.00000000000E+00 0. -1.
         21   -1    0    0  503  504 -0.00000000000E+00 -0.00000000000E+00 -0.49825693694E+03  0.49825693694E+03  0.00000000000E+00 0. -1.
         25    2    1    2    0    0 -0.22295425924E+02 -0.43918248103E+02 -0.38007062748E+03  0.40312335114E+03  0.12501542236E+03 0.  0.
         25    2    1    2    0    0  0.22295425924E+02  0.43918248103E+02 -0.64351352361E+02  0.14896854290E+03  0.12499852675E+03 0.  0.
          5    1    3    3  501    0 -0.22503195705E+01 -0.62162038691E+02 -0.36771252153E+03  0.37296618008E+03  0.47000000000E+01 0.  1.
         -5    1    3    3    0  501 -0.20045106354E+02  0.18243790588E+02 -0.12358105950E+02  0.30157171061E+02  0.47000000000E+01 0.  1.
          5    1    4    4  502    0  0.24089951176E+02  0.76401601490E+02 -0.41217044272E+01  0.80353026733E+02  0.47000000000E+01 0. -1.
         -5    1    4    4    0  502 -0.17945252513E+01 -0.32483353387E+02 -0.60229647934E+02  0.68615516163E+02  0.47000000000E+01 0. -1.
<mgrwt>
<rscale>  0 0.32755849E+03</rscale>
<asrwt>0</asrwt>
<pdfrwt beam="1">  1       21 0.82823011E-02 0.32755849E+03</pdfrwt>
<pdfrwt beam="2">  1       21 0.76654913E-01 0.32755849E+03</pdfrwt>
<totfact> 0.16452212E+05</totfact>
</mgrwt>
</event>
<event>
 8    1  0.9175398E-006  0.4688946E+03  0.7546771E-02  0.1022233E+00
         21   -1    0    0  504  503  0.00000000000E+00  0.00000000000E+00  0.22860779902E+03  0.22860779902E+03  0.00000000000E+00 0. -1.
         21   -1    0    0  503  504 -0.00000000000E+00 -0.00000000000E+00 -0.24043599980E+03  0.24043599980E+03  0.00000000000E+00 0. -1.
         25    2    1    2    0    0 -0.14871468987E+03 -0.10758996534E+03 -0.81066768528E+02  0.23640696494E+03  0.12499908993E+03 0.  0.
         25    2    1    2    0    0  0.14871468987E+03  0.10758996534E+03  0.69238567749E+02  0.23263683388E+03  0.12503702486E+03 0.  0.
          5    1    3    3  501    0 -0.15411925506E+03 -0.96769704106E+02 -0.10429395986E+03  0.20980095442E+03  0.47000000000E+01 0.  1.
         -5    1    3    3    0  501  0.54045651842E+01 -0.10820261239E+02  0.23227191335E+02  0.26606010513E+02  0.47000000000E+01 0.  1.
          5    1    4    4  502    0  0.12039453337E+03  0.12392050643E+03  0.88733010709E+02  0.19428528707E+03  0.47000000000E+01 0. -1.
         -5    1    4    4    0  502  0.28320156503E+02 -0.16330541089E+02 -0.19494442960E+02  0.38351546813E+02  0.47000000000E+01 0. -1.
<mgrwt>
<rscale>  0 0.46889464E+03</rscale>
<asrwt>0</asrwt>
<pdfrwt beam="1">  1       21 0.35170430E-01 0.46889464E+03</pdfrwt>
<pdfrwt beam="2">  1       21 0.36990154E-01 0.46889464E+03</pdfrwt>
<totfact> 0.50413126E+04</totfact>
</mgrwt>
</event>
<event>
 8    1  0.9175398E-006  0.3735547E+03  0.7546771E-02  0.1053342E+00
         21   -1    0    0  504  503  0.00000000000E+00  0.00000000000E+00  0.20467873468E+02  0.20467873468E+02  0.00000000000E+00 0.  1.
         21   -1    0    0  503  504 -0.00000000000E+00 -0.00000000000E+00 -0.17044164975E+04  0.17044164975E+04  0.00000000000E+00 0.  1.
         25    2    1    2    0    0  0.79671636387E+02 -0.10119259263E+03 -0.60325357580E+03  0.62938700086E+03  0.12500243873E+03 0.  0.
         25    2    1    2    0    0 -0.79671636387E+02  0.10119259263E+03 -0.10806950483E+04  0.10954973701E+04  0.12500076077E+03 0.  0.
          5    1    3    3  501    0  0.73853609388E+02 -0.11544007159E+03 -0.35423456531E+03  0.37984863171E+03  0.47000000000E+01 0. -1.
         -5    1    3    3    0  501  0.58180269989E+01  0.14247478961E+02 -0.24901901049E+03  0.24953836915E+03  0.47000000000E+01 0. -1.
          5    1    4    4  502    0 -0.32890838480E+02  0.12299411449E+03 -0.74129137379E+03  0.75215979041E+03  0.47000000000E+01 0.  1.
         -5    1    4    4    0  502 -0.46780797907E+02 -0.21801521858E+02 -0.33940367446E+03  0.34333757972E+03  0.47000000000E+01 0.  1.
<mgrwt>
<rscale>  0 0.37355471E+03</rscale>
<asrwt>0</asrwt>
<pdfrwt beam="1">  1       21 0.31489035E-02 0.37355471E+03</pdfrwt>
<pdfrwt beam="2">  1       21 0.26221793E+00 0.37355471E+03</pdfrwt>
<totfact> 0.29491335E+04</totfact>
</mgrwt>
</event>
<event>
 8    1  0.9175398E-006  0.4249549E+03  0.7546771E-02  0.1035466E+00
         21   -1    0    0  504  503  0.00000000000E+00  0.00000000000E+00  0.18652009401E+03  0.18652009401E+03  0.00000000000E+00 0. -1.
         21   -1    0    0  503  504 -0.00000000000E+00 -0.00000000000E+00 -0.24204722243E+03  0.24204722243E+03  0.00000000000E+00 0. -1.
         25    2    1    2    0    0 -0.90844625681E+02  0.63504385048E+02  0.10464920437E+03  0.19712132775E+03  0.12497923404E+03 0.  0.
         25    2    1    2    0    0  0.90844625681E+02 -0.63504385048E+02 -0.16017633279E+03  0.23144598869E+03  0.12500094064E+03 0.  0.
          5    1    3    3  501    0 -0.18280494429E+01 -0.55705841976E+01 -0.24523191863E+02  0.25648588893E+02  0.47000000000E+01 0. -1.
         -5    1    3    3    0  501 -0.89016576238E+02  0.69074969245E+02  0.12917239623E+03  0.17147273885E+03  0.47000000000E+01 0. -1.
          5    1    4    4  502    0  0.92687689608E+02 -0.16208398262E+02 -0.40283184625E+02  0.10246240746E+03  0.47000000000E+01 0.  1.
         -5    1    4    4    0  502 -0.18430639271E+01 -0.47295986785E+02 -0.11989314817E+03  0.12898358123E+03  0.47000000000E+01 0.  1.
<mgrwt>
<rscale>  0 0.42495492E+03</rscale>
<asrwt>0</asrwt>
<pdfrwt beam="1">  1       21 0.28695399E-01 0.42495492E+03</pdfrwt>
<pdfrwt beam="2">  1       21 0.37238034E-01 0.42495492E+03</pdfrwt>
<totfact> 0.75394076E+04</totfact>
</mgrwt>
</event>
<event>
 8    1  0.9175398E-006  0.5387026E+03  0.7546771E-02  0.1004143E+00
         21   -1    0    0  504  503  0.00000000000E+00  0.00000000000E+00  0.60127324233E+02  0.60127324233E+02  0.00000000000E+00 0.  1.
         21   -1    0    0  503  504 -0.00000000000E+00 -0.00000000000E+00 -0.12066083408E+04  0.12066083408E+04  0.00000000000E+00 0.  1.
         25    2    1    2    0    0  0.17712381052E+02  0.23265373080E+03 -0.69043182447E+03  0.73943416684E+03  0.12500118377E+03 0.  0.
         25    2    1    2    0    0 -0.17712381052E+02 -0.23265373080E+03 -0.45604919209E+03  0.52730149820E+03  0.12499806997E+03 0.  0.
          5    1    3    3  501    0  0.41172622985E+02  0.63632261928E+02 -0.10473099752E+03  0.12936352454E+03  0.47000000000E+01 0. -1.
         -5    1    3    3    0  501 -0.23460241933E+02  0.16902146887E+03 -0.58570082696E+03  0.61007064229E+03  0.47000000000E+01 0. -1.
          5    1    4    4  502    0 -0.61739470227E+02 -0.11909632458E+03 -0.30484575381E+03  0.33308965809E+03  0.47000000000E+01 0. -1.
         -5    1    4    4    0  502  0.44027089175E+02 -0.11355740622E+03 -0.15120343828E+03  0.19421184010E+03  0.47000000000E+01 0. -1.
<mgrwt>
<rscale>  0 0.53870263E+03</rscale>
<asrwt>0</asrwt>
<pdfrwt beam="1">  1       21 0.92503576E-02 0.53870263E+03</pdfrwt>
<pdfrwt beam="2">  1       21 0.18563205E+00 0.53870263E+03</pdfrwt>
<totfact> 0.13292209E+04</totfact>
</mgrwt>
</event>
<event>
 8    1  0.9175398E-006  0.4813881E+03  0.7546771E-02  0.1018754E+00
         21   -1    0    0  504  503  0.00000000000E+00  0.00000000000E+00  0.38994608593E+03  0.38994608593E+03  0.00000000000E+00 0. -1.
         21   -1    0    0  503  504 -0.00000000000E+00 -0.00000000000E+00 -0.14856827138E+03  0.14856827138E+03  0.00000000000E+00 0. -1.
         25    2    1    2    0    0 -0.14134841842E+03 -0.12327892967E+03  0.26211314923E+02  0.22691341768E+03  0.12500238479E+03 0.  0.
         25    2    1    2    0    0  0.14134841842E+03  0.12327892967E+03  0.21516649963E+03  0.31160093962E+03  0.12498581168E+03 0.  0.
          5    1    3    3  501    0 -0.56771156078E+02 -0.34058756786E+02 -0.49196063952E+02  0.82615408882E+02  0.47000000000E+01 0. -1.
         -5    1    3    3    0  501 -0.84577262345E+02 -0.89220172882E+02  0.75407378876E+02  0.14429800880E+03  0.47000000000E+01 0. -1.
          5    1    4    4  502    0  0.12873477952E+03  0.11046757412E+03  0.10430278714E+03  0.19919058661E+03  0.47000000000E+01 0.  1.
         -5    1    4    4    0  502  0.12613638904E+02  0.12811355548E+02  0.11086371248E+03  0.11241035301E+03  0.47000000000E+01 0.  1.
<mgrwt>
<rscale>  0 0.48138806E+03</rscale>
<asrwt>0</asrwt>
<pdfrwt beam="1">  1       21 0.59991705E-01 0.48138806E+03</pdfrwt>
<pdfrwt beam="2">  1       21 0.22856657E-01 0.48138806E+03</pdfrwt>
<totfact> 0.42428705E+04</totfact>
</mgrwt>
</event>
<event>
 8    1  0.9175398E-006  0.3526650E+03  0.7546771E-02  0.1061527E+00
         21   -1    0    0  504  503  0.00000000000E+00  0.00000000000E+00  0.39933598445E+03  0.39933598445E+03  0.00000000000E+00 0. -1.
         21   -1    0    0  503  504 -0.00000000000E+00 -0.00000000000E+00 -0.77862127719E+02  0.77862127719E+02  0.00000000000E+00 0. -1.
         25    2    1    2    0    0 -0.10926330097E+03 -0.43329453775E+02  0.10576909841E+03  0.20157101504E+03  0.12501144516E+03 0.  0.
         25    2    1    2    0    0  0.10926330097E+03  0.43329453775E+02  0.21570475832E+03  0.27562709713E+03  0.12500337359E+03 0.  0.
          5    1    3    3  501    0 -0.27617598666E+02  0.42239480314E+02  0.16451904295E+02  0.53288465996E+02  0.47000000000E+01 0.  1.
         -5    1    3    3    0  501 -0.81645702300E+02 -0.85568934089E+02  0.89317194114E+02  0.14828254904E+03  0.47000000000E+01 0.  1.
          5    1    4    4  502    0  0.12718579789E+03  0.46085182465E+01  0.17528324348E+03  0.21666511272E+03  0.47000000000E+01 0. -1.
         -5    1    4    4    0  502 -0.17922496921E+02  0.38720935528E+02  0.40421514841E+02  0.58961984415E+02  0.47000000000E+01 0. -1.
<mgrwt>
<rscale>  0 0.35266499E+03</rscale>
<asrwt>0</asrwt>
<pdfrwt beam="1">  1       21 0.61436304E-01 0.35266499E+03</pdfrwt>
<pdfrwt beam="2">  1       21 0.11978789E-01 0.35266499E+03</pdfrwt>
<totfact> 0.13850216E+05</totfact>
</mgrwt>
</event>
<event>
 8    1  0.9175398E-006  0.2625637E+03  0.7546771E-02  0.1105613E+00
         21   -1    0    0  504  503  0.00000000000E+00  0.00000000000E+00  0.76702930266E+02  0.76702930266E+02  0.00000000000E+00 0. -1.
         21   -1    0    0  503  504 -0.00000000000E+00 -0.00000000000E+00 -0.22469707392E+03  0.22469707392E+03  0.00000000000E+00 0. -1.
         25    2    1    2    0    0  0.18377325183E+02  0.33485915708E+02 -0.59896051591E+02  0.14377646469E+03  0.12500040868E+03 0.  0.
         25    2    1    2    0    0 -0.18377325183E+02 -0.33485915708E+02 -0.88098092065E+02  0.15762353950E+03  0.12499949499E+03 0.  0.
          5    1    3    3  501    0 -0.19616615795E+02  0.72361388446E+02 -0.43493613152E+02  0.86803033001E+02  0.47000000000E+01 0. -1.
         -5    1    3    3    0  501  0.37993940978E+02 -0.38875472738E+02 -0.16402438439E+02  0.56973431689E+02  0.47000000000E+01 0. -1.
          5    1    4    4  502    0 -0.68174585787E+02 -0.21292532028E+02 -0.76667856991E+02  0.10488658810E+03  0.47000000000E+01 0. -1.
         -5    1    4    4    0  502  0.49797260604E+02 -0.12193383680E+02 -0.11430235074E+02  0.52736951401E+02  0.47000000000E+01 0. -1.
<mgrwt>
<rscale>  0 0.26256370E+03</rscale>
<asrwt>0</asrwt>
<pdfrwt beam="1">  1       21 0.11800451E-01 0.26256370E+03</pdfrwt>
<pdfrwt beam="2">  1       21 0.34568780E-01 0.26256370E+03</pdfrwt>
<totfact> 0.48098631E+05</totfact>
</mgrwt>
</event>
<event>
 8    1  0.9175398E-006  0.3241912E+03  0.7546771E-02  0.1073736E+00
         21   -1    0    0  504  503  0.00000000000E+00  0.00000000000E+00  0.96183524888E+03  0.96183524888E+03  0.00000000000E+00 0. -1.
         21   -1    0    0  503  504 -0.00000000000E+00 -0.00000000000E+00 -0.27317544862E+02  0.27317544862E+02  0.00000000000E+00 0. -1.
         25    2    1    2    0    0  0.30038655161E+02 -0.58620885915E+02  0.22486850525E+03  0.26557291629E+03  0.12499760056E+03 0.  0.
         25    2    1    2    0    0 -0.30038655161E+02  0.58620885915E+02  0.70964919877E+03  0.72357987745E+03  0.12500849839E+03 0.  0.
          5    1    3    3  501    0 -0.13061753435E+02 -0.87263807909E+02  0.15618510970E+03  0.17944765271E+03  0.47000000000E+01 0.  1.
         -5    1    3    3    0  501  0.43100408596E+02  0.28642921994E+02  0.68683395550E+02  0.86125263575E+02  0.47000000000E+01 0.  1.
          5    1    4    4  502    0 -0.59062446923E+02  0.80212988539E+01  0.15969368791E+03  0.17051943534E+03  0.47000000000E+01 0.  1.
         -5    1    4    4    0  502  0.29023791761E+02  0.50599587061E+02  0.54995551086E+03  0.55306044211E+03  0.47000000000E+01 0.  1.
<mgrwt>
<rscale>  0 0.32419116E+03</rscale>
<asrwt>0</asrwt>
<pdfrwt beam="1">  1       21 0.14797463E+00 0.32419116E+03</pdfrwt>
<pdfrwt beam="2">  1       21 0.42027000E-02 0.32419116E+03</pdfrwt>
<totfact> 0.10620748E+05</totfact>
</mgrwt>
</event>
<event>
 8    1  0.9175398E-006  0.3079607E+03  0.7546771E-02  0.1081327E+00
         21   -1    0    0  504  503  0.00000000000E+00  0.00000000000E+00  0.44827997205E+03  0.44827997205E+03  0.00000000000E+00 0.  1.
         21   -1    0    0  503  504 -0.00000000000E+00 -0.00000000000E+00 -0.52890935852E+02  0.52890935852E+02  0.00000000000E+00 0.  1.
         25    2    1    2    0    0  0.70704970835E+01 -0.27322412692E+02  0.33662991969E+03  0.36019620719E+03  0.12500039472E+03 0.  0.
         25    2    1    2    0    0 -0.70704970835E+01  0.27322412692E+02  0.58759116510E+02  0.14097470071E+03  0.12499890521E+03 0.  0.
          5    1    3    3  501    0  0.59798353945E+01 -0.66452374406E+02  0.10001753096E+03  0.12032154003E+03  0.47000000000E+01 0. -1.
         -5    1    3    3    0  501  0.10906616890E+01  0.39129961713E+02  0.23661238872E+03  0.23987466716E+03  0.47000000000E+01 0. -1.
          5    1    4    4  502    0 -0.29896988608E+02  0.69157282637E+02  0.54072956734E+02  0.92857602379E+02  0.47000000000E+01 0. -1.
         -5    1    4    4    0  502  0.22826491525E+02 -0.41834869944E+02  0.46861597762E+01  0.48117098334E+02  0.47000000000E+01 0. -1.
<mgrwt>
<rscale>  0 0.30796069E+03</rscale>
<asrwt>0</asrwt>
<pdfrwt beam="1">  1       21 0.68966147E-01 0.30796069E+03</pdfrwt>
<pdfrwt beam="2">  1       21 0.81370674E-02 0.30796069E+03</pdfrwt>
<totfact> 0.21623376E+05</totfact>
</mgrwt>
</event>
<event>
 8    1  0.9175398E-006  0.3573525E+03  0.7546771E-02  0.1059637E+00
         21   -1    0    0  504  503  0.00000000000E+00  0.00000000000E+00  0.77761680361E+02  0.77761680361E+02  0.00000000000E+00 0.  1.
         21   -1    0    0  503  504 -0.00000000000E+00 -0.00000000000E+00 -0.41055178959E+03  0.41055178959E+03  0.00000000000E+00 0.  1.
         25    2    1    2    0    0  0.22156173656E+02  0.65440071230E+01  0.51849011194E+01  0.12722340361E+03  0.12500076466E+03 0.  0.
         25    2    1    2    0    0 -0.22156173656E+02 -0.65440071230E+01 -0.33797501035E+03  0.36109006634E+03  0.12500083332E+03 0.  0.
          5    1    3    3  501    0  0.37836589992E+02  0.21103266128E+02  0.56543372099E+02  0.71387662182E+02  0.47000000000E+01 0.  1.
         -5    1    3    3    0  501 -0.15680416337E+02 -0.14559259005E+02 -0.51358470979E+02  0.55835741426E+02  0.47000000000E+01 0.  1.
          5    1    4    4  502    0  0.35378204210E+02  0.38015983995E+02 -0.17367203097E+03  0.18133090392E+03  0.47000000000E+01 0. -1.
         -5    1    4    4    0  502 -0.57534377866E+02 -0.44559991118E+02 -0.16430297937E+03  0.17975916243E+03  0.47000000000E+01 0. -1.
<mgrwt>
<rscale>  0 0.35735247E+03</rscale>
<asrwt>0</asrwt>
<pdfrwt beam="1">  1       21 0.11963335E-01 0.35735247E+03</pdfrwt>
<pdfrwt beam="2">  1       21 0.63161815E-01 0.35735247E+03</pdfrwt>
<totfact> 0.13050787E+05</totfact>
</mgrwt>
</event>
<event>
 8    1  0.9175398E-006  0.2785668E+03  0.7546771E-02  0.1096474E+00
         21   -1    0    0  504  503  0.00000000000E+00  0.00000000000E+00  0.72963561652E+02  0.72963561652E+02  0.00000000000E+00 0. -1.
         21   -1    0    0  503  504 -0.00000000000E+00 -0.00000000000E+00 -0.26588425242E+03  0.26588425242E+03  0.00000000000E+00 0. -1.
         25    2    1    2    0    0 -0.46496869581E+02  0.30968819651E+02 -0.12760321710E+03  0.18715085767E+03  0.12498734272E+03 0.  0.
         25    2    1    2    0    0  0.46496869581E+02 -0.30968819651E+02 -0.65317473669E+02  0.15169695641E+03  0.12499827017E+03 0.  0.
          5    1    3    3  501    0  0.16350115001E+02  0.16656273982E+02 -0.11969689966E+03  0.12204177773E+03  0.47000000000E+01 0.  1.
         -5    1    3    3    0  501 -0.62846984582E+02  0.14312545669E+02 -0.79063174410E+01  0.65109079936E+02  0.47000000000E+01 0.  1.
          5    1    4    4  502    0 -0.28782130965E+02 -0.13578549414E+02  0.18900682959E+02  0.37311042379E+02  0.47000000000E+01 0.  1.
         -5    1    4    4    0  502  0.75279000546E+02 -0.17390270237E+02 -0.84218156628E+02  0.11438591403E+03  0.47000000000E+01 0.  1.
<mgrwt>
<rscale>  0 0.27856678E+03</rscale>
<asrwt>0</asrwt>
<pdfrwt beam="1">  1       21 0.11225164E-01 0.27856678E+03</pdfrwt>
<pdfrwt beam="2">  1       21 0.40905268E-01 0.27856678E+03</pdfrwt>
<totfact> 0.37345835E+05</totfact>
</mgrwt>
</event>
<event>
 8    1  0.9175398E-006  0.2975120E+03  0.7546771E-02  0.1086491E+00
         21   -1    0    0  504  503  0.00000000000E+00  0.00000000000E+00  0.19575273655E+03  0.19575273655E+03  0.00000000000E+00 0.  1.
         21   -1    0    0  503  504 -0.00000000000E+00 -0.00000000000E+00 -0.11304234700E+03  0.11304234700E+03  0.00000000000E+00 0.  1.
         25    2    1    2    0    0 -0.55105891973E+02 -0.33511017178E+02  0.91596766044E+02  0.16785258567E+03  0.12499950145E+03 0.  0.
         25    2    1    2    0    0  0.55105891973E+02  0.33511017178E+02 -0.88863764920E+01  0.14094249788E+03  0.12500468958E+03 0.  0.
          5    1    3    3  501    0 -0.44458069300E+02  0.35155678645E+02  0.78577940632E+02  0.97000125881E+02  0.47000000000E+01 0. -1.
         -5    1    3    3    0  501 -0.10647822673E+02 -0.68666695823E+02  0.13018825411E+02  0.70852459788E+02  0.47000000000E+01 0. -1.
          5    1    4    4  502    0 -0.19458130402E+02 -0.27318400525E+02 -0.26498803982E+02  0.43002214576E+02  0.47000000000E+01 0.  1.
         -5    1    4    4    0  502  0.74564022375E+02  0.60829417703E+02  0.17612427490E+02  0.97940283300E+02  0.47000000000E+01 0.  1.
<mgrwt>
<rscale>  0 0.29751201E+03</rscale>
<asrwt>0</asrwt>
<pdfrwt beam="1">  1       21 0.30115806E-01 0.29751201E+03</pdfrwt>
<pdfrwt beam="2">  1       21 0.17391130E-01 0.29751201E+03</pdfrwt>
<totfact> 0.30894083E+05</totfact>
</mgrwt>
</event>
<event>
 8    1  0.9175398E-006  0.2674794E+03  0.7546771E-02  0.1102731E+00
         21   -1    0    0  504  503  0.00000000000E+00  0.00000000000E+00  0.78820988427E+02  0.78820988427E+02  0.00000000000E+00 0. -1.
         21   -1    0    0  503  504 -0.00000000000E+00 -0.00000000000E+00 -0.22692311292E+03  0.22692311292E+03  0.00000000000E+00 0. -1.
         25    2    1    2    0    0  0.44018359479E+02 -0.11972565504E+02 -0.89365813707E+02  0.16028954816E+03  0.12500212915E+03 0.  0.
         25    2    1    2    0    0 -0.44018359479E+02  0.11972565504E+02 -0.58736310786E+02  0.14545455319E+03  0.12500445809E+03 0.  0.
          5    1    3    3  501    0  0.38885993832E+02 -0.49802225231E+02 -0.39610177113E+00  0.63361100455E+02  0.47000000000E+01 0.  1.
         -5    1    3    3    0  501  0.51323656469E+01  0.37829659727E+02 -0.88969711936E+02  0.96928447703E+02  0.47000000000E+01 0.  1.
          5    1    4    4  502    0 -0.87033184744E+02 -0.31501731842E+01 -0.37508903215E+02  0.94940542753E+02  0.47000000000E+01 0.  1.
         -5    1    4    4    0  502  0.43014825266E+02  0.15122738688E+02 -0.21227407571E+02  0.50514010435E+02  0.47000000000E+01 0.  1.
<mgrwt>
<rscale>  0 0.26747938E+03</rscale>
<asrwt>0</asrwt>
<pdfrwt beam="1">  1       21 0.12126306E-01 0.26747938E+03</pdfrwt>
<pdfrwt beam="2">  1       21 0.34911248E-01 0.26747938E+03</pdfrwt>
<totfact> 0.44862614E+05</totfact>
</mgrwt>
</event>
<event>
 8    1  0.9175398E-006  0.3433161E+03  0.7546771E-02  0.1065392E+00
         21   -1    0    0  504  503  0.00000000000E+00  0.00000000000E+00  0.50473620476E+02  0.50473620476E+02  0.00000000000E+00 0.  1.
         21   -1    0    0  503  504 -0.00000000000E+00 -0.00000000000E+00 -0.58379957524E+03  0.58379957524E+03  0.00000000000E+00 0.  1.
         25    2    1    2    0    0  0.50193507792E+02 -0.39150324105E+02 -0.44944888621E+03  0.47082956540E+03  0.12499616891E+03 0.  0.
         25    2    1    2    0    0 -0.50193507792E+02  0.39150324105E+02 -0.83877068555E+02  0.16344363031E+03  0.12500528612E+03 0.  0.
          5    1    3    3  501    0  0.13701390088E+02 -0.47378186013E+02 -0.42020394792E+03  0.42311448622E+03  0.47000000000E+01 0.  1.
         -5    1    3    3    0  501  0.36492117704E+02  0.82278619074E+01 -0.29244938287E+02  0.47715079184E+02  0.47000000000E+01 0.  1.
          5    1    4    4  502    0 -0.37702097721E+02  0.96509762004E+01  0.27220197877E+02  0.47724403470E+02  0.47000000000E+01 0. -1.
         -5    1    4    4    0  502 -0.12491410071E+02  0.29499347905E+02 -0.11109726643E+03  0.11571922684E+03  0.47000000000E+01 0. -1.
<mgrwt>
<rscale>  0 0.34331605E+03</rscale>
<asrwt>0</asrwt>
<pdfrwt beam="1">  1       21 0.77651727E-02 0.34331605E+03</pdfrwt>
<pdfrwt beam="2">  1       21 0.89815316E-01 0.34331605E+03</pdfrwt>
<totfact> 0.12732919E+05</totfact>
</mgrwt>
</event>
<event>
 8    1  0.9175398E-006  0.3369903E+03  0.7546771E-02  0.1068085E+00
         21   -1    0    0  504  503  0.00000000000E+00  0.00000000000E+00  0.37219636454E+03  0.37219636454E+03  0.00000000000E+00 0.  1.
         21   -1    0    0  503  504 -0.00000000000E+00 -0.00000000000E+00 -0.76278574749E+02  0.76278574749E+02  0.00000000000E+00 0.  1.
         25    2    1    2    0    0  0.89554884702E+02  0.18201148397E+02  0.23636877919E+03  0.28257172748E+03  0.12500088885E+03 0.  0.
         25    2    1    2    0    0 -0.89554884702E+02 -0.18201148397E+02  0.59549010598E+02  0.16590321181E+03  0.12500572727E+03 0.  0.
          5    1    3    3  501    0 -0.20098811228E+02 -0.23016330208E+02  0.89247109963E+02  0.94450253074E+02  0.47000000000E+01 0. -1.
         -5    1    3    3    0  501  0.10965369593E+03  0.41217478605E+02  0.14712166923E+03  0.18812147440E+03  0.47000000000E+01 0. -1.
          5    1    4    4  502    0 -0.12624992489E+02  0.17754185307E+02 -0.33249459323E+02  0.40027716354E+02  0.47000000000E+01 0.  1.
         -5    1    4    4    0  502 -0.76929892213E+02 -0.35955333704E+02  0.92798469921E+02  0.12587549546E+03  0.47000000000E+01 0.  1.
<mgrwt>
<rscale>  0 0.33699026E+03</rscale>
<asrwt>0</asrwt>
<pdfrwt beam="1">  1       21 0.57260978E-01 0.33699026E+03</pdfrwt>
<pdfrwt beam="2">  1       21 0.11735166E-01 0.33699026E+03</pdfrwt>
<totfact> 0.16809365E+05</totfact>
</mgrwt>
</event>
<event>
 8    1  0.9175398E-006  0.3272329E+03  0.7546771E-02  0.1072368E+00
         21   -1    0    0  504  503  0.00000000000E+00  0.00000000000E+00  0.71237051846E+02  0.71237051846E+02  0.00000000000E+00 0. -1.
         21   -1    0    0  503  504 -0.00000000000E+00 -0.00000000000E+00 -0.37579245043E+03  0.37579245043E+03  0.00000000000E+00 0. -1.
         25    2    1    2    0    0  0.72362587457E+02  0.15032854885E+02 -0.25526312569E+03  0.29367799894E+03  0.12500069172E+03 0.  0.
         25    2    1    2    0    0 -0.72362587457E+02 -0.15032854885E+02 -0.49292272889E+02  0.15335150334E+03  0.12499849847E+03 0.  0.
          5    1    3    3  501    0 -0.23352334040E+02 -0.27304269321E+01 -0.14306282995E+03  0.14505809198E+03  0.47000000000E+01 0.  1.
         -5    1    3    3    0  501  0.95714921498E+02  0.17763281817E+02 -0.11220029574E+03  0.14861990695E+03  0.47000000000E+01 0.  1.
          5    1    4    4  502    0 -0.93388397594E+02 -0.38748677592E+02 -0.62207779274E+02  0.11880551596E+03  0.47000000000E+01 0. -1.
         -5    1    4    4    0  502  0.21025810137E+02  0.23715822707E+02  0.12915506385E+02  0.34545987376E+02  0.47000000000E+01 0. -1.
<mgrwt>
<rscale>  0 0.32723292E+03</rscale>
<asrwt>0</asrwt>
<pdfrwt beam="1">  1       21 0.10959546E-01 0.32723292E+03</pdfrwt>
<pdfrwt beam="2">  1       21 0.57814223E-01 0.32723292E+03</pdfrwt>
<totfact> 0.18663626E+05</totfact>
</mgrwt>
</event>
<event>
 8    1  0.9175398E-006  0.4108932E+03  0.7546771E-02  0.1040072E+00
         21   -1    0    0  504  503  0.00000000000E+00  0.00000000000E+00  0.25655802919E+03  0.25655802919E+03  0.00000000000E+00 0.  1.
         21   -1    0    0  503  504 -0.00000000000E+00 -0.00000000000E+00 -0.16451759149E+03  0.16451759149E+03  0.00000000000E+00 0.  1.
         25    2    1    2    0    0  0.10360914960E+03  0.12584806832E+03  0.48676699118E+02  0.21110993114E+03  0.12500155923E+03 0.  0.
         25    2    1    2    0    0 -0.10360914960E+03 -0.12584806832E+03  0.43363738581E+02  0.20996568954E+03  0.12503033544E+03 0.  0.
          5    1    3    3  501    0 -0.27829027907E+02  0.19783120941E+02 -0.25322061605E+01  0.34559061568E+02  0.47000000000E+01 0.  1.
         -5    1    3    3    0  501  0.13143817750E+03  0.10606494738E+03  0.51208905278E+02  0.17655086958E+03  0.47000000000E+01 0.  1.
          5    1    4    4  502    0 -0.69678284449E+02 -0.14419720318E+02  0.58731714902E+02  0.92382335937E+02  0.47000000000E+01 0.  1.
         -5    1    4    4    0  502 -0.33930865148E+02 -0.11142834800E+03 -0.15367976321E+02  0.11758335360E+03  0.47000000000E+01 0.  1.
<mgrwt>
<rscale>  0 0.41089322E+03</rscale>
<asrwt>0</asrwt>
<pdfrwt beam="1">  1       21 0.39470466E-01 0.41089322E+03</pdfrwt>
<pdfrwt beam="2">  1       21 0.25310399E-01 0.41089322E+03</pdfrwt>
<totfact> 0.85847560E+04</totfact>
</mgrwt>
</event>
<event>
 8    1  0.9175398E-006  0.3009207E+03  0.7546771E-02  0.1084781E+00
         21   -1    0    0  504  503  0.00000000000E+00  0.00000000000E+00  0.44469034057E+03  0.44469034057E+03  0.00000000000E+00 0.  1.
         21   -1    0    0  503  504 -0.00000000000E+00 -0.00000000000E+00 -0.50908040773E+02  0.50908040773E+02  0.00000000000E+00 0.  1.
         25    2    1    2    0    0 -0.31859898346E+02  0.58156567171E+02  0.28120987116E+03  0.31480462150E+03  0.12500287457E+03 0.  0.
         25    2    1    2    0    0  0.31859898346E+02 -0.58156567171E+02  0.11257242864E+03  0.18079375985E+03  0.12496636541E+03 0.  0.
          5    1    3    3  501    0 -0.38307449497E+02  0.82544746775E+02  0.27308875280E+03  0.28789000124E+03  0.47000000000E+01 0. -1.
         -5    1    3    3    0  501  0.64475511515E+01 -0.24388179604E+02  0.81211183618E+01  0.26914620260E+02  0.47000000000E+01 0. -1.
          5    1    4    4  502    0 -0.39062772107E+02 -0.18198268643E+02  0.83760199056E+02  0.94312979448E+02  0.47000000000E+01 0.  1.
         -5    1    4    4    0  502  0.70922670453E+02 -0.39958298528E+02  0.28812229584E+02  0.86480780403E+02  0.47000000000E+01 0.  1.
<mgrwt>
<rscale>  0 0.30092068E+03</rscale>
<asrwt>0</asrwt>
<pdfrwt beam="1">  1       21 0.68413896E-01 0.30092068E+03</pdfrwt>
<pdfrwt beam="2">  1       21 0.78320066E-02 0.30092068E+03</pdfrwt>
<totfact> 0.23579567E+05</totfact>
</mgrwt>
</event>
<event>
 8    1  0.9175398E-006  0.2701086E+03  0.7546771E-02  0.1101217E+00
         21   -1    0    0  504  503  0.00000000000E+00  0.00000000000E+00  0.43327585355E+03  0.43327585355E+03  0.00000000000E+00 0.  1.
         21   -1    0    0  503  504 -0.00000000000E+00 -0.00000000000E+00 -0.42097103274E+02  0.42097103274E+02  0.00000000000E+00 0.  1.
         25    2    1    2    0    0 -0.64471456658E+01  0.31274848191E+02  0.12539462436E+03  0.17992989920E+03  0.12502509745E+03 0.  0.
         25    2    1    2    0    0  0.64471456658E+01 -0.31274848191E+02  0.26578412591E+03  0.29544305762E+03  0.12500286752E+03 0.  0.
          5    1    3    3  501    0  0.86330339364E+01 -0.34659457241E+02  0.10205171242E+03  0.10822406968E+03  0.47000000000E+01 0. -1.
         -5    1    3    3    0  501 -0.15080179602E+02  0.65934305432E+02  0.23342911938E+02  0.71705829522E+02  0.47000000000E+01 0. -1.
          5    1    4    4  502    0  0.55162357316E+02 -0.10376976851E+02  0.21363089152E+03  0.22093169788E+03  0.47000000000E+01 0.  1.
         -5    1    4    4    0  502 -0.48715211650E+02 -0.20897871340E+02  0.52153234390E+02  0.74511359738E+02  0.47000000000E+01 0.  1.
<mgrwt>
<rscale>  0 0.27010856E+03</rscale>
<asrwt>0</asrwt>
<pdfrwt beam="1">  1       21 0.66657820E-01 0.27010856E+03</pdfrwt>
<pdfrwt beam="2">  1       21 0.64764777E-02 0.27010856E+03</pdfrwt>
<totfact> 0.35022155E+05</totfact>
</mgrwt>
</event>
<event>
 8    1  0.9175398E-006  0.2538458E+03  0.7546771E-02  0.1110898E+00
         21   -1    0    0  504  503  0.00000000000E+00  0.00000000000E+00  0.31059049393E+03  0.31059049393E+03  0.00000000000E+00 0. -1.
         21   -1    0    0  503  504 -0.00000000000E+00 -0.00000000000E+00 -0.51867079812E+02  0.51867079812E+02  0.00000000000E+00 0. -1.
         25    2    1    2    0    0  0.98613458502E+00  0.21987346704E+02  0.12960076510E+03  0.18140001645E+03  0.12500076710E+03 0.  0.
         25    2    1    2    0    0 -0.98613458502E+00 -0.21987346704E+02  0.12912264902E+03  0.18105755730E+03  0.12499905875E+03 0.  0.
          5    1    3    3  501    0  0.27114050865E+02 -0.12650123263E+02  0.13414669040E+03  0.13752316866E+03  0.47000000000E+01 0. -1.
         -5    1    3    3    0  501 -0.26127916280E+02  0.34637469968E+02 -0.45459252998E+01  0.43876847787E+02  0.47000000000E+01 0. -1.
          5    1    4    4  502    0  0.32920964045E+01 -0.61375930440E+02  0.12692101155E+03  0.14109881612E+03  0.47000000000E+01 0.  1.
         -5    1    4    4    0  502 -0.42782309895E+01  0.39388583736E+02  0.22016374666E+01  0.39958741180E+02  0.47000000000E+01 0.  1.
<mgrwt>
<rscale>  0 0.25384580E+03</rscale>
<asrwt>0</asrwt>
<pdfrwt beam="1">  1       21 0.47783152E-01 0.25384580E+03</pdfrwt>
<pdfrwt beam="2">  1       21 0.79795509E-02 0.25384580E+03</pdfrwt>
<totfact> 0.49848185E+05</totfact>
</mgrwt>
</event>
<event>
 8    1  0.9175398E-006  0.4122662E+03  0.7546771E-02  0.1039613E+00
         21   -1    0    0  504  503  0.00000000000E+00  0.00000000000E+00  0.39239618402E+03  0.39239618402E+03  0.00000000000E+00 0. -1.
         21   -1    0    0  503  504 -0.00000000000E+00 -0.00000000000E+00 -0.10828558138E+03  0.10828558138E+03  0.00000000000E+00 0. -1.
         25    2    1    2    0    0 -0.28267582481E+01  0.16342529815E+03  0.15695917625E+03  0.25879754089E+03  0.12499666206E+03 0.  0.
         25    2    1    2    0    0  0.28267582481E+01 -0.16342529815E+03  0.12715142638E+03  0.24188422451E+03  0.12499869679E+03 0.  0.
          5    1    3    3  501    0  0.55763249465E+02  0.85820783681E+02  0.49457834139E+02  0.11376692955E+03  0.47000000000E+01 0. -1.
         -5    1    3    3    0  501 -0.58590007713E+02  0.77604514466E+02  0.10750134211E+03  0.14503061134E+03  0.47000000000E+01 0. -1.
          5    1    4    4  502    0  0.44557864810E+02 -0.14060397190E+02  0.50036396561E+02  0.68620908376E+02  0.47000000000E+01 0.  1.
         -5    1    4    4    0  502 -0.41731106562E+02 -0.14936490096E+03  0.77115029823E+02  0.17326331613E+03  0.47000000000E+01 0.  1.
<mgrwt>
<rscale>  0 0.41226617E+03</rscale>
<asrwt>0</asrwt>
<pdfrwt beam="1">  1       21 0.60368643E-01 0.41226617E+03</pdfrwt>
<pdfrwt beam="2">  1       21 0.16659320E-01 0.41226617E+03</pdfrwt>
<totfact> 0.77429105E+04</totfact>
</mgrwt>
</event>
<event>
 8    1  0.9175398E-006  0.2857026E+03  0.7546771E-02  0.1092614E+00
         21   -1    0    0  504  503  0.00000000000E+00  0.00000000000E+00  0.29289608899E+03  0.29289608899E+03  0.00000000000E+00 0.  1.
         21   -1    0    0  503  504 -0.00000000000E+00 -0.00000000000E+00 -0.69671424565E+02  0.69671424565E+02  0.00000000000E+00 0.  1.
         25    2    1    2    0    0 -0.63057640618E+02 -0.28346298637E+02  0.10978079634E+03  0.18015695333E+03  0.12499970361E+03 0.  0.
         25    2    1    2    0    0  0.63057640618E+02  0.28346298637E+02  0.11344386808E+03  0.18241056022E+03  0.12499729032E+03 0.  0.
          5    1    3    3  501    0 -0.97733665742E+02 -0.35832371009E+02  0.64913484699E+02  0.12276676556E+03  0.47000000000E+01 0. -1.
         -5    1    3    3    0  501  0.34676025124E+02  0.74860723724E+01  0.44867311640E+02  0.57390187766E+02  0.47000000000E+01 0. -1.
          5    1    4    4  502    0 -0.48486292200E+01 -0.24962825175E+02  0.88827433539E+02  0.92515159813E+02  0.47000000000E+01 0. -1.
         -5    1    4    4    0  502  0.67906269838E+02  0.53309123812E+02  0.24616434543E+02  0.89895400408E+02  0.47000000000E+01 0. -1.
<mgrwt>
<rscale>  0 0.28570256E+03</rscale>
<asrwt>0</asrwt>
<pdfrwt beam="1">  1       21 0.45060936E-01 0.28570256E+03</pdfrwt>
<pdfrwt beam="2">  1       21 0.10718681E-01 0.28570256E+03</pdfrwt>
<totfact> 0.33194224E+05</totfact>
</mgrwt>
</event>
<event>
 8    1  0.9175398E-006  0.3888318E+03  0.7546771E-02  0.1047717E+00
         21   -1    0    0  504  503  0.00000000000E+00  0.00000000000E+00  0.60585653149E+03  0.60585653149E+03  0.00000000000E+00 0. -1.
         21   -1    0    0  503  504 -0.00000000000E+00 -0.00000000000E+00 -0.62386942143E+02  0.62386942143E+02  0.00000000000E+00 0. -1.
         25    2    1    2    0    0  0.28497201615E+02 -0.11349162779E+03  0.42996887496E+03  0.46280683251E+03  0.12499796281E+03 0.  0.
         25    2    1    2    0    0 -0.28497201615E+02  0.11349162779E+03  0.11350071438E+03  0.20543664112E+03  0.12501744386E+03 0.  0.
          5    1    3    3  501    0 -0.44892203577E+02 -0.75101121288E+02  0.24084272835E+03  0.25628655478E+03  0.47000000000E+01 0. -1.
         -5    1    3    3    0  501  0.73389405192E+02 -0.38390506499E+02  0.18912614661E+03  0.20652027773E+03  0.47000000000E+01 0. -1.
          5    1    4    4  502    0  0.38058657805E+02  0.47118151039E+02  0.89742259449E+02  0.10837132795E+03  0.47000000000E+01 0.  1.
         -5    1    4    4    0  502 -0.66555859420E+02  0.66373476747E+02  0.23758454932E+02  0.97065313163E+02  0.47000000000E+01 0.  1.
<mgrwt>
<rscale>  0 0.38883177E+03</rscale>
<asrwt>0</asrwt>
<pdfrwt beam="1">  1       21 0.93208693E-01 0.38883177E+03</pdfrwt>
<pdfrwt beam="2">  1       21 0.95979915E-02 0.38883177E+03</pdfrwt>
<totfact> 0.79229249E+04</totfact>
</mgrwt>
</event>
<event>
 8    1  0.9175398E-006  0.2564285E+03  0.7546771E-02  0.1109308E+00
         21   -1    0    0  504  503  0.00000000000E+00  0.00000000000E+00  0.26677884956E+03  0.26677884956E+03  0.00000000000E+00 0.  1.
         21   -1    0    0  503  504 -0.00000000000E+00 -0.00000000000E+00 -0.61619950835E+02  0.61619950835E+02  0.00000000000E+00 0.  1.
         25    2    1    2    0    0  0.12399266278E+02  0.16403844746E+02  0.12780330523E+03  0.17997161698E+03  0.12503307628E+03 0.  0.
         25    2    1    2    0    0 -0.12399266278E+02 -0.16403844746E+02  0.77355593489E+02  0.14842718341E+03  0.12499565194E+03 0.  0.
          5    1    3    3  501    0 -0.25088176806E+02  0.62264867071E+02  0.67857340910E+02  0.95566934669E+02  0.47000000000E+01 0. -1.
         -5    1    3    3    0  501  0.37487443084E+02 -0.45861022324E+02  0.59945964324E+02  0.84404682313E+02  0.47000000000E+01 0. -1.
          5    1    4    4  502    0 -0.32638469633E+02  0.36737672468E+02 -0.34726158741E+01  0.49488133319E+02  0.47000000000E+01 0. -1.
         -5    1    4    4    0  502  0.20239203355E+02 -0.53141517215E+02  0.80828209364E+02  0.98939050093E+02  0.47000000000E+01 0. -1.
<mgrwt>
<rscale>  0 0.25642854E+03</rscale>
<asrwt>0</asrwt>
<pdfrwt beam="1">  1       21 0.41042899E-01 0.25642854E+03</pdfrwt>
<pdfrwt beam="2">  1       21 0.94799926E-02 0.25642854E+03</pdfrwt>
<totfact> 0.50339739E+05</totfact>
</mgrwt>
</event>
<event>
 8    1  0.9175398E-006  0.2983367E+03  0.7546771E-02  0.1086075E+00
         21   -1    0    0  504  503  0.00000000000E+00  0.00000000000E+00  0.24902065650E+03  0.24902065650E+03  0.00000000000E+00 0. -1.
         21   -1    0    0  503  504 -0.00000000000E+00 -0.00000000000E+00 -0.89354796528E+02  0.89354796528E+02  0.00000000000E+00 0. -1.
         25    2    1    2    0    0 -0.66528935413E+02 -0.22636837385E+02  0.12643869539E+03  0.19117496529E+03  0.12499039166E+03 0.  0.
         25    2    1    2    0    0  0.66528935413E+02  0.22636837385E+02  0.33227164578E+02  0.14720048774E+03  0.12500165387E+03 0.  0.
          5    1    3    3  501    0 -0.94409016029E+02  0.11180406018E+02  0.63829046878E+02  0.11460497813E+03  0.47000000000E+01 0.  1.
         -5    1    3    3    0  501  0.27880080617E+02 -0.33817243403E+02  0.62609648514E+02  0.76569987159E+02  0.47000000000E+01 0.  1.
          5    1    4    4  502    0  0.46492120253E+02 -0.49644144098E+02  0.13507050967E+02  0.69502436754E+02  0.47000000000E+01 0.  1.
         -5    1    4    4    0  502  0.20036815160E+02  0.72280981483E+02  0.19720113611E+02  0.77698050984E+02  0.47000000000E+01 0.  1.
<mgrwt>
<rscale>  0 0.29833666E+03</rscale>
<asrwt>0</asrwt>
<pdfrwt beam="1">  1       21 0.38310870E-01 0.29833666E+03</pdfrwt>
<pdfrwt beam="2">  1       21 0.13746892E-01 0.29833666E+03</pdfrwt>
<totfact> 0.29457547E+05</totfact>
</mgrwt>
</event>
<event>
 8    1  0.9175398E-006  0.2764871E+03  0.7546771E-02  0.1097623E+00
         21   -1    0    0  504  503  0.00000000000E+00  0.00000000000E+00  0.10636601366E+04  0.10636601366E+04  0.00000000000E+00 0. -1.
         21   -1    0    0  503  504 -0.00000000000E+00 -0.00000000000E+00 -0.17967472233E+02  0.17967472233E+02  0.00000000000E+00 0. -1.
         25    2    1    2    0    0 -0.16327414563E+02 -0.45409222341E+02  0.65593295129E+03  0.66947789816E+03  0.12499615030E+03 0.  0.
         25    2    1    2    0    0  0.16327414563E+02  0.45409222341E+02  0.38975971309E+03  0.41214971069E+03  0.12500467245E+03 0.  0.
          5    1    3    3  501    0 -0.36426948706E+02  0.33732411833E+02  0.19083419588E+03  0.19724243590E+03  0.47000000000E+01 0. -1.
         -5    1    3    3    0  501  0.20099534143E+02 -0.79141634175E+02  0.46509875541E+03  0.47223546226E+03  0.47000000000E+01 0. -1.
          5    1    4    4  502    0 -0.28696896841E+02 -0.31170057136E+02  0.92213685387E+02  0.10159004933E+03  0.47000000000E+01 0.  1.
         -5    1    4    4    0  502  0.45024311404E+02  0.76579279478E+02  0.29754602770E+03  0.31055966136E+03  0.47000000000E+01 0.  1.
<mgrwt>
<rscale>  0 0.27648714E+03</rscale>
<asrwt>0</asrwt>
<pdfrwt beam="1">  1       21 0.16363997E+00 0.27648714E+03</pdfrwt>
<pdfrwt beam="2">  1       21 0.27642273E-02 0.27648714E+03</pdfrwt>
<totfact> 0.16589197E+05</totfact>
</mgrwt>
</event>
<event>
 8    1  0.9175398E-006  0.2865377E+03  0.7546771E-02  0.1092171E+00
         21   -1    0    0  504  503  0.00000000000E+00  0.00000000000E+00  0.36497486902E+02  0.36497486902E+02  0.00000000000E+00 0. -1.
         21   -1    0    0  503  504 -0.00000000000E+00 -0.00000000000E+00 -0.56239398787E+03  0.56239398787E+03  0.00000000000E+00 0. -1.
         25    2    1    2    0    0 -0.26742571356E+02 -0.60586140798E+02 -0.21547313243E+03  0.25775704439E+03  0.12499671019E+03 0.  0.
         25    2    1    2    0    0  0.26742571356E+02  0.60586140798E+02 -0.31042336854E+03  0.34113443038E+03  0.12499674505E+03 0.  0.
          5    1    3    3  501    0 -0.19375348676E+02 -0.12181922808E+02  0.11127987721E+02  0.25879055051E+02  0.47000000000E+01 0.  1.
         -5    1    3    3    0  501 -0.73672226800E+01 -0.48404217990E+02 -0.22660112015E+03  0.23187798934E+03  0.47000000000E+01 0.  1.
          5    1    4    4  502    0  0.37112804778E+02  0.60970947117E+02 -0.68820481810E+02  0.99263111917E+02  0.47000000000E+01 0.  1.
         -5    1    4    4    0  502 -0.10370233422E+02 -0.38480631899E+00 -0.24160288673E+03  0.24187131846E+03  0.47000000000E+01 0.  1.
<mgrwt>
<rscale>  0 0.28653773E+03</rscale>
<asrwt>0</asrwt>
<pdfrwt beam="1">  1       21 0.56149983E-02 0.28653773E+03</pdfrwt>
<pdfrwt beam="2">  1       21 0.86522146E-01 0.28653773E+03</pdfrwt>
<totfact> 0.24754458E+05</totfact>
</mgrwt>
</event>
<event>
 8    1  0.9175398E-006  0.5080415E+03  0.7546771E-02  0.1011701E+00
         21   -1    0    0  504  503  0.00000000000E+00  0.00000000000E+00  0.37417193623E+03  0.37417193623E+03  0.00000000000E+00 0.  1.
         21   -1    0    0  503  504 -0.00000000000E+00 -0.00000000000E+00 -0.17245159972E+03  0.17245159972E+03  0.00000000000E+00 0.  1.
         25    2    1    2    0    0  0.19386793326E+03  0.10618699475E+03  0.93950973061E+02  0.27076085635E+03  0.12499681033E+03 0.  0.
         25    2    1    2    0    0 -0.19386793326E+03 -0.10618699475E+03  0.10776936345E+03  0.27586267960E+03  0.12500211558E+03 0.  0.
          5    1    3    3  501    0 -0.83659287481E+01  0.81983437624E+01  0.36704106725E+02  0.38813439100E+02  0.47000000000E+01 0.  1.
         -5    1    3    3    0  501  0.20223386201E+03  0.97988650983E+02  0.57246866336E+02  0.23194741725E+03  0.47000000000E+01 0.  1.
          5    1    4    4  502    0 -0.10695865663E+03  0.11209273234E+02  0.40992258442E+02  0.11518792162E+03  0.47000000000E+01 0.  1.
         -5    1    4    4    0  502 -0.86909276626E+02 -0.11739626798E+03  0.66777105004E+02  0.16067475798E+03  0.47000000000E+01 0.  1.
<mgrwt>
<rscale>  0 0.50804153E+03</rscale>
<asrwt>0</asrwt>
<pdfrwt beam="1">  1       21 0.57564913E-01 0.50804153E+03</pdfrwt>
<pdfrwt beam="2">  1       21 0.26531015E-01 0.50804153E+03</pdfrwt>
<totfact> 0.34551584E+04</totfact>
</mgrwt>
</event>
<event>
 8    1  0.9175398E-006  0.2827480E+03  0.7546771E-02  0.1094197E+00
         21   -1    0    0  504  503  0.00000000000E+00  0.00000000000E+00  0.14329155108E+02  0.14329155108E+02  0.00000000000E+00 0.  1.
         21   -1    0    0  503  504 -0.00000000000E+00 -0.00000000000E+00 -0.13948215579E+04  0.13948215579E+04  0.00000000000E+00 0.  1.
         25    2    1    2    0    0  0.59850994710E+02 -0.17576038682E+02 -0.58189447673E+03  0.59842567989E+03  0.12498421338E+03 0.  0.
         25    2    1    2    0    0 -0.59850994710E+02  0.17576038682E+02 -0.79859792607E+03  0.81072503313E+03  0.12500149246E+03 0.  0.
          5    1    3    3  501    0  0.34397124990E+02  0.21276798289E+02 -0.49981464053E+02  0.64467829976E+02  0.47000000000E+01 0. -1.
         -5    1    3    3    0  501  0.25453869720E+02 -0.38852836971E+02 -0.53191301268E+03  0.53395784991E+03  0.47000000000E+01 0. -1.
          5    1    4    4  502    0 -0.66351759950E+02  0.57402482560E+02 -0.67322202849E+03  0.67893121205E+03  0.47000000000E+01 0.  1.
         -5    1    4    4    0  502  0.65007652398E+01 -0.39826443878E+02 -0.12537589759E+03  0.13179382109E+03  0.47000000000E+01 0.  1.
<mgrwt>
<rscale>  0 0.28274805E+03</rscale>
<asrwt>0</asrwt>
<pdfrwt beam="1">  1       21 0.22044852E-02 0.28274805E+03</pdfrwt>
<pdfrwt beam="2">  1       21 0.21458795E+00 0.28274805E+03</pdfrwt>
<totfact> 0.10891962E+05</totfact>
</mgrwt>
</event>
<event>
 8    1  0.9175398E-006  0.2979098E+03  0.7546771E-02  0.1086290E+00
         21   -1    0    0  504  503  0.00000000000E+00  0.00000000000E+00  0.23438302146E+02  0.23438302146E+02  0.00000000000E+00 0.  1.
         21   -1    0    0  503  504 -0.00000000000E+00 -0.00000000000E+00 -0.94663721314E+03  0.94663721314E+03  0.00000000000E+00 0.  1.
         25    2    1    2    0    0 -0.78434571008E+02  0.16642072937E+02 -0.49926589050E+03  0.52088437024E+03  0.12500062885E+03 0.  0.
         25    2    1    2    0    0  0.78434571008E+02 -0.16642072937E+02 -0.42393302049E+03  0.44919114506E+03  0.12499815363E+03 0.  0.
          5    1    3    3  501    0 -0.36670108275E+02 -0.68433766211E+01 -0.45150663941E+03  0.45306938109E+03  0.47000000000E+01 0. -1.
         -5    1    3    3    0  501 -0.41764462734E+02  0.23485449558E+02 -0.47759251091E+02  0.67814989148E+02  0.47000000000E+01 0. -1.
          5    1    4    4  502    0 -0.22371052730E+02 -0.38805579313E+02 -0.11970855358E+03  0.12790060511E+03  0.47000000000E+01 0. -1.
         -5    1    4    4    0  502  0.10080562374E+03  0.22163506377E+02 -0.30422446691E+03  0.32129053995E+03  0.47000000000E+01 0. -1.
<mgrwt>
<rscale>  0 0.29790985E+03</rscale>
<asrwt>0</asrwt>
<pdfrwt beam="1">  1       21 0.36058927E-02 0.29790985E+03</pdfrwt>
<pdfrwt beam="2">  1       21 0.14563649E+00 0.29790985E+03</pdfrwt>
<totfact> 0.14473187E+05</totfact>
</mgrwt>
</event>
<event>
 8    1  0.9175398E-006  0.4364974E+03  0.7546771E-02  0.1031827E+00
         21   -1    0    0  504  503  0.00000000000E+00  0.00000000000E+00  0.12611059207E+04  0.12611059207E+04  0.00000000000E+00 0.  1.
         21   -1    0    0  503  504 -0.00000000000E+00 -0.00000000000E+00 -0.37770417988E+02  0.37770417988E+02  0.00000000000E+00 0.  1.
         25    2    1    2    0    0 -0.12333558184E+03 -0.12708966374E+03  0.68716579648E+03  0.72054520703E+03  0.12500046058E+03 0.  0.
         25    2    1    2    0    0  0.12333558184E+03  0.12708966374E+03  0.53616970623E+03  0.57833113166E+03  0.12500198232E+03 0.  0.
          5    1    3    3  501    0 -0.31858237028E+02  0.40645547456E+01  0.30036405125E+02  0.44223788900E+02  0.47000000000E+01 0. -1.
         -5    1    3    3    0  501 -0.91477344813E+02 -0.13115421848E+03  0.65712939135E+03  0.67632141813E+03  0.47000000000E+01 0. -1.
          5    1    4    4  502    0  0.63458489140E+02  0.11417983154E+03  0.47086745194E+03  0.48867398240E+03  0.47000000000E+01 0. -1.
         -5    1    4    4    0  502  0.59877092701E+02  0.12909832199E+02  0.65302254289E+02  0.89657149258E+02  0.47000000000E+01 0. -1.
<mgrwt>
<rscale>  0 0.43649741E+03</rscale>
<asrwt>0</asrwt>
<pdfrwt beam="1">  1       21 0.19401626E+00 0.43649741E+03</pdfrwt>
<pdfrwt beam="2">  1       21 0.58108345E-02 0.43649741E+03</pdfrwt>
<totfact> 0.27271703E+04</totfact>
</mgrwt>
</event>
<event>
 8    1  0.9175398E-006  0.5749042E+03  0.7546771E-02  0.9958885E-01
         21   -1    0    0  504  503  0.00000000000E+00  0.00000000000E+00  0.12133532843E+04  0.12133532843E+04  0.00000000000E+00 0. -1.
         21   -1    0    0  503  504 -0.00000000000E+00 -0.00000000000E+00 -0.68099468080E+02  0.68099468080E+02  0.00000000000E+00 0. -1.
         25    2    1    2    0    0 -0.12730846455E+03 -0.15194213016E+03  0.94366650158E+03  0.97233170040E+03  0.12501445254E+03 0.  0.
         25    2    1    2    0    0  0.12730846455E+03  0.15194213016E+03  0.20158731468E+03  0.30912105202E+03  0.12499809317E+03 0.  0.
          5    1    3    3  501    0 -0.83456502769E+02 -0.14201898902E+03  0.87318239103E+03  0.88859662339E+03  0.47000000000E+01 0.  1.
         -5    1    3    3    0  501 -0.43851961784E+02 -0.99231411344E+01  0.70484110548E+02  0.83735077011E+02  0.47000000000E+01 0.  1.
          5    1    4    4  502    0 -0.17156375262E+02 -0.72561792299E+01  0.19200624174E+02  0.27161504336E+02  0.47000000000E+01 0. -1.
         -5    1    4    4    0  502  0.14446483982E+03  0.15919830939E+03  0.18238669051E+03  0.28195954768E+03  0.47000000000E+01 0. -1.
<mgrwt>
<rscale>  0 0.57490421E+03</rscale>
<asrwt>0</asrwt>
<pdfrwt beam="1">  1       21 0.18666972E+00 0.57490421E+03</pdfrwt>
<pdfrwt beam="2">  1       21 0.10476842E-01 0.57490421E+03</pdfrwt>
<totfact> 0.10339973E+04</totfact>
</mgrwt>
</event>
<event>
 8    1  0.9175398E-006  0.3119931E+03  0.7546771E-02  0.1079394E+00
         21   -1    0    0  504  503  0.00000000000E+00  0.00000000000E+00  0.18185291823E+03  0.18185291823E+03  0.00000000000E+00 0.  1.
         21   -1    0    0  503  504 -0.00000000000E+00 -0.00000000000E+00 -0.13381649208E+03  0.13381649208E+03  0.00000000000E+00 0.  1.
         25    2    1    2    0    0  0.60046440499E+02 -0.71190502109E+02  0.18181732953E+02  0.15695297381E+03  0.12501999027E+03 0.  0.
         25    2    1    2    0    0 -0.60046440499E+02  0.71190502109E+02  0.29854693195E+02  0.15871643650E+03  0.12500376755E+03 0.  0.
          5    1    3    3  501    0  0.81645928027E+02 -0.45073907961E+00  0.98104483796E+01  0.82368656821E+02  0.47000000000E+01 0. -1.
         -5    1    3    3    0  501 -0.21599487528E+02 -0.70739763030E+02  0.83712845734E+01  0.74584316987E+02  0.47000000000E+01 0. -1.
          5    1    4    4  502    0 -0.54633034485E+02  0.10425567814E+03  0.38260154443E+02  0.12385452878E+03  0.47000000000E+01 0.  1.
         -5    1    4    4    0  502 -0.54134060140E+01 -0.33065176035E+02 -0.84054612484E+01  0.34861907717E+02  0.47000000000E+01 0.  1.
<mgrwt>
<rscale>  0 0.31199307E+03</rscale>
<asrwt>0</asrwt>
<pdfrwt beam="1">  1       21 0.27977372E-01 0.31199307E+03</pdfrwt>
<pdfrwt beam="2">  1       21 0.20587153E-01 0.31199307E+03</pdfrwt>
<totfact> 0.25933833E+05</totfact>
</mgrwt>
</event>
<event>
 8    1  0.9175398E-006  0.2808854E+03  0.7546771E-02  0.1095206E+00
         21   -1    0    0  504  503  0.00000000000E+00  0.00000000000E+00  0.44061769849E+03  0.44061769849E+03  0.00000000000E+00 0.  1.
         21   -1    0    0  503  504 -0.00000000000E+00 -0.00000000000E+00 -0.44764776178E+02  0.44764776178E+02  0.00000000000E+00 0.  1.
         25    2    1    2    0    0 -0.21080608779E+02 -0.19492183164E+02  0.99074819896E+02  0.16208316805E+03  0.12502318248E+03 0.  0.
         25    2    1    2    0    0  0.21080608779E+02  0.19492183164E+02  0.29677810242E+03  0.32329930662E+03  0.12498344817E+03 0.  0.
          5    1    3    3  501    0 -0.63213934692E+02 -0.98913770052E+00  0.96874225732E+02  0.11577428706E+03  0.47000000000E+01 0. -1.
         -5    1    3    3    0  501  0.42133325913E+02 -0.18503045464E+02  0.22005941634E+01  0.46308880991E+02  0.47000000000E+01 0. -1.
          5    1    4    4  502    0 -0.50248271240E+02  0.24537002575E+02  0.11687061248E+03  0.12964483530E+03  0.47000000000E+01 0. -1.
         -5    1    4    4    0  502  0.71328880019E+02 -0.50448194108E+01  0.17990748994E+03  0.19365447132E+03  0.47000000000E+01 0. -1.
<mgrwt>
<rscale>  0 0.28088540E+03</rscale>
<asrwt>0</asrwt>
<pdfrwt beam="1">  1       21 0.67787335E-01 0.28088540E+03</pdfrwt>
<pdfrwt beam="2">  1       21 0.68868890E-02 0.28088540E+03</pdfrwt>
<totfact> 0.30262075E+05</totfact>
</mgrwt>
</event>
<event>
 8    1  0.9175398E-006  0.2798476E+03  0.7546771E-02  0.1095772E+00
         21   -1    0    0  504  503  0.00000000000E+00  0.00000000000E+00  0.35048745788E+02  0.35048745788E+02  0.00000000000E+00 0.  1.
         21   -1    0    0  503  504 -0.00000000000E+00 -0.00000000000E+00 -0.55861276407E+03  0.55861276407E+03  0.00000000000E+00 0.  1.
         25    2    1    2    0    0  0.18950259139E+02 -0.44674737843E+02 -0.17694264023E+03  0.22200921479E+03  0.12499779597E+03 0.  0.
         25    2    1    2    0    0 -0.18950259139E+02  0.44674737843E+02 -0.34662137805E+03  0.37165229507E+03  0.12499641669E+03 0.  0.
          5    1    3    3  501    0 -0.34488681456E+02 -0.64919778940E+02 -0.12249876447E+03  0.14294084141E+03  0.47000000000E+01 0.  1.
         -5    1    3    3    0  501  0.53438940596E+02  0.20245041098E+02 -0.54443875762E+02  0.79068373380E+02  0.47000000000E+01 0.  1.
          5    1    4    4  502    0  0.32760974188E+02 -0.62449599981E+01 -0.25089195049E+02  0.41998079282E+02  0.47000000000E+01 0.  1.
         -5    1    4    4    0  502 -0.51711233328E+02  0.50919697841E+02 -0.32153218300E+03  0.32965421579E+03  0.47000000000E+01 0.  1.
<mgrwt>
<rscale>  0 0.27984765E+03</rscale>
<asrwt>0</asrwt>
<pdfrwt beam="1">  1       21 0.53921151E-02 0.27984765E+03</pdfrwt>
<pdfrwt beam="2">  1       21 0.85940419E-01 0.27984765E+03</pdfrwt>
<totfact> 0.26998915E+05</totfact>
</mgrwt>
</event>
<event>
 8    1  0.9175398E-006  0.3035111E+03  0.7546771E-02  0.1083499E+00
         21   -1    0    0  504  503  0.00000000000E+00  0.00000000000E+00  0.36912804835E+02  0.36912804835E+02  0.00000000000E+00 0.  1.
         21   -1    0    0  503  504 -0.00000000000E+00 -0.00000000000E+00 -0.62389574033E+03  0.62389574033E+03  0.00000000000E+00 0.  1.
         25    2    1    2    0    0  0.78604060357E+02 -0.53152860616E+01 -0.36881402093E+03  0.39731098957E+03  0.12500155931E+03 0.  0.
         25    2    1    2    0    0 -0.78604060357E+02  0.53152860616E+01 -0.21816891457E+03  0.26349755560E+03  0.12500574367E+03 0.  0.
          5    1    3    3  501    0  0.55057974933E+02  0.22399658458E+02 -0.35192330626E+03  0.35693869052E+03  0.47000000000E+01 0.  1.
         -5    1    3    3    0  501  0.23546085424E+02 -0.27714944520E+02 -0.16890714668E+02  0.40372299049E+02  0.47000000000E+01 0.  1.
          5    1    4    4  502    0 -0.16676951646E+02 -0.21184370210E+02 -0.18723831868E+03  0.18922784213E+03  0.47000000000E+01 0. -1.
         -5    1    4    4    0  502 -0.61927108711E+02  0.26499656271E+02 -0.30930595894E+02  0.74269713464E+02  0.47000000000E+01 0. -1.
<mgrwt>
<rscale>  0 0.30351107E+03</rscale>
<asrwt>0</asrwt>
<pdfrwt beam="1">  1       21 0.56788932E-02 0.30351107E+03</pdfrwt>
<pdfrwt beam="2">  1       21 0.95983957E-01 0.30351107E+03</pdfrwt>
<totfact> 0.18947876E+05</totfact>
</mgrwt>
</event>
<event>
 8    1  0.9175398E-006  0.3036399E+03  0.7546771E-02  0.1083435E+00
         21   -1    0    0  504  503  0.00000000000E+00  0.00000000000E+00  0.14455360415E+03  0.14455360415E+03  0.00000000000E+00 0.  1.
         21   -1    0    0  503  504 -0.00000000000E+00 -0.00000000000E+00 -0.15945159642E+03  0.15945159642E+03  0.00000000000E+00 0.  1.
         25    2    1    2    0    0  0.35496865368E+02  0.69258684370E+02  0.29579469632E+02  0.15018955298E+03  0.12500065596E+03 0.  0.
         25    2    1    2    0    0 -0.35496865368E+02 -0.69258684370E+02 -0.44477461901E+02  0.15381564759E+03  0.12499686402E+03 0.  0.
          5    1    3    3  501    0 -0.26489380888E+02 -0.19497632758E+02 -0.10203024048E+02  0.34756822103E+02  0.47000000000E+01 0.  1.
         -5    1    3    3    0  501  0.61986246256E+02  0.88756317128E+02  0.39782493680E+02  0.11543273088E+03  0.47000000000E+01 0.  1.
          5    1    4    4  502    0  0.39201593710E+02 -0.26690830338E+01 -0.35623247008E+02  0.53244668100E+02  0.47000000000E+01 0. -1.
         -5    1    4    4    0  502 -0.74698459078E+02 -0.66589601337E+02 -0.88542148927E+01  0.10057097949E+03  0.47000000000E+01 0. -1.
<mgrwt>
<rscale>  0 0.30363994E+03</rscale>
<asrwt>0</asrwt>
<pdfrwt beam="1">  1       21 0.22239016E-01 0.30363994E+03</pdfrwt>
<pdfrwt beam="2">  1       21 0.24531015E-01 0.30363994E+03</pdfrwt>
<totfact> 0.28948647E+05</totfact>
</mgrwt>
</event>
<event>
 8    1  0.9175398E-006  0.3101558E+03  0.7546771E-02  0.1080271E+00
         21   -1    0    0  504  503  0.00000000000E+00  0.00000000000E+00  0.75185205446E+02  0.75185205446E+02  0.00000000000E+00 0.  1.
         21   -1    0    0  503  504 -0.00000000000E+00 -0.00000000000E+00 -0.31986558076E+03  0.31986558076E+03  0.00000000000E+00 0.  1.
         25    2    1    2    0    0  0.70399546559E+02 -0.32682942392E+02 -0.59929136393E+02  0.15886857814E+03  0.12499381125E+03 0.  0.
         25    2    1    2    0    0 -0.70399546559E+02  0.32682942392E+02 -0.18475123892E+03  0.23618220807E+03  0.12499897698E+03 0.  0.
          5    1    3    3  501    0  0.22125510326E+02 -0.11871439644E+02  0.39069617787E+02  0.46679699232E+02  0.47000000000E+01 0. -1.
         -5    1    3    3    0  501  0.48274036233E+02 -0.20811502748E+02 -0.98998754180E+02  0.11218887891E+03  0.47000000000E+01 0. -1.
          5    1    4    4  502    0 -0.96871384463E+02 -0.50601595224E+01 -0.98827969781E+02  0.13855947443E+03  0.47000000000E+01 0.  1.
         -5    1    4    4    0  502  0.26471837904E+02  0.37743101914E+02 -0.85923269139E+02  0.97622733641E+02  0.47000000000E+01 0.  1.
<mgrwt>
<rscale>  0 0.31015583E+03</rscale>
<asrwt>0</asrwt>
<pdfrwt beam="1">  1       21 0.11566955E-01 0.31015583E+03</pdfrwt>
<pdfrwt beam="2">  1       21 0.49210089E-01 0.31015583E+03</pdfrwt>
<totfact> 0.23964092E+05</totfact>
</mgrwt>
</event>
<event>
 8    1  0.9175398E-006  0.2850073E+03  0.7546771E-02  0.1092985E+00
         21   -1    0    0  504  503  0.00000000000E+00  0.00000000000E+00  0.12259816584E+03  0.12259816584E+03  0.00000000000E+00 0.  1.
         21   -1    0    0  503  504 -0.00000000000E+00 -0.00000000000E+00 -0.16564105903E+03  0.16564105903E+03  0.00000000000E+00 0.  1.
         25    2    1    2    0    0  0.21853712851E+02  0.30747350632E+00 -0.87104861676E+02  0.15390998656E+03  0.12499339075E+03 0.  0.
         25    2    1    2    0    0 -0.21853712851E+02 -0.30747350632E+00  0.44061968482E+02  0.13432923831E+03  0.12500083157E+03 0.  0.
          5    1    3    3  501    0  0.47123747842E+02 -0.33584282354E+02 -0.12213753178E+01  0.58070073098E+02  0.47000000000E+01 0. -1.
         -5    1    3    3    0  501 -0.25270034991E+02  0.33891755860E+02 -0.85883486358E+02  0.95839913464E+02  0.47000000000E+01 0. -1.
          5    1    4    4  502    0  0.18903455677E+02  0.14999239110E+02 -0.35694826608E+02  0.43341994151E+02  0.47000000000E+01 0. -1.
         -5    1    4    4    0  502 -0.40757168528E+02 -0.15306712616E+02  0.79756795090E+02  0.90987244164E+02  0.47000000000E+01 0. -1.
<mgrwt>
<rscale>  0 0.28500730E+03</rscale>
<asrwt>0</asrwt>
<pdfrwt beam="1">  1       21 0.18861256E-01 0.28500730E+03</pdfrwt>
<pdfrwt beam="2">  1       21 0.25483240E-01 0.28500730E+03</pdfrwt>
<totfact> 0.36858735E+05</totfact>
</mgrwt>
</event>
<event>
 8    1  0.9175398E-006  0.2899430E+03  0.7546771E-02  0.1090379E+00
         21   -1    0    0  504  503  0.00000000000E+00  0.00000000000E+00  0.43963341912E+02  0.43963341912E+02  0.00000000000E+00 0. -1.
         21   -1    0    0  503  504 -0.00000000000E+00 -0.00000000000E+00 -0.47805146289E+03  0.47805146289E+03  0.00000000000E+00 0. -1.
         25    2    1    2    0    0 -0.30295972392E+02  0.27782718498E+02 -0.10749499552E+03  0.16990882531E+03  0.12499643781E+03 0.  0.
         25    2    1    2    0    0  0.30295972392E+02 -0.27782718498E+02 -0.32659312545E+03  0.35210597949E+03  0.12500330319E+03 0.  0.
          5    1    3    3  501    0 -0.26133614173E+02  0.19521230871E+02  0.22240559021E+02  0.39758982759E+02  0.47000000000E+01 0.  1.
         -5    1    3    3    0  501 -0.41623582197E+01  0.82614876266E+01 -0.12973555454E+03  0.13014984255E+03  0.47000000000E+01 0.  1.
          5    1    4    4  502    0  0.58356023536E-01  0.34439849876E+02 -0.25442702666E+02  0.43075837587E+02  0.47000000000E+01 0.  1.
         -5    1    4    4    0  502  0.30237616369E+02 -0.62222568373E+02 -0.30115042279E+03  0.30903014190E+03  0.47000000000E+01 0.  1.
<mgrwt>
<rscale>  0 0.28994303E+03</rscale>
<asrwt>0</asrwt>
<pdfrwt beam="1">  1       21 0.67635911E-02 0.28994303E+03</pdfrwt>
<pdfrwt beam="2">  1       21 0.73546378E-01 0.28994303E+03</pdfrwt>
<totfact> 0.25982602E+05</totfact>
</mgrwt>
</event>
<event>
 8    1  0.9175398E-006  0.2585574E+03  0.7546771E-02  0.1108013E+00
         21   -1    0    0  504  503  0.00000000000E+00  0.00000000000E+00  0.69566264702E+03  0.69566264702E+03  0.00000000000E+00 0.  1.
         21   -1    0    0  503  504 -0.00000000000E+00 -0.00000000000E+00 -0.24024551201E+02  0.24024551201E+02  0.00000000000E+00 0.  1.
         25    2    1    2    0    0  0.24320140067E+02  0.22311658558E+02  0.33530856809E+03  0.35936669901E+03  0.12499323665E+03 0.  0.
         25    2    1    2    0    0 -0.24320140067E+02 -0.22311658558E+02  0.33632952773E+03  0.36032049920E+03  0.12499612635E+03 0.  0.
          5    1    3    3  501    0  0.14197990663E+02 -0.37636804127E+02  0.25672277540E+03  0.25989764403E+03  0.47000000000E+01 0. -1.
         -5    1    3    3    0  501  0.10122149404E+02  0.59948462685E+02  0.78585792683E+02  0.99469054979E+02  0.47000000000E+01 0. -1.
          5    1    4    4  502    0 -0.54330431891E+02 -0.66946604530E+01  0.31564251576E+03  0.32038867344E+03  0.47000000000E+01 0. -1.
         -5    1    4    4    0  502  0.30010291823E+02 -0.15616998105E+02  0.20687011965E+02  0.39931825768E+02  0.47000000000E+01 0. -1.
<mgrwt>
<rscale>  0 0.25855740E+03</rscale>
<asrwt>0</asrwt>
<pdfrwt beam="1">  1       21 0.10702501E+00 0.25855740E+03</pdfrwt>
<pdfrwt beam="2">  1       21 0.36960853E-02 0.25855740E+03</pdfrwt>
<totfact> 0.30623593E+05</totfact>
</mgrwt>
</event>
<event>
 8    1  0.9175398E-006  0.3264933E+03  0.7546771E-02  0.1072699E+00
         21   -1    0    0  504  503  0.00000000000E+00  0.00000000000E+00  0.95883400980E+02  0.95883400980E+02  0.00000000000E+00 0. -1.
         21   -1    0    0  503  504 -0.00000000000E+00 -0.00000000000E+00 -0.27793622293E+03  0.27793622293E+03  0.00000000000E+00 0. -1.
         25    2    1    2    0    0  0.72019817755E+02  0.19681558685E+02 -0.64997502983E+01  0.14574513752E+03  0.12500072182E+03 0.  0.
         25    2    1    2    0    0 -0.72019817755E+02 -0.19681558685E+02 -0.17555307165E+03  0.22807448639E+03  0.12499948990E+03 0.  0.
          5    1    3    3  501    0 -0.19230829148E+02  0.10619890818E+02 -0.41734522354E+02  0.47396911574E+02  0.47000000000E+01 0.  1.
         -5    1    3    3    0  501  0.91250646902E+02  0.90616678672E+01  0.35234772055E+02  0.98348225945E+02  0.47000000000E+01 0.  1.
          5    1    4    4  502    0  0.21425332346E+02 -0.38700120449E+02 -0.87662575096E+02  0.98303414291E+02  0.47000000000E+01 0.  1.
         -5    1    4    4    0  502 -0.93445150101E+02  0.19018561764E+02 -0.87890496553E+02  0.12977107210E+03  0.47000000000E+01 0.  1.
<mgrwt>
<rscale>  0 0.32649331E+03</rscale>
<asrwt>0</asrwt>
<pdfrwt beam="1">  1       21 0.14751293E-01 0.32649331E+03</pdfrwt>
<pdfrwt beam="2">  1       21 0.42759418E-01 0.32649331E+03</pdfrwt>
<totfact> 0.20555573E+05</totfact>
</mgrwt>
</event>
<event>
 8    1  0.9175398E-006  0.2927306E+03  0.7546771E-02  0.1088932E+00
         21   -1    0    0  504  503  0.00000000000E+00  0.00000000000E+00  0.19252992071E+03  0.19252992071E+03  0.00000000000E+00 0. -1.
         21   -1    0    0  503  504 -0.00000000000E+00 -0.00000000000E+00 -0.11126999423E+03  0.11126999423E+03  0.00000000000E+00 0. -1.
         25    2    1    2    0    0  0.67906833589E+02 -0.33622683659E+02  0.33161692469E+02  0.14991105699E+03  0.12502721406E+03 0.  0.
         25    2    1    2    0    0 -0.67906833589E+02  0.33622683659E+02  0.48098234015E+02  0.15388885795E+03  0.12500607017E+03 0.  0.
          5    1    3    3  501    0  0.72837323080E+02 -0.33165441309E+02 -0.30580065627E+02  0.85804734977E+02  0.47000000000E+01 0.  1.
         -5    1    3    3    0  501 -0.49304894904E+01 -0.45724235020E+00  0.63741758096E+02  0.64106322016E+02  0.47000000000E+01 0.  1.
          5    1    4    4  502    0 -0.18994133136E+02  0.69868970906E+02 -0.53314427375E+01  0.72752762632E+02  0.47000000000E+01 0.  1.
         -5    1    4    4    0  502 -0.48912700454E+02 -0.36246287247E+02  0.53429676752E+02  0.81136095313E+02  0.47000000000E+01 0.  1.
<mgrwt>
<rscale>  0 0.29273061E+03</rscale>
<asrwt>0</asrwt>
<pdfrwt beam="1">  1       21 0.29619988E-01 0.29273061E+03</pdfrwt>
<pdfrwt beam="2">  1       21 0.17118461E-01 0.29273061E+03</pdfrwt>
<totfact> 0.32902294E+05</totfact>
</mgrwt>
</event>
<event>
 8    1  0.9175398E-006  0.3249373E+03  0.7546771E-02  0.1073399E+00
         21   -1    0    0  504  503  0.00000000000E+00  0.00000000000E+00  0.13489646908E+03  0.13489646908E+03  0.00000000000E+00 0. -1.
         21   -1    0    0  503  504 -0.00000000000E+00 -0.00000000000E+00 -0.19567640331E+03  0.19567640331E+03  0.00000000000E+00 0. -1.
         25    2    1    2    0    0  0.40607829262E+02  0.74572840572E+02  0.30330659462E+02  0.15412791295E+03  0.12500144119E+03 0.  0.
         25    2    1    2    0    0 -0.40607829262E+02 -0.74572840572E+02 -0.91110593684E+02  0.17644495944E+03  0.12498631558E+03 0.  0.
          5    1    3    3  501    0 -0.36352175334E+02  0.50463395430E+02 -0.11080555777E+02  0.63347483345E+02  0.47000000000E+01 0.  1.
         -5    1    3    3    0  501  0.76960004596E+02  0.24109445141E+02  0.41411215238E+02  0.90780429609E+02  0.47000000000E+01 0.  1.
          5    1    4    4  502    0 -0.17281468108E+02  0.32089270531E+02 -0.45428164412E+01  0.37028335156E+02  0.47000000000E+01 0. -1.
         -5    1    4    4    0  502 -0.23326361153E+02 -0.10666211110E+03 -0.86567777243E+02  0.13941662428E+03  0.47000000000E+01 0. -1.
<mgrwt>
<rscale>  0 0.32493726E+03</rscale>
<asrwt>0</asrwt>
<pdfrwt beam="1">  1       21 0.20753303E-01 0.32493726E+03</pdfrwt>
<pdfrwt beam="2">  1       21 0.30104062E-01 0.32493726E+03</pdfrwt>
<totfact> 0.22061128E+05</totfact>
</mgrwt>
</event>
<event>
 8    1  0.9175398E-006  0.3325361E+03  0.7546771E-02  0.1070020E+00
         21   -1    0    0  504  503  0.00000000000E+00  0.00000000000E+00  0.26086652934E+03  0.26086652934E+03  0.00000000000E+00 0. -1.
         21   -1    0    0  503  504 -0.00000000000E+00 -0.00000000000E+00 -0.10597395124E+03  0.10597395124E+03  0.00000000000E+00 0. -1.
         25    2    1    2    0    0  0.45322474383E+02  0.38801722910E+02  0.17892337119E+03  0.22626938645E+03  0.12499824839E+03 0.  0.
         25    2    1    2    0    0 -0.45322474383E+02 -0.38801722910E+02 -0.24030793092E+02  0.14057109414E+03  0.12499221218E+03 0.  0.
          5    1    3    3  501    0  0.74471446322E+01 -0.40704924480E+02  0.24176078237E+02  0.48155203239E+02  0.47000000000E+01 0.  1.
         -5    1    3    3    0  501  0.37875329750E+02  0.79506647390E+02  0.15474729296E+03  0.17811418321E+03  0.47000000000E+01 0.  1.
          5    1    4    4  502    0 -0.22071327011E+02 -0.56890474163E+02  0.37789786112E+02  0.71929322678E+02  0.47000000000E+01 0.  1.
         -5    1    4    4    0  502 -0.23251147372E+02  0.18088751253E+02 -0.61820579204E+02  0.68641771460E+02  0.47000000000E+01 0.  1.
<mgrwt>
<rscale>  0 0.33253605E+03</rscale>
<asrwt>0</asrwt>
<pdfrwt beam="1">  1       21 0.40133312E-01 0.33253605E+03</pdfrwt>
<pdfrwt beam="2">  1       21 0.16303685E-01 0.33253605E+03</pdfrwt>
<totfact> 0.19439712E+05</totfact>
</mgrwt>
</event>
<event>
 8    1  0.9175398E-006  0.2663280E+03  0.7546771E-02  0.1103400E+00
         21   -1    0    0  504  503  0.00000000000E+00  0.00000000000E+00  0.27330544873E+03  0.27330544873E+03  0.00000000000E+00 0.  1.
         21   -1    0    0  503  504 -0.00000000000E+00 -0.00000000000E+00 -0.64882173652E+02  0.64882173652E+02  0.00000000000E+00 0.  1.
         25    2    1    2    0    0  0.41655640760E+02 -0.41634426805E+00  0.12864077879E+03  0.18414331051E+03  0.12499977236E+03 0.  0.
         25    2    1    2    0    0 -0.41655640760E+02  0.41634426805E+00  0.79782496292E+02  0.15404431187E+03  0.12501614918E+03 0.  0.
          5    1    3    3  501    0  0.37490231856E+02 -0.47941187687E+02  0.18119277510E+02  0.63673174721E+02  0.47000000000E+01 0.  1.
         -5    1    3    3    0  501  0.41654089038E+01  0.47524843419E+02  0.11052150128E+03  0.12047013579E+03  0.47000000000E+01 0.  1.
          5    1    4    4  502    0 -0.50356741394E+01 -0.43343791325E+02 -0.12331016901E+02  0.45587127989E+02  0.47000000000E+01 0.  1.
         -5    1    4    4    0  502 -0.36619966621E+02  0.43760135593E+02  0.92113513193E+02  0.10845718388E+03  0.47000000000E+01 0.  1.
<mgrwt>
<rscale>  0 0.26632801E+03</rscale>
<asrwt>0</asrwt>
<pdfrwt beam="1">  1       21 0.42046992E-01 0.26632801E+03</pdfrwt>
<pdfrwt beam="2">  1       21 0.99818730E-02 0.26632801E+03</pdfrwt>
<totfact> 0.43638740E+05</totfact>
</mgrwt>
</event>
<event>
 8    1  0.9175398E-006  0.3601776E+03  0.7546771E-02  0.1058514E+00
         21   -1    0    0  504  503  0.00000000000E+00  0.00000000000E+00  0.27236783265E+03  0.27236783265E+03  0.00000000000E+00 0.  1.
         21   -1    0    0  503  504 -0.00000000000E+00 -0.00000000000E+00 -0.11907416090E+03  0.11907416090E+03  0.00000000000E+00 0.  1.
         25    2    1    2    0    0  0.17389652158E+02  0.21911962725E+02  0.21422722030E+03  0.24959904900E+03  0.12499539684E+03 0.  0.
         25    2    1    2    0    0 -0.17389652158E+02 -0.21911962725E+02 -0.60933548542E+02  0.14184294455E+03  0.12499595781E+03 0.  0.
          5    1    3    3  501    0  0.40833441472E+02  0.59680706262E+02  0.17757807277E+03  0.19179473030E+03  0.47000000000E+01 0. -1.
         -5    1    3    3    0  501 -0.23443789314E+02 -0.37768743537E+02  0.36649147535E+02  0.57804318704E+02  0.47000000000E+01 0. -1.
          5    1    4    4  502    0 -0.56728551488E+02  0.26451228967E+02 -0.45273606160E+02  0.77392412306E+02  0.47000000000E+01 0.  1.
         -5    1    4    4    0  502  0.39338899330E+02 -0.48363191692E+02 -0.15659942382E+02  0.64450532244E+02  0.47000000000E+01 0.  1.
<mgrwt>
<rscale>  0 0.36017757E+03</rscale>
<asrwt>0</asrwt>
<pdfrwt beam="1">  1       21 0.41902743E-01 0.36017757E+03</pdfrwt>
<pdfrwt beam="2">  1       21 0.18319102E-01 0.36017757E+03</pdfrwt>
<totfact> 0.14229163E+05</totfact>
</mgrwt>
</event>
<event>
 8    1  0.9175398E-006  0.2949243E+03  0.7546771E-02  0.1087806E+00
         21   -1    0    0  504  503  0.00000000000E+00  0.00000000000E+00  0.93713423184E+03  0.93713423184E+03  0.00000000000E+00 0. -1.
         21   -1    0    0  503  504 -0.00000000000E+00 -0.00000000000E+00 -0.23203817913E+02  0.23203817913E+02  0.00000000000E+00 0. -1.
         25    2    1    2    0    0 -0.71076434307E+02 -0.31870858948E+02  0.43521479147E+03  0.45947878890E+03  0.12506490943E+03 0.  0.
         25    2    1    2    0    0  0.71076434307E+02  0.31870858948E+02  0.47871562245E+03  0.50085926085E+03  0.12499496323E+03 0.  0.
          5    1    3    3  501    0 -0.61917705485E+01 -0.36238212910E+02  0.35111016609E+03  0.35306087978E+03  0.47000000000E+01 0.  1.
         -5    1    3    3    0  501 -0.64884663758E+02  0.43673539622E+01  0.84104625380E+02  0.10641790912E+03  0.47000000000E+01 0.  1.
          5    1    4    4  502    0 -0.19061415295E+01  0.64938171532E+02  0.25478366458E+03  0.26297795580E+03  0.47000000000E+01 0. -1.
         -5    1    4    4    0  502  0.72982575836E+02 -0.33067312584E+02  0.22393195787E+03  0.23788130505E+03  0.47000000000E+01 0. -1.
<mgrwt>
<rscale>  0 0.29492434E+03</rscale>
<asrwt>0</asrwt>
<pdfrwt beam="1">  1       21 0.14417447E+00 0.29492434E+03</pdfrwt>
<pdfrwt beam="2">  1       21 0.35698189E-02 0.29492434E+03</pdfrwt>
<totfact> 0.15132827E+05</totfact>
</mgrwt>
</event>
<event>
 8    1  0.9175398E-006  0.2810519E+03  0.7546771E-02  0.1095116E+00
         21   -1    0    0  504  503  0.00000000000E+00  0.00000000000E+00  0.20108880000E+02  0.20108880000E+02  0.00000000000E+00 0.  1.
         21   -1    0    0  503  504 -0.00000000000E+00 -0.00000000000E+00 -0.98203075383E+03  0.98203075383E+03  0.00000000000E+00 0.  1.
         25    2    1    2    0    0  0.10044371127E+01  0.37713830625E+02 -0.29540905268E+03  0.32295714495E+03  0.12494585689E+03 0.  0.
         25    2    1    2    0    0 -0.10044371127E+01 -0.37713830625E+02 -0.66651282115E+03  0.67918248888E+03  0.12500468203E+03 0.  0.
          5    1    3    3  501    0  0.52194459272E+02  0.12903860973E+02 -0.59892185460E+02  0.80622174902E+02  0.47000000000E+01 0. -1.
         -5    1    3    3    0  501 -0.51190022160E+02  0.24809969651E+02 -0.23551686722E+03  0.24233497004E+03  0.47000000000E+01 0. -1.
          5    1    4    4  502    0 -0.35624501729E+02 -0.71189158513E+02 -0.47526748205E+03  0.48191106120E+03  0.47000000000E+01 0. -1.
         -5    1    4    4    0  502  0.34620064616E+02  0.33475327888E+02 -0.19124533910E+03  0.19727142768E+03  0.47000000000E+01 0. -1.
<mgrwt>
<rscale>  0 0.28105187E+03</rscale>
<asrwt>0</asrwt>
<pdfrwt beam="1">  1       21 0.30936749E-02 0.28105187E+03</pdfrwt>
<pdfrwt beam="2">  1       21 0.15108160E+00 0.28105187E+03</pdfrwt>
<totfact> 0.17058593E+05</totfact>
</mgrwt>
</event>
<event>
 8    1  0.9175398E-006  0.3703435E+03  0.7546771E-02  0.1054562E+00
         21   -1    0    0  504  503  0.00000000000E+00  0.00000000000E+00  0.10013158561E+04  0.10013158561E+04  0.00000000000E+00 0. -1.
         21   -1    0    0  503  504 -0.00000000000E+00 -0.00000000000E+00 -0.34243517090E+02  0.34243517090E+02  0.00000000000E+00 0. -1.
         25    2    1    2    0    0 -0.95293400521E+02  0.44425717473E+02  0.72744700577E+03  0.74555934507E+03  0.12500045703E+03 0.  0.
         25    2    1    2    0    0  0.95293400521E+02 -0.44425717473E+02  0.23962533325E+03  0.29000002813E+03  0.12500095770E+03 0.  0.
          5    1    3    3  501    0 -0.23556615416E+02  0.68095650442E+02  0.51490088307E+03  0.51993936293E+03  0.47000000000E+01 0. -1.
         -5    1    3    3    0  501 -0.71736785106E+02 -0.23669932969E+02  0.21254612270E+03  0.22561998213E+03  0.47000000000E+01 0. -1.
          5    1    4    4  502    0  0.98538302800E+02 -0.16966843792E+02  0.24196835897E+03  0.26185577643E+03  0.47000000000E+01 0.  1.
         -5    1    4    4    0  502 -0.32449022781E+01 -0.27458873680E+02 -0.23430257173E+01  0.28144251706E+02  0.47000000000E+01 0.  1.
<mgrwt>
<rscale>  0 0.37034350E+03</rscale>
<asrwt>0</asrwt>
<pdfrwt beam="1">  1       21 0.15404857E+00 0.37034350E+03</pdfrwt>
<pdfrwt beam="2">  1       21 0.52682342E-02 0.37034350E+03</pdfrwt>
<totfact> 0.63840136E+04</totfact>
</mgrwt>
</event>
<event>
 8    1  0.9175398E-006  0.4796928E+03  0.7546771E-02  0.1019220E+00
         21   -1    0    0  504  503  0.00000000000E+00  0.00000000000E+00  0.19048131733E+03  0.19048131733E+03  0.00000000000E+00 0.  1.
         21   -1    0    0  503  504 -0.00000000000E+00 -0.00000000000E+00 -0.30200498503E+03  0.30200498503E+03  0.00000000000E+00 0.  1.
         25    2    1    2    0    0  0.72382055848E+02 -0.17642929208E+03  0.20622818383E+02  0.22894342032E+03  0.12499332765E+03 0.  0.
         25    2    1    2    0    0 -0.72382055848E+02  0.17642929208E+03 -0.13214648608E+03  0.26354288204E+03  0.12500279908E+03 0.  0.
          5    1    3    3  501    0  0.62996794647E+02 -0.16993700714E+03 -0.23785052473E+02  0.18285240292E+03  0.47000000000E+01 0.  1.
         -5    1    3    3    0  501  0.93852612010E+01 -0.64922849451E+01  0.44407870856E+02  0.46091017407E+02  0.47000000000E+01 0.  1.
          5    1    4    4  502    0 -0.88705248752E+02  0.14875609955E+03 -0.58187661783E+02  0.18277005305E+03  0.47000000000E+01 0.  1.
         -5    1    4    4    0  502  0.16323192904E+02  0.27673192536E+02 -0.73958824297E+02  0.80772828990E+02  0.47000000000E+01 0.  1.
<mgrwt>
<rscale>  0 0.47969285E+03</rscale>
<asrwt>0</asrwt>
<pdfrwt beam="1">  1       21 0.29304818E-01 0.47969285E+03</pdfrwt>
<pdfrwt beam="2">  1       21 0.46462305E-01 0.47969285E+03</pdfrwt>
<totfact> 0.45205375E+04</totfact>
</mgrwt>
</event>
<event>
 8    1  0.9175398E-006  0.2609159E+03  0.7546771E-02  0.1106594E+00
         21   -1    0    0  504  503  0.00000000000E+00  0.00000000000E+00  0.10368230442E+03  0.10368230442E+03  0.00000000000E+00 0. -1.
         21   -1    0    0  503  504 -0.00000000000E+00 -0.00000000000E+00 -0.16414830418E+03  0.16414830418E+03  0.00000000000E+00 0. -1.
         25    2    1    2    0    0  0.71533528551E+01 -0.35537077298E+02 -0.20939765191E+02  0.13181015971E+03  0.12498555964E+03 0.  0.
         25    2    1    2    0    0 -0.71533528551E+01  0.35537077298E+02 -0.39526234578E+02  0.13602044889E+03  0.12500073990E+03 0.  0.
          5    1    3    3  501    0 -0.67287358885E+01 -0.79549915379E+02 -0.28318551342E+02  0.84838053216E+02  0.47000000000E+01 0.  1.
         -5    1    3    3    0  501  0.13882088744E+02  0.44012838080E+02  0.73787861510E+01  0.46972106498E+02  0.47000000000E+01 0.  1.
          5    1    4    4  502    0 -0.11498993736E+02  0.82141195214E+02 -0.26725728640E+02  0.87268306844E+02  0.47000000000E+01 0.  1.
         -5    1    4    4    0  502  0.43456408807E+01 -0.46604117915E+02 -0.12800505938E+02  0.48752142041E+02  0.47000000000E+01 0.  1.
<mgrwt>
<rscale>  0 0.26091588E+03</rscale>
<asrwt>0</asrwt>
<pdfrwt beam="1">  1       21 0.15951124E-01 0.26091588E+03</pdfrwt>
<pdfrwt beam="2">  1       21 0.25253585E-01 0.26091588E+03</pdfrwt>
<totfact> 0.51427110E+05</totfact>
</mgrwt>
</event>
<event>
 8    1  0.9175398E-006  0.2733961E+03  0.7546771E-02  0.1099352E+00
         21   -1    0    0  504  503  0.00000000000E+00  0.00000000000E+00  0.92354636506E+02  0.92354636506E+02  0.00000000000E+00 0.  1.
         21   -1    0    0  503  504 -0.00000000000E+00 -0.00000000000E+00 -0.20233261839E+03  0.20233261839E+03  0.00000000000E+00 0.  1.
         25    2    1    2    0    0  0.12455064200E+02 -0.46139426019E+02 -0.85032273085E+02  0.15855624903E+03  0.12500248550E+03 0.  0.
         25    2    1    2    0    0 -0.12455064200E+02  0.46139426019E+02 -0.24945708801E+02  0.13613100587E+03  0.12500154845E+03 0.  0.
          5    1    3    3  501    0 -0.12676264074E+02  0.36345803946E+02 -0.54650456725E+02  0.67010951013E+02  0.47000000000E+01 0. -1.
         -5    1    3    3    0  501  0.25131328274E+02 -0.82485229966E+02 -0.30381816360E+02  0.91545298015E+02  0.47000000000E+01 0. -1.
          5    1    4    4  502    0 -0.29062487414E+02  0.33660358821E+02 -0.71843180767E+02  0.84623758799E+02  0.47000000000E+01 0.  1.
         -5    1    4    4    0  502  0.16607423214E+02  0.12479067198E+02  0.46897471966E+02  0.51507247070E+02  0.47000000000E+01 0.  1.
<mgrwt>
<rscale>  0 0.27339609E+03</rscale>
<asrwt>0</asrwt>
<pdfrwt beam="1">  1       21 0.14208406E-01 0.27339609E+03</pdfrwt>
<pdfrwt beam="2">  1       21 0.31128095E-01 0.27339609E+03</pdfrwt>
<totfact> 0.42211900E+05</totfact>
</mgrwt>
</event>
<event>
 8    1  0.9175398E-006  0.2816442E+03  0.7546771E-02  0.1094794E+00
         21   -1    0    0  504  503  0.00000000000E+00  0.00000000000E+00  0.78493854955E+03  0.78493854955E+03  0.00000000000E+00 0.  1.
         21   -1    0    0  503  504 -0.00000000000E+00 -0.00000000000E+00 -0.25264219232E+02  0.25264219232E+02  0.00000000000E+00 0.  1.
         25    2    1    2    0    0 -0.85232788752E+01 -0.50359760541E+02  0.26485793539E+03  0.29729267144E+03  0.12499781914E+03 0.  0.
         25    2    1    2    0    0  0.85232788752E+01  0.50359760541E+02  0.49481639494E+03  0.51291009735E+03  0.12499900599E+03 0.  0.
          5    1    3    3  501    0  0.36997702977E+02  0.25616859501E+02  0.10801280093E+03  0.11710639897E+03  0.47000000000E+01 0.  1.
         -5    1    3    3    0  501 -0.45520981852E+02 -0.75976620043E+02  0.15684513446E+03  0.18018627247E+03  0.47000000000E+01 0.  1.
          5    1    4    4  502    0 -0.56205364917E+02  0.27346112890E+02  0.17850136615E+03  0.18918689345E+03  0.47000000000E+01 0. -1.
         -5    1    4    4    0  502  0.64728643792E+02  0.23013647651E+02  0.31631502879E+03  0.32372320390E+03  0.47000000000E+01 0. -1.
<mgrwt>
<rscale>  0 0.28164417E+03</rscale>
<asrwt>0</asrwt>
<pdfrwt beam="1">  1       21 0.12075976E+00 0.28164417E+03</pdfrwt>
<pdfrwt beam="2">  1       21 0.38868036E-02 0.28164417E+03</pdfrwt>
<totfact> 0.20768169E+05</totfact>
</mgrwt>
</event>
<event>
 8    1  0.9175398E-006  0.3349247E+03  0.7546771E-02  0.1068978E+00
         21   -1    0    0  504  503  0.00000000000E+00  0.00000000000E+00  0.33494096672E+02  0.33494096672E+02  0.00000000000E+00 0.  1.
         21   -1    0    0  503  504 -0.00000000000E+00 -0.00000000000E+00 -0.83727127976E+03  0.83727127976E+03  0.00000000000E+00 0.  1.
         25    2    1    2    0    0  0.42396273271E+02  0.13556054948E+02 -0.13627919059E+03  0.19020693362E+03  0.12500179676E+03 0.  0.
         25    2    1    2    0    0 -0.42396273271E+02 -0.13556054948E+02 -0.66749799249E+03  0.68055844281E+03  0.12500005397E+03 0.  0.
          5    1    3    3  501    0 -0.87437883245E+01  0.38019831653E+01  0.21505113361E+02  0.23988931008E+02  0.47000000000E+01 0. -1.
         -5    1    3    3    0  501  0.51140061595E+02  0.97540717827E+01 -0.15778430396E+03  0.16621800261E+03  0.47000000000E+01 0. -1.
          5    1    4    4  502    0 -0.13406193041E+01 -0.39456446215E+02 -0.65739823132E+02  0.76827226642E+02  0.47000000000E+01 0. -1.
         -5    1    4    4    0  502 -0.41055653966E+02  0.25900391267E+02 -0.60175816936E+03  0.60373121617E+03  0.47000000000E+01 0. -1.
<mgrwt>
<rscale>  0 0.33492474E+03</rscale>
<asrwt>0</asrwt>
<pdfrwt beam="1">  1       21 0.51529382E-02 0.33492474E+03</pdfrwt>
<pdfrwt beam="2">  1       21 0.12881096E+00 0.33492474E+03</pdfrwt>
<totfact> 0.10745835E+05</totfact>
</mgrwt>
</event>
<event>
 8    1  0.9175398E-006  0.4165769E+03  0.7546771E-02  0.1038186E+00
         21   -1    0    0  504  503  0.00000000000E+00  0.00000000000E+00  0.32652159103E+03  0.32652159103E+03  0.00000000000E+00 0.  1.
         21   -1    0    0  503  504 -0.00000000000E+00 -0.00000000000E+00 -0.13286737934E+03  0.13286737934E+03  0.00000000000E+00 0.  1.
         25    2    1    2    0    0  0.98444719276E+02  0.13429807608E+03  0.91440275781E+02  0.22743911160E+03  0.12505954365E+03 0.  0.
         25    2    1    2    0    0 -0.98444719276E+02 -0.13429807608E+03  0.10221393591E+03  0.23194985876E+03  0.12500284914E+03 0.  0.
          5    1    3    3  501    0  0.63397762723E+01  0.66778555353E+02  0.90987854000E+02  0.11313906396E+03  0.47000000000E+01 0. -1.
         -5    1    3    3    0  501  0.92104943004E+02  0.67519520728E+02  0.45242178157E+00  0.11430004764E+03  0.47000000000E+01 0. -1.
          5    1    4    4  502    0 -0.12383720931E+03 -0.81020800595E+02  0.62826353406E+02  0.16083925274E+03  0.47000000000E+01 0.  1.
         -5    1    4    4    0  502  0.25392490037E+02 -0.53277275486E+02  0.39387582503E+02  0.71110606022E+02  0.47000000000E+01 0.  1.
<mgrwt>
<rscale>  0 0.41657685E+03</rscale>
<asrwt>0</asrwt>
<pdfrwt beam="1">  1       21 0.50234090E-01 0.41657685E+03</pdfrwt>
<pdfrwt beam="2">  1       21 0.20441135E-01 0.41657685E+03</pdfrwt>
<totfact> 0.78173700E+04</totfact>
</mgrwt>
</event>
<event>
 8    1  0.9175398E-006  0.2964002E+03  0.7546771E-02  0.1087054E+00
         21   -1    0    0  504  503  0.00000000000E+00  0.00000000000E+00  0.14822794368E+02  0.14822794368E+02  0.00000000000E+00 0.  1.
         21   -1    0    0  503  504 -0.00000000000E+00 -0.00000000000E+00 -0.14817223115E+04  0.14817223115E+04  0.00000000000E+00 0.  1.
         25    2    1    2    0    0 -0.64743705123E+01  0.35536030534E+02 -0.10916688684E+04  0.10993956721E+04  0.12500079428E+03 0.  0.
         25    2    1    2    0    0  0.64743705123E+01 -0.35536030534E+02 -0.37523064870E+03  0.39714943377E+03  0.12499962434E+03 0.  0.
          5    1    3    3  501    0  0.10670142933E+02  0.77790322264E+02 -0.83212999636E+03  0.83583946248E+03  0.47000000000E+01 0.  1.
         -5    1    3    3    0  501 -0.17144513446E+02 -0.42254291730E+02 -0.25953887204E+03  0.26355620959E+03  0.47000000000E+01 0.  1.
          5    1    4    4  502    0 -0.83431957191E+01 -0.56751271528E+02 -0.69266512610E+02  0.90056957000E+02  0.47000000000E+01 0.  1.
         -5    1    4    4    0  502  0.14817566231E+02  0.21215240994E+02 -0.30596413609E+03  0.30709247677E+03  0.47000000000E+01 0.  1.
<mgrwt>
<rscale>  0 0.29640017E+03</rscale>
<asrwt>0</asrwt>
<pdfrwt beam="1">  1       21 0.22804280E-02 0.29640017E+03</pdfrwt>
<pdfrwt beam="2">  1       21 0.22795747E+00 0.29640017E+03</pdfrwt>
<totfact> 0.84474965E+04</totfact>
</mgrwt>
</event>
<event>
 8    1  0.9175398E-006  0.3309353E+03  0.7546771E-02  0.1070724E+00
         21   -1    0    0  504  503  0.00000000000E+00  0.00000000000E+00  0.23733325488E+02  0.23733325488E+02  0.00000000000E+00 0.  1.
         21   -1    0    0  503  504 -0.00000000000E+00 -0.00000000000E+00 -0.11536331581E+04  0.11536331581E+04  0.00000000000E+00 0.  1.
         25    2    1    2    0    0  0.94221350712E+02  0.24589143379E+02 -0.73450369210E+03  0.75140043201E+03  0.12499858648E+03 0.  0.
         25    2    1    2    0    0 -0.94221350712E+02 -0.24589143379E+02 -0.39539614052E+03  0.42596605158E+03  0.12500672086E+03 0.  0.
          5    1    3    3  501    0  0.87248834586E+02 -0.34037205615E+02 -0.34918518464E+03  0.36155673645E+03  0.47000000000E+01 0.  1.
         -5    1    3    3    0  501  0.69725161257E+01  0.58626348994E+02 -0.38531850746E+03  0.38984369557E+03  0.47000000000E+01 0.  1.
          5    1    4    4  502    0 -0.13513280386E+02  0.25514722349E+02 -0.25325382749E+03  0.25493764128E+03  0.47000000000E+01 0.  1.
         -5    1    4    4    0  502 -0.80708070326E+02 -0.50103865729E+02 -0.14214231303E+03  0.17102841030E+03  0.47000000000E+01 0.  1.
<mgrwt>
<rscale>  0 0.33093535E+03</rscale>
<asrwt>0</asrwt>
<pdfrwt beam="1">  1       21 0.36512817E-02 0.33093535E+03</pdfrwt>
<pdfrwt beam="2">  1       21 0.17748198E+00 0.33093535E+03</pdfrwt>
<totfact> 0.81323855E+04</totfact>
</mgrwt>
</event>
<event>
 8    1  0.9175398E-006  0.3148517E+03  0.7546771E-02  0.1078043E+00
         21   -1    0    0  504  503  0.00000000000E+00  0.00000000000E+00  0.11774494622E+03  0.11774494622E+03  0.00000000000E+00 0.  1.
         21   -1    0    0  503  504 -0.00000000000E+00 -0.00000000000E+00 -0.21047953707E+03  0.21047953707E+03  0.00000000000E+00 0.  1.
         25    2    1    2    0    0  0.21505336852E+02  0.58060696957E+00 -0.14358038587E+03  0.19157891551E+03  0.12499734815E+03 0.  0.
         25    2    1    2    0    0 -0.21505336852E+02 -0.58060696957E+00  0.50845795019E+02  0.13664556778E+03  0.12499559874E+03 0.  0.
          5    1    3    3  501    0  0.69057348326E+02  0.13013521964E+01 -0.46567244760E+02  0.83433860991E+02  0.47000000000E+01 0.  1.
         -5    1    3    3    0  501 -0.47552011474E+02 -0.72074522681E+00 -0.97013141107E+02  0.10814505452E+03  0.47000000000E+01 0.  1.
          5    1    4    4  502    0 -0.15064081248E+02 -0.43798542505E+02  0.73652951908E+02  0.87132578260E+02  0.47000000000E+01 0.  1.
         -5    1    4    4    0  502 -0.64412556038E+01  0.43217935536E+02 -0.22807156890E+02  0.49512989519E+02  0.47000000000E+01 0.  1.
<mgrwt>
<rscale>  0 0.31485172E+03</rscale>
<asrwt>0</asrwt>
<pdfrwt beam="1">  1       21 0.18114607E-01 0.31485172E+03</pdfrwt>
<pdfrwt beam="2">  1       21 0.32381467E-01 0.31485172E+03</pdfrwt>
<totfact> 0.24717943E+05</totfact>
</mgrwt>
</event>
<event>
 8    1  0.9175398E-006  0.7640738E+03  0.7546771E-02  0.9613526E-01
         21   -1    0    0  504  503  0.00000000000E+00  0.00000000000E+00  0.66829425659E+03  0.66829425659E+03  0.00000000000E+00 0.  1.
         21   -1    0    0  503  504 -0.00000000000E+00 -0.00000000000E+00 -0.21839508762E+03  0.21839508762E+03  0.00000000000E+00 0.  1.
         25    2    1    2    0    0  0.94379261463E+02  0.23078842022E+03 -0.78012520406E+02  0.28962296771E+03  0.12499908071E+03 0.  0.
         25    2    1    2    0    0 -0.94379261463E+02 -0.23078842022E+03  0.52791168938E+03  0.59706637650E+03  0.12500706486E+03 0.  0.
          5    1    3    3  501    0  0.11438883385E+03  0.16272838776E+03 -0.88494626438E+02  0.21775840375E+03  0.47000000000E+01 0. -1.
         -5    1    3    3    0  501 -0.20009572392E+02  0.68060032465E+02  0.10482106032E+02  0.71864563961E+02  0.47000000000E+01 0. -1.
          5    1    4    4  502    0 -0.12149275742E+02 -0.18192398504E+03  0.36669149924E+03  0.40954692875E+03  0.47000000000E+01 0.  1.
         -5    1    4    4    0  502 -0.82229985721E+02 -0.48864435186E+02  0.16122019014E+03  0.18751944776E+03  0.47000000000E+01 0.  1.
<mgrwt>
<rscale>  0 0.76407377E+03</rscale>
<asrwt>0</asrwt>
<pdfrwt beam="1">  1       21 0.10281450E+00 0.76407377E+03</pdfrwt>
<pdfrwt beam="2">  1       21 0.33599245E-01 0.76407377E+03</pdfrwt>
<totfact> 0.53435829E+03</totfact>
</mgrwt>
</event>
<event>
 8    1  0.9175398E-006  0.2739309E+03  0.7546771E-02  0.1099051E+00
         21   -1    0    0  504  503  0.00000000000E+00  0.00000000000E+00  0.18657741139E+03  0.18657741139E+03  0.00000000000E+00 0. -1.
         21   -1    0    0  503  504 -0.00000000000E+00 -0.00000000000E+00 -0.10054561713E+03  0.10054561713E+03  0.00000000000E+00 0. -1.
         25    2    1    2    0    0  0.14214730939E+01  0.14045956077E+02 -0.13784969786E+02  0.12654196965E+03  0.12499414076E+03 0.  0.
         25    2    1    2    0    0 -0.14214730939E+01 -0.14045956077E+02  0.99816764047E+02  0.16058105886E+03  0.12499432232E+03 0.  0.
          5    1    3    3  501    0 -0.74562091043E+01  0.36429760102E+00 -0.68597109968E+02  0.69161992908E+02  0.47000000000E+01 0. -1.
         -5    1    3    3    0  501  0.88776821982E+01  0.13681658476E+02  0.54812140182E+02  0.57379976744E+02  0.47000000000E+01 0. -1.
          5    1    4    4  502    0 -0.42734085900E+02  0.33308424119E+02  0.17954232923E+02  0.57272137159E+02  0.47000000000E+01 0. -1.
         -5    1    4    4    0  502  0.41312612806E+02 -0.47354380195E+02  0.81862531125E+02  0.10330892170E+03  0.47000000000E+01 0. -1.
<mgrwt>
<rscale>  0 0.27393095E+03</rscale>
<asrwt>0</asrwt>
<pdfrwt beam="1">  1       21 0.28704217E-01 0.27393095E+03</pdfrwt>
<pdfrwt beam="2">  1       21 0.15468556E-01 0.27393095E+03</pdfrwt>
<totfact> 0.42352470E+05</totfact>
</mgrwt>
</event>
<event>
 8    1  0.9175398E-006  0.2998796E+03  0.7546771E-02  0.1085301E+00
         21   -1    0    0  504  503  0.00000000000E+00  0.00000000000E+00  0.13671369704E+02  0.13671369704E+02  0.00000000000E+00 0. -1.
         21   -1    0    0  503  504 -0.00000000000E+00 -0.00000000000E+00 -0.16444544923E+04  0.16444544923E+04  0.00000000000E+00 0. -1.
         25    2    1    2    0    0 -0.43314956437E+02 -0.46434584720E+02 -0.52149934622E+03  0.54001711247E+03  0.12499823018E+03 0.  0.
         25    2    1    2    0    0  0.43314956437E+02  0.46434584720E+02 -0.11092837763E+04  0.11181087495E+04  0.12499729252E+03 0.  0.
          5    1    3    3  501    0 -0.39184320934E+02  0.63684049765E+00 -0.46296174043E+03  0.46464123760E+03  0.47000000000E+01 0. -1.
         -5    1    3    3    0  501 -0.41306355031E+01 -0.47071425218E+02 -0.58537605782E+02  0.75375874870E+02  0.47000000000E+01 0. -1.
          5    1    4    4  502    0  0.35981749054E+02 -0.22828589521E+02 -0.79545922177E+03  0.79661364178E+03  0.47000000000E+01 0. -1.
         -5    1    4    4    0  502  0.73332073832E+01  0.69263174241E+02 -0.31382455457E+03  0.32149510772E+03  0.47000000000E+01 0. -1.
<mgrwt>
<rscale>  0 0.29987961E+03</rscale>
<asrwt>0</asrwt>
<pdfrwt beam="1">  1       21 0.21032867E-02 0.29987961E+03</pdfrwt>
<pdfrwt beam="2">  1       21 0.25299311E+00 0.29987961E+03</pdfrwt>
<totfact> 0.67842607E+04</totfact>
</mgrwt>
</event>
<event>
 8    1  0.9175398E-006  0.2604229E+03  0.7546771E-02  0.1106889E+00
         21   -1    0    0  504  503  0.00000000000E+00  0.00000000000E+00  0.29739021982E+02  0.29739021982E+02  0.00000000000E+00 0. -1.
         21   -1    0    0  503  504 -0.00000000000E+00 -0.00000000000E+00 -0.57012699410E+03  0.57012699410E+03  0.00000000000E+00 0. -1.
         25    2    1    2    0    0 -0.55477011336E+01  0.29359337134E+02 -0.22215799597E+03  0.25666309184E+03  0.12501607846E+03 0.  0.
         25    2    1    2    0    0  0.55477011336E+01 -0.29359337134E+02 -0.31822997615E+03  0.34320292425E+03  0.12500072731E+03 0.  0.
          5    1    3    3  501    0  0.24295645893E+02 -0.35058142578E+02 -0.14714315420E+03  0.15327279471E+03  0.47000000000E+01 0. -1.
         -5    1    3    3    0  501 -0.29843347027E+02  0.64417479712E+02 -0.75014841771E+02  0.10339029713E+03  0.47000000000E+01 0. -1.
          5    1    4    4  502    0  0.31248545644E+02  0.25461827037E+02 -0.35167631254E+02  0.53699427641E+02  0.47000000000E+01 0.  1.
         -5    1    4    4    0  502 -0.25700844510E+02 -0.54821164171E+02 -0.28306234490E+03  0.28950349661E+03  0.47000000000E+01 0.  1.
<mgrwt>
<rscale>  0 0.26042288E+03</rscale>
<asrwt>0</asrwt>
<pdfrwt beam="1">  1       21 0.45752340E-02 0.26042288E+03</pdfrwt>
<pdfrwt beam="2">  1       21 0.87711848E-01 0.26042288E+03</pdfrwt>
<totfact> 0.34242517E+05</totfact>
</mgrwt>
</event>
<event>
 8    1  0.9175398E-006  0.2776094E+03  0.7546771E-02  0.1097002E+00
         21   -1    0    0  504  503  0.00000000000E+00  0.00000000000E+00  0.10265324803E+04  0.10265324803E+04  0.00000000000E+00 0.  1.
         21   -1    0    0  503  504 -0.00000000000E+00 -0.00000000000E+00 -0.18768769059E+02  0.18768769059E+02  0.00000000000E+00 0.  1.
         25    2    1    2    0    0  0.65927128021E+01  0.36544905794E+02  0.32470672027E+03  0.34990956803E+03  0.12499303023E+03 0.  0.
         25    2    1    2    0    0 -0.65927128021E+01 -0.36544905794E+02  0.68305699102E+03  0.69539168138E+03  0.12499497411E+03 0.  0.
          5    1    3    3  501    0 -0.95845399576E+01  0.81597870005E+02  0.20491984995E+03  0.22082642664E+03  0.47000000000E+01 0.  1.
         -5    1    3    3    0  501  0.16177252760E+02 -0.45052964211E+02  0.11978687032E+03  0.12908314139E+03  0.47000000000E+01 0.  1.
          5    1    4    4  502    0  0.35027514165E+02 -0.46650736382E+02  0.58940470373E+03  0.59230331143E+03  0.47000000000E+01 0. -1.
         -5    1    4    4    0  502 -0.41620226967E+02  0.10105830588E+02  0.93652287293E+02  0.10308836995E+03  0.47000000000E+01 0. -1.
<mgrwt>
<rscale>  0 0.27760945E+03</rscale>
<asrwt>0</asrwt>
<pdfrwt beam="1">  1       21 0.15792803E+00 0.27760945E+03</pdfrwt>
<pdfrwt beam="2">  1       21 0.28875037E-02 0.27760945E+03</pdfrwt>
<totfact> 0.16999904E+05</totfact>
</mgrwt>
</event>
<event>
 8    1  0.9175398E-006  0.2551353E+03  0.7546771E-02  0.1110102E+00
         21   -1    0    0  504  503  0.00000000000E+00  0.00000000000E+00  0.71228742632E+02  0.71228742632E+02  0.00000000000E+00 0.  1.
         21   -1    0    0  503  504 -0.00000000000E+00 -0.00000000000E+00 -0.22846829601E+03  0.22846829601E+03  0.00000000000E+00 0.  1.
         25    2    1    2    0    0 -0.30830832683E+01 -0.23215844355E+02 -0.90483159879E+02  0.15608008884E+03  0.12500124431E+03 0.  0.
         25    2    1    2    0    0  0.30830832683E+01  0.23215844355E+02 -0.66756393503E+02  0.14361694980E+03  0.12498372440E+03 0.  0.
          5    1    3    3  501    0 -0.48559986315E+02 -0.53401198291E+02 -0.49112364508E+02  0.87429254814E+02  0.47000000000E+01 0.  1.
         -5    1    3    3    0  501  0.45476903046E+02  0.30185353936E+02 -0.41370795372E+02  0.68650834027E+02  0.47000000000E+01 0.  1.
          5    1    4    4  502    0  0.16283936992E+02  0.74410581472E+01  0.35055149728E+02  0.39642016507E+02  0.47000000000E+01 0.  1.
         -5    1    4    4    0  502 -0.13200853723E+02  0.15774786208E+02 -0.10181154323E+03  0.10397493330E+03  0.47000000000E+01 0.  1.
<mgrwt>
<rscale>  0 0.25513533E+03</rscale>
<asrwt>0</asrwt>
<pdfrwt beam="1">  1       21 0.10958268E-01 0.25513533E+03</pdfrwt>
<pdfrwt beam="2">  1       21 0.35148968E-01 0.25513533E+03</pdfrwt>
<totfact> 0.53204698E+05</totfact>
</mgrwt>
</event>
<event>
 8    1  0.9175398E-006  0.2852951E+03  0.7546771E-02  0.1092831E+00
         21   -1    0    0  504  503  0.00000000000E+00  0.00000000000E+00  0.25926076901E+03  0.25926076901E+03  0.00000000000E+00 0. -1.
         21   -1    0    0  503  504 -0.00000000000E+00 -0.00000000000E+00 -0.78485959940E+02  0.78485959940E+02  0.00000000000E+00 0. -1.
         25    2    1    2    0    0 -0.17414330835E+02  0.14429562215E+02  0.13546963107E+02  0.12774633437E+03  0.12499653816E+03 0.  0.
         25    2    1    2    0    0  0.17414330835E+02 -0.14429562215E+02  0.16722784596E+03  0.21000039458E+03  0.12499416817E+03 0.  0.
          5    1    3    3  501    0 -0.67248725739E+02 -0.13640754030E+02  0.14758130379E+02  0.70344535653E+02  0.47000000000E+01 0. -1.
         -5    1    3    3    0  501  0.49834394903E+02  0.28070316245E+02 -0.12111672722E+01  0.57401798714E+02  0.47000000000E+01 0. -1.
          5    1    4    4  502    0 -0.14071873692E+02  0.84479315826E+01  0.16985398299E+03  0.17070984364E+03  0.47000000000E+01 0.  1.
         -5    1    4    4    0  502  0.31486204527E+02 -0.22877493798E+02 -0.26261370258E+01  0.39290550946E+02  0.47000000000E+01 0.  1.
<mgrwt>
<rscale>  0 0.28529515E+03</rscale>
<asrwt>0</asrwt>
<pdfrwt beam="1">  1       21 0.39886272E-01 0.28529515E+03</pdfrwt>
<pdfrwt beam="2">  1       21 0.12074763E-01 0.28529515E+03</pdfrwt>
<totfact> 0.34435039E+05</totfact>
</mgrwt>
</event>
<event>
 8    1  0.9175398E-006  0.3264694E+03  0.7546771E-02  0.1072710E+00
         21   -1    0    0  504  503  0.00000000000E+00  0.00000000000E+00  0.50668812495E+02  0.50668812495E+02  0.00000000000E+00 0.  1.
         21   -1    0    0  503  504 -0.00000000000E+00 -0.00000000000E+00 -0.52587697399E+03  0.52587697399E+03  0.00000000000E+00 0.  1.
         25    2    1    2    0    0  0.73260313244E+02 -0.45801447709E+02 -0.34293651659E+03  0.37509236795E+03  0.12499593583E+03 0.  0.
         25    2    1    2    0    0 -0.73260313244E+02  0.45801447709E+02 -0.13227164491E+03  0.20145341853E+03  0.12499138244E+03 0.  0.
          5    1    3    3  501    0  0.70422336666E+02 -0.31525239571E+02 -0.78347637788E+02  0.11006174893E+03  0.47000000000E+01 0. -1.
         -5    1    3    3    0  501  0.28379765781E+01 -0.14276208138E+02 -0.26458887881E+03  0.26503061902E+03  0.47000000000E+01 0. -1.
          5    1    4    4  502    0 -0.64706531392E+02 -0.11236563572E+02 -0.10558046171E+02  0.66684015361E+02  0.47000000000E+01 0. -1.
         -5    1    4    4    0  502 -0.85537818521E+01  0.57038011281E+02 -0.12171359873E+03  0.13476940317E+03  0.47000000000E+01 0. -1.
<mgrwt>
<rscale>  0 0.32646937E+03</rscale>
<asrwt>0</asrwt>
<pdfrwt beam="1">  1       21 0.77952021E-02 0.32646937E+03</pdfrwt>
<pdfrwt beam="2">  1       21 0.80904148E-01 0.32646937E+03</pdfrwt>
<totfact> 0.16186843E+05</totfact>
</mgrwt>
</event>
<event>
 8    1  0.9175398E-006  0.3094100E+03  0.7546771E-02  0.1080629E+00
         21   -1    0    0  504  503  0.00000000000E+00  0.00000000000E+00  0.34730976934E+02  0.34730976934E+02  0.00000000000E+00 0. -1.
         21   -1    0    0  503  504 -0.00000000000E+00 -0.00000000000E+00 -0.68911479122E+03  0.68911479122E+03  0.00000000000E+00 0. -1.
         25    2    1    2    0    0 -0.35505501690E+02 -0.76083462337E+02 -0.24412961953E+03  0.28683048730E+03  0.12499249348E+03 0.  0.
         25    2    1    2    0    0  0.35505501690E+02  0.76083462337E+02 -0.41025419476E+03  0.43701528085E+03  0.12499806994E+03 0.  0.
          5    1    3    3  501    0 -0.45671516910E+01 -0.91747020175E+02 -0.89672247957E+02  0.12845846270E+03  0.47000000000E+01 0. -1.
         -5    1    3    3    0  501 -0.30938349999E+02  0.15663557838E+02 -0.15445737157E+03  0.15837202460E+03  0.47000000000E+01 0. -1.
          5    1    4    4  502    0  0.65801499567E+02  0.45591735388E+02 -0.12505838203E+03  0.14856019857E+03  0.47000000000E+01 0. -1.
         -5    1    4    4    0  502 -0.30295997877E+02  0.30491726948E+02 -0.28519581272E+03  0.28845508228E+03  0.47000000000E+01 0. -1.
<mgrwt>
<rscale>  0 0.30940995E+03</rscale>
<asrwt>0</asrwt>
<pdfrwt beam="1">  1       21 0.53432281E-02 0.30940995E+03</pdfrwt>
<pdfrwt beam="2">  1       21 0.10601764E+00 0.30940995E+03</pdfrwt>
<totfact> 0.16533927E+05</totfact>
</mgrwt>
</event>
<event>
 8    1  0.9175398E-006  0.3840429E+03  0.7546771E-02  0.1049450E+00
         21   -1    0    0  504  503  0.00000000000E+00  0.00000000000E+00  0.33680246565E+03  0.33680246565E+03  0.00000000000E+00 0. -1.
         21   -1    0    0  503  504 -0.00000000000E+00 -0.00000000000E+00 -0.10947732758E+03  0.10947732758E+03  0.00000000000E+00 0. -1.
         25    2    1    2    0    0 -0.82979948161E+00 -0.54143463099E+01 -0.55605813931E+02  0.13691819277E+03  0.12499832501E+03 0.  0.
         25    2    1    2    0    0  0.82979948161E+00  0.54143463099E+01  0.28293095200E+03  0.30936160047E+03  0.12499869011E+03 0.  0.
          5    1    3    3  501    0  0.18871523720E+02  0.34190265411E+02  0.23747583814E+02  0.45947213119E+02  0.47000000000E+01 0. -1.
         -5    1    3    3    0  501 -0.19701323202E+02 -0.39604611721E+02 -0.79353397745E+02  0.90970979654E+02  0.47000000000E+01 0. -1.
          5    1    4    4  502    0  0.28870006974E+02 -0.53801500444E+01  0.27673088244E+03  0.27832444128E+03  0.47000000000E+01 0.  1.
         -5    1    4    4    0  502 -0.28040207492E+02  0.10794496354E+02  0.62000695575E+01  0.31037159185E+02  0.47000000000E+01 0.  1.
<mgrwt>
<rscale>  0 0.38404288E+03</rscale>
<asrwt>0</asrwt>
<pdfrwt beam="1">  1       21 0.51815763E-01 0.38404288E+03</pdfrwt>
<pdfrwt beam="2">  1       21 0.16842666E-01 0.38404288E+03</pdfrwt>
<totfact> 0.10615874E+05</totfact>
</mgrwt>
</event>
<event>
 8    1  0.9175398E-006  0.3223097E+03  0.7546771E-02  0.1074591E+00
         21   -1    0    0  504  503  0.00000000000E+00  0.00000000000E+00  0.21240621449E+03  0.21240621449E+03  0.00000000000E+00 0.  1.
         21   -1    0    0  503  504 -0.00000000000E+00 -0.00000000000E+00 -0.12226985810E+03  0.12226985810E+03  0.00000000000E+00 0.  1.
         25    2    1    2    0    0 -0.87520925381E+02  0.51799398980E+02  0.42949516493E+02  0.16677589639E+03  0.12500579400E+03 0.  0.
         25    2    1    2    0    0  0.87520925381E+02 -0.51799398980E+02  0.47186839900E+02  0.16790017620E+03  0.12498312364E+03 0.  0.
          5    1    3    3  501    0 -0.84446592347E+02  0.76713523237E+02  0.66413074982E+02  0.13209458026E+03  0.47000000000E+01 0.  1.
         -5    1    3    3    0  501 -0.30743330338E+01 -0.24914124256E+02 -0.23463558489E+02  0.34681316123E+02  0.47000000000E+01 0.  1.
          5    1    4    4  502    0  0.32276076767E+02 -0.17899816652E+02 -0.42921428111E+02  0.56802179173E+02  0.47000000000E+01 0.  1.
         -5    1    4    4    0  502  0.55244848614E+02 -0.33899582328E+02  0.90108268012E+02  0.11109799703E+03  0.47000000000E+01 0.  1.
<mgrwt>
<rscale>  0 0.32230965E+03</rscale>
<asrwt>0</asrwt>
<pdfrwt beam="1">  1       21 0.32677879E-01 0.32230965E+03</pdfrwt>
<pdfrwt beam="2">  1       21 0.18810747E-01 0.32230965E+03</pdfrwt>
<totfact> 0.22583526E+05</totfact>
</mgrwt>
</event>
<event>
 8    1  0.9175398E-006  0.3977707E+03  0.7546771E-02  0.1044554E+00
         21   -1    0    0  504  503  0.00000000000E+00  0.00000000000E+00  0.47686197797E+02  0.47686197797E+02  0.00000000000E+00 0.  1.
         21   -1    0    0  503  504 -0.00000000000E+00 -0.00000000000E+00 -0.82949322723E+03  0.82949322723E+03  0.00000000000E+00 0.  1.
         25    2    1    2    0    0  0.39499382443E+02 -0.33596142201E+02 -0.69500025203E+02  0.15213237229E+03  0.12500041284E+03 0.  0.
         25    2    1    2    0    0 -0.39499382443E+02  0.33596142201E+02 -0.71230700423E+03  0.72504705274E+03  0.12499223345E+03 0.  0.
          5    1    3    3  501    0  0.83553774875E+02 -0.34891933829E+02 -0.51664619048E+02  0.10435517814E+03  0.47000000000E+01 0.  1.
         -5    1    3    3    0  501 -0.44054392432E+02  0.12957916277E+01 -0.17835406155E+02  0.47777194154E+02  0.47000000000E+01 0.  1.
          5    1    4    4  502    0 -0.74551942228E+02 -0.32486554979E+00 -0.27369671412E+03  0.28370773508E+03  0.47000000000E+01 0.  1.
         -5    1    4    4    0  502  0.35052559785E+02  0.33921007751E+02 -0.43861029012E+03  0.44133931766E+03  0.47000000000E+01 0.  1.
<mgrwt>
<rscale>  0 0.39777068E+03</rscale>
<asrwt>0</asrwt>
<pdfrwt beam="1">  1       21 0.73363386E-02 0.39777068E+03</pdfrwt>
<pdfrwt beam="2">  1       21 0.12761433E+00 0.39777068E+03</pdfrwt>
<totfact> 0.58561267E+04</totfact>
</mgrwt>
</event>
<event>
 8    1  0.9175398E-006  0.4384961E+03  0.7546771E-02  0.1031209E+00
         21   -1    0    0  504  503  0.00000000000E+00  0.00000000000E+00  0.46157169486E+03  0.46157169486E+03  0.00000000000E+00 0. -1.
         21   -1    0    0  503  504 -0.00000000000E+00 -0.00000000000E+00 -0.10414351220E+03  0.10414351220E+03  0.00000000000E+00 0. -1.
         25    2    1    2    0    0  0.16243623119E+01  0.17297815923E+03  0.11393574961E+03  0.24193002760E+03  0.12499880436E+03 0.  0.
         25    2    1    2    0    0 -0.16243623119E+01 -0.17297815923E+03  0.24349243305E+03  0.32378517946E+03  0.12499678140E+03 0.  0.
          5    1    3    3  501    0  0.24151029252E+02  0.81238550268E+02  0.12019000973E+03  0.14714177756E+03  0.47000000000E+01 0.  1.
         -5    1    3    3    0  501 -0.22526666940E+02  0.91739608962E+02 -0.62542601220E+01  0.94788250040E+02  0.47000000000E+01 0.  1.
          5    1    4    4  502    0 -0.29509050793E+02 -0.18158580178E+02  0.13502755202E+01  0.34991875582E+02  0.47000000000E+01 0.  1.
         -5    1    4    4    0  502  0.27884688481E+02 -0.15481957905E+03  0.24214215753E+03  0.28879330388E+03  0.47000000000E+01 0.  1.
<mgrwt>
<rscale>  0 0.43849605E+03</rscale>
<asrwt>0</asrwt>
<pdfrwt beam="1">  1       21 0.71011029E-01 0.43849605E+03</pdfrwt>
<pdfrwt beam="2">  1       21 0.16022079E-01 0.43849605E+03</pdfrwt>
<totfact> 0.57719044E+04</totfact>
</mgrwt>
</event>
<event>
 8    1  0.9175398E-006  0.3090654E+03  0.7546771E-02  0.1080795E+00
         21   -1    0    0  504  503  0.00000000000E+00  0.00000000000E+00  0.63974153200E+03  0.63974153200E+03  0.00000000000E+00 0. -1.
         21   -1    0    0  503  504 -0.00000000000E+00 -0.00000000000E+00 -0.37328123284E+02  0.37328123284E+02  0.00000000000E+00 0. -1.
         25    2    1    2    0    0 -0.13554518253E+02  0.66299390163E+02  0.43399128937E+03  0.45667476207E+03  0.12499625976E+03 0.  0.
         25    2    1    2    0    0  0.13554518253E+02 -0.66299390163E+02  0.16842211934E+03  0.22039489322E+03  0.12501425748E+03 0.  0.
          5    1    3    3  501    0 -0.14076247814E+02 -0.28625389973E+02  0.39976503002E+02  0.51359171488E+02  0.47000000000E+01 0.  1.
         -5    1    3    3    0  501  0.52172956158E+00  0.94924780136E+02  0.39401478637E+03  0.40531559058E+03  0.47000000000E+01 0.  1.
          5    1    4    4  502    0 -0.20097988479E+02 -0.37381501641E+02 -0.34359071542E+01  0.42839249104E+02  0.47000000000E+01 0. -1.
         -5    1    4    4    0  502  0.33652506732E+02 -0.28917888522E+02  0.17185802650E+03  0.17755564411E+03  0.47000000000E+01 0. -1.
<mgrwt>
<rscale>  0 0.30906537E+03</rscale>
<asrwt>0</asrwt>
<pdfrwt beam="1">  1       21 0.98421766E-01 0.30906537E+03</pdfrwt>
<pdfrwt beam="2">  1       21 0.57427887E-02 0.30906537E+03</pdfrwt>
<totfact> 0.17482916E+05</totfact>
</mgrwt>
</event>
<event>
 8    1  0.9175398E-006  0.2668397E+03  0.7546771E-02  0.1103102E+00
         21   -1    0    0  504  503  0.00000000000E+00  0.00000000000E+00  0.30533949585E+02  0.30533949585E+02  0.00000000000E+00 0.  1.
         21   -1    0    0  503  504 -0.00000000000E+00 -0.00000000000E+00 -0.58298587846E+03  0.58298587846E+03  0.00000000000E+00 0.  1.
         25    2    1    2    0    0 -0.73155741151E+01  0.12003735980E+02 -0.17412651004E+03  0.21481605877E+03  0.12501316053E+03 0.  0.
         25    2    1    2    0    0  0.73155741151E+01 -0.12003735980E+02 -0.37832541884E+03  0.39870376928E+03  0.12504785401E+03 0.  0.
          5    1    3    3  501    0  0.19850383592E+02 -0.13413947574E+02 -0.17559953752E+03  0.17728863273E+03  0.47000000000E+01 0. -1.
         -5    1    3    3    0  501 -0.27165957707E+02  0.25417683554E+02  0.14730274796E+01  0.37527426042E+02  0.47000000000E+01 0. -1.
          5    1    4    4  502    0  0.43346523693E+02 -0.10777002139E+02 -0.45621797087E+02  0.64019553738E+02  0.47000000000E+01 0.  1.
         -5    1    4    4    0  502 -0.36030949578E+02 -0.12267338404E+01 -0.33270362175E+03  0.33468421554E+03  0.47000000000E+01 0.  1.
<mgrwt>
<rscale>  0 0.26683974E+03</rscale>
<asrwt>0</asrwt>
<pdfrwt beam="1">  1       21 0.46975306E-02 0.26683974E+03</pdfrwt>
<pdfrwt beam="2">  1       21 0.89690137E-01 0.26683974E+03</pdfrwt>
<totfact> 0.31037361E+05</totfact>
</mgrwt>
</event>
<event>
 8    1  0.9175398E-006  0.3402377E+03  0.7546771E-02  0.1066695E+00
         21   -1    0    0  504  503  0.00000000000E+00  0.00000000000E+00  0.12443240439E+03  0.12443240439E+03  0.00000000000E+00 0.  1.
         21   -1    0    0  503  504 -0.00000000000E+00 -0.00000000000E+00 -0.23257949776E+03  0.23257949776E+03  0.00000000000E+00 0.  1.
         25    2    1    2    0    0  0.11162268623E+03 -0.22658064933E+02 -0.73482439140E+02  0.18438591762E+03  0.12500194305E+03 0.  0.
         25    2    1    2    0    0 -0.11162268623E+03  0.22658064933E+02 -0.34664654231E+02  0.17262598452E+03  0.12500032116E+03 0.  0.
          5    1    3    3  501    0  0.33019967528E+02  0.21096135003E+02 -0.84859697826E+02  0.93587517772E+02  0.47000000000E+01 0.  1.
         -5    1    3    3    0  501  0.78602718707E+02 -0.43754199935E+02  0.11377258686E+02  0.90798399850E+02  0.47000000000E+01 0.  1.
          5    1    4    4  502    0 -0.71552799202E+02  0.62442831997E+02 -0.57966455343E+02  0.11136027248E+03  0.47000000000E+01 0.  1.
         -5    1    4    4    0  502 -0.40069887032E+02 -0.39784767065E+02  0.23301801113E+02  0.61265712044E+02  0.47000000000E+01 0.  1.
<mgrwt>
<rscale>  0 0.34023772E+03</rscale>
<asrwt>0</asrwt>
<pdfrwt beam="1">  1       21 0.19143447E-01 0.34023772E+03</pdfrwt>
<pdfrwt beam="2">  1       21 0.35781461E-01 0.34023772E+03</pdfrwt>
<totfact> 0.18151025E+05</totfact>
</mgrwt>
</event>
<event>
 8    1  0.9175398E-006  0.3476689E+03  0.7546771E-02  0.1063576E+00
         21   -1    0    0  504  503  0.00000000000E+00  0.00000000000E+00  0.16460491686E+03  0.16460491686E+03  0.00000000000E+00 0.  1.
         21   -1    0    0  503  504 -0.00000000000E+00 -0.00000000000E+00 -0.18358152519E+03  0.18358152519E+03  0.00000000000E+00 0.  1.
         25    2    1    2    0    0  0.75919270339E+02  0.25631190212E+02 -0.10002533456E+03  0.17902771412E+03  0.12500064539E+03 0.  0.
         25    2    1    2    0    0 -0.75919270339E+02 -0.25631190212E+02  0.81048726231E+02  0.16915872793E+03  0.12500034276E+03 0.  0.
          5    1    3    3  501    0  0.39668343784E+02 -0.49928385481E+02 -0.51268553652E+02  0.81957158131E+02  0.47000000000E+01 0. -1.
         -5    1    3    3    0  501  0.36250926555E+02  0.75559575693E+02 -0.48756780910E+02  0.97070555987E+02  0.47000000000E+01 0. -1.
          5    1    4    4  502    0  0.59714212627E+01  0.15167860950E+02 -0.24244139865E+02  0.29590373358E+02  0.47000000000E+01 0.  1.
         -5    1    4    4    0  502 -0.81890691602E+02 -0.40799051162E+02  0.10529286610E+03  0.13956835457E+03  0.47000000000E+01 0.  1.
<mgrwt>
<rscale>  0 0.34766893E+03</rscale>
<asrwt>0</asrwt>
<pdfrwt beam="1">  1       21 0.25323833E-01 0.34766893E+03</pdfrwt>
<pdfrwt beam="2">  1       21 0.28243311E-01 0.34766893E+03</pdfrwt>
<totfact> 0.17000379E+05</totfact>
</mgrwt>
</event>
<event>
 8    1  0.9175398E-006  0.2726879E+03  0.7546771E-02  0.1099751E+00
         21   -1    0    0  504  503  0.00000000000E+00  0.00000000000E+00  0.65199925349E+03  0.65199925349E+03  0.00000000000E+00 0.  1.
         21   -1    0    0  503  504 -0.00000000000E+00 -0.00000000000E+00 -0.28511808872E+02  0.28511808872E+02  0.00000000000E+00 0.  1.
         25    2    1    2    0    0  0.46846061878E+02 -0.27752701802E+02  0.30974561636E+03  0.33842525634E+03  0.12499816521E+03 0.  0.
         25    2    1    2    0    0 -0.46846061878E+02  0.27752701802E+02  0.31374182826E+03  0.34208580602E+03  0.12499599158E+03 0.  0.
          5    1    3    3  501    0  0.51227617510E+02 -0.56430411706E+02  0.29652633473E+03  0.30620028959E+03  0.47000000000E+01 0.  1.
         -5    1    3    3    0  501 -0.43815556315E+01  0.28677709904E+02  0.13219281634E+02  0.32224966750E+02  0.47000000000E+01 0.  1.
          5    1    4    4  502    0 -0.13546403307E+02 -0.13795942775E+02 -0.36452807612E+01  0.20228968126E+02  0.47000000000E+01 0. -1.
         -5    1    4    4    0  502 -0.33299658572E+02  0.41548644578E+02  0.31738710902E+03  0.32185683790E+03  0.47000000000E+01 0. -1.
<mgrwt>
<rscale>  0 0.27268794E+03</rscale>
<asrwt>0</asrwt>
<pdfrwt beam="1">  1       21 0.10030757E+00 0.27268794E+03</pdfrwt>
<pdfrwt beam="2">  1       21 0.43864326E-02 0.27268794E+03</pdfrwt>
<totfact> 0.26729747E+05</totfact>
</mgrwt>
</event>
<event>
 8    1  0.9175398E-006  0.3207454E+03  0.7546771E-02  0.1075307E+00
         21   -1    0    0  504  503  0.00000000000E+00  0.00000000000E+00  0.41457857898E+02  0.41457857898E+02  0.00000000000E+00 0.  1.
         21   -1    0    0  503  504 -0.00000000000E+00 -0.00000000000E+00 -0.62037451626E+03  0.62037451626E+03  0.00000000000E+00 0.  1.
         25    2    1    2    0    0  0.85979080298E+02  0.44818669436E+02 -0.23514636730E+03  0.28340693098E+03  0.12499823635E+03 0.  0.
         25    2    1    2    0    0 -0.85979080298E+02 -0.44818669436E+02 -0.34377029106E+03  0.37842544318E+03  0.12500675043E+03 0.  0.
          5    1    3    3  501    0 -0.22729329260E+02  0.30394340077E+00 -0.32846386228E+01  0.23443413597E+02  0.47000000000E+01 0. -1.
         -5    1    3    3    0  501  0.10870840956E+03  0.44514726036E+02 -0.23186172868E+03  0.25996351738E+03  0.47000000000E+01 0. -1.
          5    1    4    4  502    0 -0.48604648751E+02  0.40042247828E+02 -0.10913944134E+03  0.12609243097E+03  0.47000000000E+01 0. -1.
         -5    1    4    4    0  502 -0.37374431547E+02 -0.84860917264E+02 -0.23463084973E+03  0.25233301222E+03  0.47000000000E+01 0. -1.
<mgrwt>
<rscale>  0 0.32074537E+03</rscale>
<asrwt>0</asrwt>
<pdfrwt beam="1">  1       21 0.63781326E-02 0.32074537E+03</pdfrwt>
<pdfrwt beam="2">  1       21 0.95442224E-01 0.32074537E+03</pdfrwt>
<totfact> 0.15642948E+05</totfact>
</mgrwt>
</event>
<event>
 8    1  0.9175398E-006  0.2719691E+03  0.7546771E-02  0.1100158E+00
         21   -1    0    0  504  503  0.00000000000E+00  0.00000000000E+00  0.27576912738E+03  0.27576912738E+03  0.00000000000E+00 0.  1.
         21   -1    0    0  503  504 -0.00000000000E+00 -0.00000000000E+00 -0.67055344930E+02  0.67055344930E+02  0.00000000000E+00 0.  1.
         25    2    1    2    0    0  0.38336091345E+02 -0.37343059623E+02  0.10631036911E+03  0.17259884196E+03  0.12499722263E+03 0.  0.
         25    2    1    2    0    0 -0.38336091345E+02  0.37343059623E+02  0.10240341335E+03  0.17022563035E+03  0.12500458457E+03 0.  0.
          5    1    3    3  501    0  0.80208332449E+02 -0.41964118440E+01  0.49385193811E+02  0.94403251185E+02  0.47000000000E+01 0. -1.
         -5    1    3    3    0  501 -0.41872241103E+02 -0.33146647779E+02  0.56925175297E+02  0.78195590775E+02  0.47000000000E+01 0. -1.
          5    1    4    4  502    0  0.83161774030E+01  0.12902099384E+02 -0.26452533991E+02  0.30942681358E+02  0.47000000000E+01 0.  1.
         -5    1    4    4    0  502 -0.46652268748E+02  0.24440960239E+02  0.12885594734E+03  0.13928294900E+03  0.47000000000E+01 0.  1.
<mgrwt>
<rscale>  0 0.27196907E+03</rscale>
<asrwt>0</asrwt>
<pdfrwt beam="1">  1       21 0.42426019E-01 0.27196907E+03</pdfrwt>
<pdfrwt beam="2">  1       21 0.10316207E-01 0.27196907E+03</pdfrwt>
<totfact> 0.40357607E+05</totfact>
</mgrwt>
</event>
<event>
 8    1  0.9175398E-006  0.2958805E+03  0.7546771E-02  0.1087318E+00
         21   -1    0    0  504  503  0.00000000000E+00  0.00000000000E+00  0.50163659531E+02  0.50163659531E+02  0.00000000000E+00 0.  1.
         21   -1    0    0  503  504 -0.00000000000E+00 -0.00000000000E+00 -0.43629838567E+03  0.43629838567E+03  0.00000000000E+00 0.  1.
         25    2    1    2    0    0  0.28081112362E+02 -0.51096998595E+02 -0.28102225251E+03  0.31304643527E+03  0.12500044839E+03 0.  0.
         25    2    1    2    0    0 -0.28081112362E+02  0.51096998595E+02 -0.10511247364E+03  0.17341560993E+03  0.12499955806E+03 0.  0.
          5    1    3    3  501    0  0.35272492688E+02 -0.90421007314E+02 -0.18606844200E+03  0.20991346410E+03  0.47000000000E+01 0. -1.
         -5    1    3    3    0  501 -0.71913803259E+01  0.39324008718E+02 -0.94953810509E+02  0.10313297117E+03  0.47000000000E+01 0. -1.
          5    1    4    4  502    0  0.24238715098E+02  0.43747497008E+02  0.57061673318E+01  0.50556989128E+02  0.47000000000E+01 0. -1.
         -5    1    4    4    0  502 -0.52319827460E+02  0.73495015869E+01 -0.11081864097E+03  0.12285862080E+03  0.47000000000E+01 0. -1.
<mgrwt>
<rscale>  0 0.29588054E+03</rscale>
<asrwt>0</asrwt>
<pdfrwt beam="1">  1       21 0.77174861E-02 0.29588054E+03</pdfrwt>
<pdfrwt beam="2">  1       21 0.67122828E-01 0.29588054E+03</pdfrwt>
<totfact> 0.25268609E+05</totfact>
</mgrwt>
</event>
<event>
 8    1  0.9175398E-006  0.2550537E+03  0.7546771E-02  0.1110152E+00
         21   -1    0    0  504  503  0.00000000000E+00  0.00000000000E+00  0.36552941178E+02  0.36552941178E+02  0.00000000000E+00 0.  1.
         21   -1    0    0  503  504 -0.00000000000E+00 -0.00000000000E+00 -0.44491889676E+03  0.44491889676E+03  0.00000000000E+00 0.  1.
         25    2    1    2    0    0  0.49537069958E-01 -0.88577788015E+00 -0.25175900331E+03  0.28108618563E+03  0.12500424372E+03 0.  0.
         25    2    1    2    0    0 -0.49537069958E-01  0.88577788015E+00 -0.15660695228E+03  0.20038565231E+03  0.12501153985E+03 0.  0.
          5    1    3    3  501    0 -0.37051176395E+02 -0.42942117699E+02 -0.18610450890E+03  0.19461190452E+03  0.47000000000E+01 0.  1.
         -5    1    3    3    0  501  0.37100713465E+02  0.42056339818E+02 -0.65654494406E+02  0.86474281114E+02  0.47000000000E+01 0.  1.
          5    1    4    4  502    0 -0.59821367680E+02  0.10392707352E+02 -0.10166391852E+03  0.11850842470E+03  0.47000000000E+01 0. -1.
         -5    1    4    4    0  502  0.59771830610E+02 -0.95069294715E+01 -0.54943033760E+02  0.81877227611E+02  0.47000000000E+01 0. -1.
<mgrwt>
<rscale>  0 0.25505367E+03</rscale>
<asrwt>0</asrwt>
<pdfrwt beam="1">  1       21 0.56235295E-02 0.25505367E+03</pdfrwt>
<pdfrwt beam="2">  1       21 0.68449060E-01 0.25505367E+03</pdfrwt>
<totfact> 0.42267587E+05</totfact>
</mgrwt>
</event>
<event>
 8    1  0.9175398E-006  0.2599299E+03  0.7546771E-02  0.1107185E+00
         21   -1    0    0  504  503  0.00000000000E+00  0.00000000000E+00  0.15264150538E+03  0.15264150538E+03  0.00000000000E+00 0.  1.
         21   -1    0    0  503  504 -0.00000000000E+00 -0.00000000000E+00 -0.11065720572E+03  0.11065720572E+03  0.00000000000E+00 0.  1.
         25    2    1    2    0    0  0.51529443131E+01 -0.32378331585E+02  0.35006486973E+02  0.13388465552E+03  0.12499895064E+03 0.  0.
         25    2    1    2    0    0 -0.51529443131E+01  0.32378331585E+02  0.69778126811E+01  0.12941405558E+03  0.12499759486E+03 0.  0.
          5    1    3    3  501    0  0.11184530397E+02  0.33294056963E+01 -0.44579552610E+02  0.46320677601E+02  0.47000000000E+01 0. -1.
         -5    1    3    3    0  501 -0.60315860835E+01 -0.35707737281E+02  0.79586039584E+02  0.87563977919E+02  0.47000000000E+01 0. -1.
          5    1    4    4  502    0  0.56147428637E+02  0.20669164578E+01 -0.13304020864E+02  0.57930068681E+02  0.47000000000E+01 0. -1.
         -5    1    4    4    0  502 -0.61300372950E+02  0.30311415127E+02  0.20281833545E+02  0.71483986898E+02  0.47000000000E+01 0. -1.
<mgrwt>
<rscale>  0 0.25992986E+03</rscale>
<asrwt>0</asrwt>
<pdfrwt beam="1">  1       21 0.23483309E-01 0.25992986E+03</pdfrwt>
<pdfrwt beam="2">  1       21 0.17024185E-01 0.25992986E+03</pdfrwt>
<totfact> 0.52425622E+05</totfact>
</mgrwt>
</event>
<event>
 8    1  0.9175398E-006  0.3014534E+03  0.7546771E-02  0.1084516E+00
         21   -1    0    0  504  503  0.00000000000E+00  0.00000000000E+00  0.26315175389E+03  0.26315175389E+03  0.00000000000E+00 0. -1.
         21   -1    0    0  503  504 -0.00000000000E+00 -0.00000000000E+00 -0.86332475097E+02  0.86332475097E+02  0.00000000000E+00 0. -1.
         25    2    1    2    0    0 -0.71593087621E+02 -0.28094145124E+01  0.13974154142E+03  0.20071484007E+03  0.12500114247E+03 0.  0.
         25    2    1    2    0    0  0.71593087621E+02  0.28094145124E+01  0.37077737376E+02  0.14876938892E+03  0.12499643782E+03 0.  0.
          5    1    3    3  501    0 -0.64396336644E+02 -0.37065224606E+02  0.21766406391E+02  0.77566651955E+02  0.47000000000E+01 0. -1.
         -5    1    3    3    0  501 -0.71967509769E+01  0.34255810094E+02  0.11797513503E+03  0.12314818811E+03  0.47000000000E+01 0. -1.
          5    1    4    4  502    0  0.21371032432E+02 -0.40081795273E+02  0.62875815472E+02  0.77709262709E+02  0.47000000000E+01 0.  1.
         -5    1    4    4    0  502  0.50222055189E+02  0.42891209785E+02 -0.25798078096E+02  0.71060126215E+02  0.47000000000E+01 0.  1.
<mgrwt>
<rscale>  0 0.30145343E+03</rscale>
<asrwt>0</asrwt>
<pdfrwt beam="1">  1       21 0.40484885E-01 0.30145343E+03</pdfrwt>
<pdfrwt beam="2">  1       21 0.13281919E-01 0.30145343E+03</pdfrwt>
<totfact> 0.28012946E+05</totfact>
</mgrwt>
</event>
<event>
 8    1  0.9175398E-006  0.3456351E+03  0.7546771E-02  0.1064421E+00
         21   -1    0    0  504  503  0.00000000000E+00  0.00000000000E+00  0.89538238910E+03  0.89538238910E+03  0.00000000000E+00 0.  1.
         21   -1    0    0  503  504 -0.00000000000E+00 -0.00000000000E+00 -0.33355483541E+02  0.33355483541E+02  0.00000000000E+00 0.  1.
         25    2    1    2    0    0 -0.73044731732E+02 -0.59020779853E+02  0.62885793935E+03  0.64800455730E+03  0.12501445161E+03 0.  0.
         25    2    1    2    0    0  0.73044731732E+02  0.59020779853E+02  0.23316896620E+03  0.28073331534E+03  0.12499776898E+03 0.  0.
          5    1    3    3  501    0 -0.14858888382E+02 -0.89230292580E+02  0.35652372827E+03  0.36785063613E+03  0.47000000000E+01 0.  1.
         -5    1    3    3    0  501 -0.58185843351E+02  0.30209512726E+02  0.27233421108E+03  0.28015392118E+03  0.47000000000E+01 0.  1.
          5    1    4    4  502    0  0.52130869326E+01 -0.18261683206E+02  0.14165456312E+03  0.14299919790E+03  0.47000000000E+01 0.  1.
         -5    1    4    4    0  502  0.67831644800E+02  0.77282463059E+02  0.91514403085E+02  0.13773411743E+03  0.47000000000E+01 0.  1.
<mgrwt>
<rscale>  0 0.34563514E+03</rscale>
<asrwt>0</asrwt>
<pdfrwt beam="1">  1       21 0.13775112E+00 0.34563514E+03</pdfrwt>
<pdfrwt beam="2">  1       21 0.51316135E-02 0.34563514E+03</pdfrwt>
<totfact> 0.90696817E+04</totfact>
</mgrwt>
</event>
<event>
 8    1  0.9175398E-006  0.3814877E+03  0.7546771E-02  0.1050385E+00
         21   -1    0    0  504  503  0.00000000000E+00  0.00000000000E+00  0.23326988157E+02  0.23326988157E+02  0.00000000000E+00 0.  1.
         21   -1    0    0  503  504 -0.00000000000E+00 -0.00000000000E+00 -0.15597052382E+04  0.15597052382E+04  0.00000000000E+00 0.  1.
         25    2    1    2    0    0 -0.32490888806E+02  0.91461125884E+02 -0.12100484781E+04  0.12203535217E+04  0.12499841287E+03 0.  0.
         25    2    1    2    0    0  0.32490888806E+02 -0.91461125884E+02 -0.32632977200E+03  0.36267870469E+03  0.12499570929E+03 0.  0.
          5    1    3    3  501    0 -0.78838763469E+02  0.73177117687E+02 -0.77750311608E+03  0.78492268835E+03  0.47000000000E+01 0. -1.
         -5    1    3    3    0  501  0.46347874663E+02  0.18284008197E+02 -0.43254536200E+03  0.43543083334E+03  0.47000000000E+01 0. -1.
          5    1    4    4  502    0 -0.39976742833E+02  0.14819263004E+01 -0.80207100080E+02  0.89753022101E+02  0.47000000000E+01 0.  1.
         -5    1    4    4    0  502  0.72467631639E+02 -0.92943052184E+02 -0.24612267192E+03  0.27292568259E+03  0.47000000000E+01 0.  1.
<mgrwt>
<rscale>  0 0.38148775E+03</rscale>
<asrwt>0</asrwt>
<pdfrwt beam="1">  1       21 0.35887686E-02 0.38148775E+03</pdfrwt>
<pdfrwt beam="2">  1       21 0.23995457E+00 0.38148775E+03</pdfrwt>
<totfact> 0.32209924E+04</totfact>
</mgrwt>
</event>
<event>
 8    1  0.9175398E-006  0.3086929E+03  0.7546771E-02  0.1080974E+00
         21   -1    0    0  504  503  0.00000000000E+00  0.00000000000E+00  0.18085785778E+02  0.18085785778E+02  0.00000000000E+00 0. -1.
         21   -1    0    0  503  504 -0.00000000000E+00 -0.00000000000E+00 -0.13172128305E+04  0.13172128305E+04  0.00000000000E+00 0. -1.
         25    2    1    2    0    0 -0.14790254949E+02  0.24340096450E+02 -0.10211905690E+04  0.10292064233E+04  0.12499796627E+03 0.  0.
         25    2    1    2    0    0  0.14790254949E+02 -0.24340096450E+02 -0.27793647568E+03  0.30609219296E+03  0.12503021290E+03 0.  0.
          5    1    3    3  501    0  0.12110193385E+02  0.69991792038E+02 -0.70354671219E+03  0.70713900612E+03  0.47000000000E+01 0.  1.
         -5    1    3    3    0  501 -0.26900448334E+02 -0.45651695588E+02 -0.31764385682E+03  0.32206741717E+03  0.47000000000E+01 0.  1.
          5    1    4    4  502    0 -0.24195858099E+02 -0.37779095323E+02 -0.25442123012E+03  0.25838914824E+03  0.47000000000E+01 0.  1.
         -5    1    4    4    0  502  0.38986113048E+02  0.13438998873E+02 -0.23515245561E+02  0.47703044715E+02  0.47000000000E+01 0.  1.
<mgrwt>
<rscale>  0 0.30869292E+03</rscale>
<asrwt>0</asrwt>
<pdfrwt beam="1">  1       21 0.27824287E-02 0.30869292E+03</pdfrwt>
<pdfrwt beam="2">  1       21 0.20264812E+00 0.30869292E+03</pdfrwt>
<totfact> 0.87440962E+04</totfact>
</mgrwt>
</event>
<event>
 8    1  0.9175398E-006  0.6591007E+03  0.7546771E-02  0.9789851E-01
         21   -1    0    0  504  503  0.00000000000E+00  0.00000000000E+00  0.26418267660E+04  0.26418267660E+04  0.00000000000E+00 0.  1.
         21   -1    0    0  503  504 -0.00000000000E+00 -0.00000000000E+00 -0.41109213761E+02  0.41109213761E+02  0.00000000000E+00 0.  1.
         25    2    1    2    0    0 -0.28144434194E+03  0.11134835378E+03  0.14508760508E+04  0.14873733228E+04  0.12501485136E+03 0.  0.
         25    2    1    2    0    0  0.28144434194E+03 -0.11134835378E+03  0.11498415014E+04  0.11955626569E+04  0.12500085925E+03 0.  0.
          5    1    3    3  501    0 -0.40151003576E+02  0.62269804514E+02  0.48211984009E+03  0.48780248242E+03  0.47000000000E+01 0. -1.
         -5    1    3    3    0  501 -0.24129333836E+03  0.49078549269E+02  0.96875621074E+03  0.99957084040E+03  0.47000000000E+01 0. -1.
          5    1    4    4  502    0  0.16985619093E+03 -0.12220929269E+03  0.85060499650E+03  0.87597784612E+03  0.47000000000E+01 0. -1.
         -5    1    4    4    0  502  0.11158815100E+03  0.10860938908E+02  0.29923650486E+03  0.31958481078E+03  0.47000000000E+01 0. -1.
<mgrwt>
<rscale>  0 0.65910066E+03</rscale>
<asrwt>0</asrwt>
<pdfrwt beam="1">  1       21 0.40643475E+00 0.65910066E+03</pdfrwt>
<pdfrwt beam="2">  1       21 0.63244965E-02 0.65910066E+03</pdfrwt>
<totfact> 0.10175373E+03</totfact>
</mgrwt>
</event>
<event>
 8    1  0.9175398E-006  0.2739819E+03  0.7546771E-02  0.1099022E+00
         21   -1    0    0  504  503  0.00000000000E+00  0.00000000000E+00  0.66148280841E+02  0.66148280841E+02  0.00000000000E+00 0.  1.
         21   -1    0    0  503  504 -0.00000000000E+00 -0.00000000000E+00 -0.28370386153E+03  0.28370386153E+03  0.00000000000E+00 0.  1.
         25    2    1    2    0    0  0.51269625831E+02  0.12862983171E+02 -0.84960805645E+02  0.16011762393E+03  0.12500113651E+03 0.  0.
         25    2    1    2    0    0 -0.51269625831E+02 -0.12862983171E+02 -0.13259477504E+03  0.18973451843E+03  0.12499512890E+03 0.  0.
          5    1    3    3  501    0  0.29418632642E+02  0.38113009338E+02 -0.10863292542E+03  0.11891702953E+03  0.47000000000E+01 0. -1.
         -5    1    3    3    0  501  0.21850993190E+02 -0.25250026167E+02  0.23672119772E+02  0.41200594405E+02  0.47000000000E+01 0. -1.
          5    1    4    4  502    0 -0.44555770835E+02 -0.40998230065E+02 -0.14553668913E+03  0.15769936419E+03  0.47000000000E+01 0.  1.
         -5    1    4    4    0  502 -0.67138549964E+01  0.28135246894E+02  0.12941914094E+02  0.32035154239E+02  0.47000000000E+01 0.  1.
<mgrwt>
<rscale>  0 0.27398192E+03</rscale>
<asrwt>0</asrwt>
<pdfrwt beam="1">  1       21 0.10176659E-01 0.27398192E+03</pdfrwt>
<pdfrwt beam="2">  1       21 0.43646748E-01 0.27398192E+03</pdfrwt>
<totfact> 0.38989945E+05</totfact>
</mgrwt>
</event>
<event>
 8    1  0.9175398E-006  0.2845070E+03  0.7546771E-02  0.1093252E+00
         21   -1    0    0  504  503  0.00000000000E+00  0.00000000000E+00  0.56548553399E+02  0.56548553399E+02  0.00000000000E+00 0.  1.
         21   -1    0    0  503  504 -0.00000000000E+00 -0.00000000000E+00 -0.35785286990E+03  0.35785286990E+03  0.00000000000E+00 0.  1.
         25    2    1    2    0    0  0.51029883949E+02  0.14356682962E+02 -0.88830553912E+02  0.16225005380E+03  0.12499619694E+03 0.  0.
         25    2    1    2    0    0 -0.51029883949E+02 -0.14356682962E+02 -0.21247376259E+03  0.25215136950E+03  0.12500019980E+03 0.  0.
          5    1    3    3  501    0 -0.83140492298E+01 -0.41012925877E+02 -0.37958206070E+00  0.42111964881E+02  0.47000000000E+01 0. -1.
         -5    1    3    3    0  501  0.59343933179E+02  0.55369608839E+02 -0.88450971852E+02  0.12013808892E+03  0.47000000000E+01 0. -1.
          5    1    4    4  502    0 -0.22540002796E+02  0.54725053398E+02 -0.11300222006E+03  0.12764981368E+03  0.47000000000E+01 0.  1.
         -5    1    4    4    0  502 -0.28489881153E+02 -0.69081736360E+02 -0.99471542538E+02  0.12450155582E+03  0.47000000000E+01 0.  1.
<mgrwt>
<rscale>  0 0.28450703E+03</rscale>
<asrwt>0</asrwt>
<pdfrwt beam="1">  1       21 0.86997774E-02 0.28450703E+03</pdfrwt>
<pdfrwt beam="2">  1       21 0.55054288E-01 0.28450703E+03</pdfrwt>
<totfact> 0.31568234E+05</totfact>
</mgrwt>
</event>
<event>
 8    1  0.9175398E-006  0.2938969E+03  0.7546771E-02  0.1088332E+00
         21   -1    0    0  504  503  0.00000000000E+00  0.00000000000E+00  0.34547911213E+02  0.34547911213E+02  0.00000000000E+00 0.  1.
         21   -1    0    0  503  504 -0.00000000000E+00 -0.00000000000E+00 -0.62504064217E+03  0.62504064217E+03  0.00000000000E+00 0.  1.
         25    2    1    2    0    0  0.92400515894E+01 -0.69068801545E+01 -0.12379071406E+03  0.17629949386E+03  0.12499714838E+03 0.  0.
         25    2    1    2    0    0 -0.92400515894E+01  0.69068801545E+01 -0.46670201690E+03  0.48328905952E+03  0.12499783569E+03 0.  0.
          5    1    3    3  501    0 -0.36500038427E+02  0.34710686702E+02 -0.18047431409E+02  0.53711119491E+02  0.47000000000E+01 0.  1.
         -5    1    3    3    0  501  0.45740090016E+02 -0.41617566857E+02 -0.10574328265E+03  0.12258837437E+03  0.47000000000E+01 0.  1.
          5    1    4    4  502    0 -0.26217686277E+02  0.40882154907E+02 -0.42038168239E+03  0.42320393022E+03  0.47000000000E+01 0. -1.
         -5    1    4    4    0  502  0.16977634687E+02 -0.33975274753E+02 -0.46320334512E+02  0.60085129304E+02  0.47000000000E+01 0. -1.
<mgrwt>
<rscale>  0 0.29389691E+03</rscale>
<asrwt>0</asrwt>
<pdfrwt beam="1">  1       21 0.53150640E-02 0.29389691E+03</pdfrwt>
<pdfrwt beam="2">  1       21 0.96160086E-01 0.29389691E+03</pdfrwt>
<totfact> 0.21190677E+05</totfact>
</mgrwt>
</event>
<event>
 8    1  0.9175398E-006  0.3658356E+03  0.7546771E-02  0.1056297E+00
         21   -1    0    0  504  503  0.00000000000E+00  0.00000000000E+00  0.55438033051E+02  0.55438033051E+02  0.00000000000E+00 0. -1.
         21   -1    0    0  503  504 -0.00000000000E+00 -0.00000000000E+00 -0.60353727853E+03  0.60353727853E+03  0.00000000000E+00 0. -1.
         25    2    1    2    0    0  0.82360829383E+02 -0.39251832235E+02 -0.44970928279E+03  0.47559154273E+03  0.12499945576E+03 0.  0.
         25    2    1    2    0    0 -0.82360829383E+02  0.39251832235E+02 -0.98389962687E+02  0.18338376885E+03  0.12500003747E+03 0.  0.
          5    1    3    3  501    0  0.78085345272E+02  0.26484202558E+02 -0.18209282506E+03  0.19994654553E+03  0.47000000000E+01 0. -1.
         -5    1    3    3    0  501  0.42754841112E+01 -0.65736034793E+02 -0.26761645772E+03  0.27564499720E+03  0.47000000000E+01 0. -1.
          5    1    4    4  502    0 -0.10159256549E+03  0.27054568586E+02 -0.27492192788E+02  0.10876998533E+03  0.47000000000E+01 0. -1.
         -5    1    4    4    0  502  0.19231736106E+02  0.12197263649E+02 -0.70897769900E+02  0.74613783519E+02  0.47000000000E+01 0. -1.
<mgrwt>
<rscale>  0 0.36583559E+03</rscale>
<asrwt>0</asrwt>
<pdfrwt beam="1">  1       21 0.85289282E-02 0.36583559E+03</pdfrwt>
<pdfrwt beam="2">  1       21 0.92851889E-01 0.36583559E+03</pdfrwt>
<totfact> 0.99208411E+04</totfact>
</mgrwt>
</event>
<event>
 8    1  0.9175398E-006  0.3108316E+03  0.7546771E-02  0.1079948E+00
         21   -1    0    0  504  503  0.00000000000E+00  0.00000000000E+00  0.50519078773E+02  0.50519078773E+02  0.00000000000E+00 0. -1.
         21   -1    0    0  503  504 -0.00000000000E+00 -0.00000000000E+00 -0.47811786829E+03  0.47811786829E+03  0.00000000000E+00 0. -1.
         25    2    1    2    0    0 -0.38874669108E+02  0.72075765126E+02 -0.28639956268E+03  0.32304345939E+03  0.12500484525E+03 0.  0.
         25    2    1    2    0    0  0.38874669108E+02 -0.72075765126E+02 -0.14119922684E+03  0.20559348768E+03  0.12500121878E+03 0.  0.
          5    1    3    3  501    0 -0.36440099583E+01  0.39191669588E+01 -0.22379274697E+03  0.22390605681E+03  0.47000000000E+01 0. -1.
         -5    1    3    3    0  501 -0.35230659150E+02  0.68156598167E+02 -0.62606815703E+02  0.99137402580E+02  0.47000000000E+01 0. -1.
          5    1    4    4  502    0  0.57364464080E+02 -0.44786310816E+01 -0.11843969613E+03  0.13176035631E+03  0.47000000000E+01 0.  1.
         -5    1    4    4    0  502 -0.18489794972E+02 -0.67597134044E+02 -0.22759530712E+02  0.73833131366E+02  0.47000000000E+01 0.  1.
<mgrwt>
<rscale>  0 0.31083162E+03</rscale>
<asrwt>0</asrwt>
<pdfrwt beam="1">  1       21 0.77721661E-02 0.31083162E+03</pdfrwt>
<pdfrwt beam="2">  1       21 0.73556594E-01 0.31083162E+03</pdfrwt>
<totfact> 0.20277917E+05</totfact>
</mgrwt>
</event>
<event>
 8    1  0.9175398E-006  0.3357986E+03  0.7546771E-02  0.1068600E+00
         21   -1    0    0  504  503  0.00000000000E+00  0.00000000000E+00  0.28009045309E+03  0.28009045309E+03  0.00000000000E+00 0.  1.
         21   -1    0    0  503  504 -0.00000000000E+00 -0.00000000000E+00 -0.10064668011E+03  0.10064668011E+03  0.00000000000E+00 0.  1.
         25    2    1    2    0    0 -0.35108766589E+02  0.79951155390E+02  0.10023984327E+02  0.15280612471E+03  0.12499767496E+03 0.  0.
         25    2    1    2    0    0  0.35108766589E+02 -0.79951155390E+02  0.16941978865E+03  0.22793100850E+03  0.12499866843E+03 0.  0.
          5    1    3    3  501    0 -0.63754645970E+02  0.96962776537E+02 -0.43420072865E+01  0.11622124566E+03  0.47000000000E+01 0. -1.
         -5    1    3    3    0  501  0.28645879381E+02 -0.17011621146E+02  0.14365991613E+02  0.36584879043E+02  0.47000000000E+01 0. -1.
          5    1    4    4  502    0  0.60484527499E+02 -0.89420360701E+02  0.80187766409E+02  0.13456056947E+03  0.47000000000E+01 0. -1.
         -5    1    4    4    0  502 -0.25375760910E+02  0.94692053105E+01  0.89232022244E+02  0.93370439031E+02  0.47000000000E+01 0. -1.
<mgrwt>
<rscale>  0 0.33579860E+03</rscale>
<asrwt>0</asrwt>
<pdfrwt beam="1">  1       21 0.43090839E-01 0.33579860E+03</pdfrwt>
<pdfrwt beam="2">  1       21 0.15484105E-01 0.33579860E+03</pdfrwt>
<totfact> 0.18464262E+05</totfact>
</mgrwt>
</event>
<event>
 8    1  0.9175398E-006  0.2645684E+03  0.7546771E-02  0.1104429E+00
         21   -1    0    0  504  503  0.00000000000E+00  0.00000000000E+00  0.17850518609E+02  0.17850518609E+02  0.00000000000E+00 0.  1.
         21   -1    0    0  503  504 -0.00000000000E+00 -0.00000000000E+00 -0.98031392182E+03  0.98031392182E+03  0.00000000000E+00 0.  1.
         25    2    1    2    0    0  0.34047582767E+02 -0.60537664031E+01 -0.38337145010E+03  0.40471568515E+03  0.12500092430E+03 0.  0.
         25    2    1    2    0    0 -0.34047582767E+02  0.60537664031E+01 -0.57909195311E+03  0.59344875528E+03  0.12505218513E+03 0.  0.
          5    1    3    3  501    0  0.57754195650E+02  0.18006909971E+02 -0.35558748835E+03  0.36072752569E+03  0.47000000000E+01 0. -1.
         -5    1    3    3    0  501 -0.23706612882E+02 -0.24060676374E+02 -0.27783961752E+02  0.43988159459E+02  0.47000000000E+01 0. -1.
          5    1    4    4  502    0 -0.48275591324E+02  0.47719689371E+02 -0.48147295892E+03  0.48625713531E+03  0.47000000000E+01 0. -1.
         -5    1    4    4    0  502  0.14228008557E+02 -0.41665922968E+02 -0.97618994195E+02  0.10719161997E+03  0.47000000000E+01 0. -1.
<mgrwt>
<rscale>  0 0.26456842E+03</rscale>
<asrwt>0</asrwt>
<pdfrwt beam="1">  1       21 0.27462337E-02 0.26456842E+03</pdfrwt>
<pdfrwt beam="2">  1       21 0.15081752E+00 0.26456842E+03</pdfrwt>
<totfact> 0.21010241E+05</totfact>
</mgrwt>
</event>
<event>
 8    1  0.9175398E-006  0.2727112E+03  0.7546771E-02  0.1099738E+00
         21   -1    0    0  504  503  0.00000000000E+00  0.00000000000E+00  0.64209655782E+02  0.64209655782E+02  0.00000000000E+00 0.  1.
         21   -1    0    0  503  504 -0.00000000000E+00 -0.00000000000E+00 -0.28956460960E+03  0.28956460960E+03  0.00000000000E+00 0.  1.
         25    2    1    2    0    0  0.42317970423E+02 -0.11781010983E+02 -0.70873384558E+02  0.15025748748E+03  0.12499869225E+03 0.  0.
         25    2    1    2    0    0 -0.42317970423E+02  0.11781010983E+02 -0.15448156926E+03  0.20351677790E+03  0.12499968322E+03 0.  0.
          5    1    3    3  501    0  0.85111954685E+01 -0.56806886436E+02  0.24567012556E+01  0.57685250939E+02  0.47000000000E+01 0.  1.
         -5    1    3    3    0  501  0.33806774954E+02  0.45025875453E+02 -0.73330085813E+02  0.92572236543E+02  0.47000000000E+01 0.  1.
          5    1    4    4  502    0  0.30251494098E+02 -0.31519255087E+02 -0.30843463772E+02  0.53684500500E+02  0.47000000000E+01 0. -1.
         -5    1    4    4    0  502 -0.72569464521E+02  0.43300266070E+02 -0.12363810549E+03  0.14983227740E+03  0.47000000000E+01 0. -1.
<mgrwt>
<rscale>  0 0.27271116E+03</rscale>
<asrwt>0</asrwt>
<pdfrwt beam="1">  1       21 0.98784086E-02 0.27271116E+03</pdfrwt>
<pdfrwt beam="2">  1       21 0.44548402E-01 0.27271116E+03</pdfrwt>
<totfact> 0.39420519E+05</totfact>
</mgrwt>
</event>
<event>
 8    1  0.9175398E-006  0.2917275E+03  0.7546771E-02  0.1089451E+00
         21   -1    0    0  504  503  0.00000000000E+00  0.00000000000E+00  0.75644790747E+01  0.75644790747E+01  0.00000000000E+00 0. -1.
         21   -1    0    0  503  504 -0.00000000000E+00 -0.00000000000E+00 -0.28126494314E+04  0.28126494314E+04  0.00000000000E+00 0. -1.
         25    2    1    2    0    0  0.68816835083E+02 -0.23125524339E+02 -0.15894937945E+04  0.15960539068E+04  0.12500801581E+03 0.  0.
         25    2    1    2    0    0 -0.68816835083E+02  0.23125524339E+02 -0.12155911578E+04  0.12241600036E+04  0.12504121291E+03 0.  0.
          5    1    3    3  501    0  0.86752330044E+02  0.18898139254E+02 -0.12897793490E+04  0.12928402707E+04  0.47000000000E+01 0.  1.
         -5    1    3    3    0  501 -0.17935494960E+02 -0.42023663593E+02 -0.29971444553E+03  0.30321363614E+03  0.47000000000E+01 0.  1.
          5    1    4    4  502    0 -0.10578507529E+02  0.68246851491E+02 -0.49947664549E+03  0.50425048037E+03  0.47000000000E+01 0.  1.
         -5    1    4    4    0  502 -0.58238327554E+02 -0.45121327151E+02 -0.71611451231E+03  0.71990952328E+03  0.47000000000E+01 0.  1.
<mgrwt>
<rscale>  0 0.29172746E+03</rscale>
<asrwt>0</asrwt>
<pdfrwt beam="1">  1       21 0.11637650E-02 0.29172746E+03</pdfrwt>
<pdfrwt beam="2">  1       21 0.43271569E+00 0.29172746E+03</pdfrwt>
<totfact> 0.14369881E+04</totfact>
</mgrwt>
</event>
<event>
 8    1  0.9175398E-006  0.2571839E+03  0.7546771E-02  0.1108847E+00
         21   -1    0    0  504  503  0.00000000000E+00  0.00000000000E+00  0.35133895627E+03  0.35133895627E+03  0.00000000000E+00 0.  1.
         21   -1    0    0  503  504 -0.00000000000E+00 -0.00000000000E+00 -0.47065331395E+02  0.47065331395E+02  0.00000000000E+00 0.  1.
         25    2    1    2    0    0  0.43232079629E+01 -0.11308403350E+02  0.10929114218E+03  0.16648433981E+03  0.12500364607E+03 0.  0.
         25    2    1    2    0    0 -0.43232079629E+01  0.11308403350E+02  0.19498248269E+03  0.23191994785E+03  0.12498849363E+03 0.  0.
          5    1    3    3  501    0  0.14605247019E+01 -0.65708249728E+02  0.82534119679E+02  0.10561097540E+03  0.47000000000E+01 0.  1.
         -5    1    3    3    0  501  0.28626832610E+01  0.54399846378E+02  0.26757022499E+02  0.60873364409E+02  0.47000000000E+01 0.  1.
          5    1    4    4  502    0 -0.36076073098E+02  0.58265660470E+02  0.10592512703E+03  0.12624813969E+03  0.47000000000E+01 0.  1.
         -5    1    4    4    0  502  0.31752865135E+02 -0.46957257120E+02  0.89057355665E+02  0.10567180815E+03  0.47000000000E+01 0.  1.
<mgrwt>
<rscale>  0 0.25718386E+03</rscale>
<asrwt>0</asrwt>
<pdfrwt beam="1">  1       21 0.54052145E-01 0.25718386E+03</pdfrwt>
<pdfrwt beam="2">  1       21 0.72408204E-02 0.25718386E+03</pdfrwt>
<totfact> 0.45536868E+05</totfact>
</mgrwt>
</event>
<event>
 8    1  0.9175398E-006  0.2653297E+03  0.7546771E-02  0.1103983E+00
         21   -1    0    0  504  503  0.00000000000E+00  0.00000000000E+00  0.27058644920E+02  0.27058644920E+02  0.00000000000E+00 0. -1.
         21   -1    0    0  503  504 -0.00000000000E+00 -0.00000000000E+00 -0.65043790160E+03  0.65043790160E+03  0.00000000000E+00 0. -1.
         25    2    1    2    0    0 -0.36565885827E+01  0.21660531615E+02 -0.41024747213E+03  0.42943936791E+03  0.12503052850E+03 0.  0.
         25    2    1    2    0    0  0.36565885827E+01 -0.21660531615E+02 -0.21313178455E+03  0.24805717861E+03  0.12499862800E+03 0.  0.
          5    1    3    3  501    0  0.75396806937E+01  0.73101090751E+02 -0.25645302768E+03  0.26681615705E+03  0.47000000000E+01 0. -1.
         -5    1    3    3    0  501 -0.11196269276E+02 -0.51440559136E+02 -0.15379444444E+03  0.16262321086E+03  0.47000000000E+01 0. -1.
          5    1    4    4  502    0  0.13314288621E+02  0.44239127199E+02 -0.35995758948E+02  0.58755045052E+02  0.47000000000E+01 0. -1.
         -5    1    4    4    0  502 -0.96577000387E+01 -0.65899658814E+02 -0.17713602560E+03  0.18930213356E+03  0.47000000000E+01 0. -1.
<mgrwt>
<rscale>  0 0.26532974E+03</rscale>
<asrwt>0</asrwt>
<pdfrwt beam="1">  1       21 0.41628682E-02 0.26532974E+03</pdfrwt>
<pdfrwt beam="2">  1       21 0.10006738E+00 0.26532974E+03</pdfrwt>
<totfact> 0.29429524E+05</totfact>
</mgrwt>
</event>
<event>
 8    1  0.9175398E-006  0.3469579E+03  0.7546771E-02  0.1063871E+00
         21   -1    0    0  504  503  0.00000000000E+00  0.00000000000E+00  0.64913187291E+03  0.64913187291E+03  0.00000000000E+00 0. -1.
         21   -1    0    0  503  504 -0.00000000000E+00 -0.00000000000E+00 -0.46361850273E+02  0.46361850273E+02  0.00000000000E+00 0. -1.
         25    2    1    2    0    0  0.11291277298E+03 -0.18513566432E+02  0.37579618664E+03  0.41223765155E+03  0.12500024407E+03 0.  0.
         25    2    1    2    0    0 -0.11291277298E+03  0.18513566432E+02  0.22697383600E+03  0.28325607164E+03  0.12499933378E+03 0.  0.
          5    1    3    3  501    0 -0.14873982694E+02 -0.30610900596E+02  0.40083688139E+02  0.52792562462E+02  0.47000000000E+01 0.  1.
         -5    1    3    3    0  501  0.12778675568E+03  0.12097334164E+02  0.33571249850E+03  0.35944508909E+03  0.47000000000E+01 0.  1.
          5    1    4    4  502    0 -0.61195944394E+01 -0.43215261346E+02  0.41155919192E+02  0.60173980539E+02  0.47000000000E+01 0. -1.
         -5    1    4    4    0  502 -0.10679317854E+03  0.61728827778E+02  0.18581791681E+03  0.22308209110E+03  0.47000000000E+01 0. -1.
<mgrwt>
<rscale>  0 0.34695795E+03</rscale>
<asrwt>0</asrwt>
<pdfrwt beam="1">  1       21 0.99866436E-01 0.34695795E+03</pdfrwt>
<pdfrwt beam="2">  1       21 0.71325928E-02 0.34695795E+03</pdfrwt>
<totfact> 0.11474567E+05</totfact>
</mgrwt>
</event>
<event>
 8    1  0.9175398E-006  0.3760473E+03  0.7546771E-02  0.1052404E+00
         21   -1    0    0  504  503  0.00000000000E+00  0.00000000000E+00  0.32158685227E+03  0.32158685227E+03  0.00000000000E+00 0.  1.
         21   -1    0    0  503  504 -0.00000000000E+00 -0.00000000000E+00 -0.10993262904E+03  0.10993262904E+03  0.00000000000E+00 0.  1.
         25    2    1    2    0    0 -0.92856152205E+02  0.20078198217E+02 -0.12887205203E+02  0.15753137984E+03  0.12499862611E+03 0.  0.
         25    2    1    2    0    0  0.92856152205E+02 -0.20078198217E+02  0.22454142843E+03  0.27398810147E+03  0.12500091047E+03 0.  0.
          5    1    3    3  501    0 -0.12221274065E+03  0.13105255031E+02 -0.23450686564E+02  0.12521871421E+03  0.47000000000E+01 0. -1.
         -5    1    3    3    0  501  0.29356588447E+02  0.69729431863E+01  0.10563481361E+02  0.32312665634E+02  0.47000000000E+01 0. -1.
          5    1    4    4  502    0  0.40688737837E+02 -0.30828405562E+02  0.21326698775E+03  0.21934188392E+03  0.47000000000E+01 0. -1.
         -5    1    4    4    0  502  0.52167414368E+02  0.10750207345E+02  0.11274440681E+02  0.54646217549E+02  0.47000000000E+01 0. -1.
<mgrwt>
<rscale>  0 0.37604727E+03</rscale>
<asrwt>0</asrwt>
<pdfrwt beam="1">  1       21 0.49474900E-01 0.37604727E+03</pdfrwt>
<pdfrwt beam="2">  1       21 0.16912712E-01 0.37604727E+03</pdfrwt>
<totfact> 0.11640196E+05</totfact>
</mgrwt>
</event>
<event>
 8    1  0.9175398E-006  0.4814630E+03  0.7546771E-02  0.1018734E+00
         21   -1    0    0  504  503  0.00000000000E+00  0.00000000000E+00  0.16934309763E+04  0.16934309763E+04  0.00000000000E+00 0. -1.
         21   -1    0    0  503  504 -0.00000000000E+00 -0.00000000000E+00 -0.34221439732E+02  0.34221439732E+02  0.00000000000E+00 0. -1.
         25    2    1    2    0    0  0.75392836223E+02 -0.16599745292E+03  0.11716480314E+04  0.11923196013E+04  0.12501075165E+03 0.  0.
         25    2    1    2    0    0 -0.75392836223E+02  0.16599745292E+03  0.48756150514E+03  0.53533281471E+03  0.12500306826E+03 0.  0.
          5    1    3    3  501    0 -0.30010263550E+02 -0.37257700588E+02  0.15985491966E+03  0.16692644341E+03  0.47000000000E+01 0.  1.
         -5    1    3    3    0  501  0.10540309977E+03 -0.12873975233E+03  0.10117931117E+04  0.10253931579E+04  0.47000000000E+01 0.  1.
          5    1    4    4  502    0 -0.83526800128E+02  0.12572596207E+03  0.23453173436E+03  0.27894617456E+03  0.47000000000E+01 0. -1.
         -5    1    4    4    0  502  0.81339639050E+01  0.40271490847E+02  0.25302977078E+03  0.25638664015E+03  0.47000000000E+01 0. -1.
<mgrwt>
<rscale>  0 0.48146296E+03</rscale>
<asrwt>0</asrwt>
<pdfrwt beam="1">  1       21 0.26052778E+00 0.48146296E+03</pdfrwt>
<pdfrwt beam="2">  1       21 0.52648382E-02 0.48146296E+03</pdfrwt>
<totfact> 0.12028961E+04</totfact>
</mgrwt>
</event>
<event>
 8    1  0.9175398E-006  0.2851801E+03  0.7546771E-02  0.1092893E+00
         21   -1    0    0  504  503  0.00000000000E+00  0.00000000000E+00  0.16930173179E+03  0.16930173179E+03  0.00000000000E+00 0.  1.
         21   -1    0    0  503  504 -0.00000000000E+00 -0.00000000000E+00 -0.12009286081E+03  0.12009286081E+03  0.00000000000E+00 0.  1.
         25    2    1    2    0    0  0.10399545300E+02 -0.66607621072E+02  0.11721101608E+02  0.14251030183E+03  0.12500830444E+03 0.  0.
         25    2    1    2    0    0 -0.10399545300E+02  0.66607621072E+02  0.37487769380E+02  0.14688429077E+03  0.12499974517E+03 0.  0.
          5    1    3    3  501    0  0.56532536678E+02 -0.71331748453E+02  0.24122652442E+02  0.94276924013E+02  0.47000000000E+01 0. -1.
         -5    1    3    3    0  501 -0.46132991377E+02  0.47241273808E+01 -0.12401550834E+02  0.48233377821E+02  0.47000000000E+01 0. -1.
          5    1    4    4  502    0  0.24541047057E+02  0.12070819073E+02  0.69242594125E+02  0.74596209722E+02  0.47000000000E+01 0.  1.
         -5    1    4    4    0  502 -0.34940592358E+02  0.54536801999E+02 -0.31754824745E+02  0.72288081045E+02  0.47000000000E+01 0.  1.
<mgrwt>
<rscale>  0 0.28518015E+03</rscale>
<asrwt>0</asrwt>
<pdfrwt beam="1">  1       21 0.26046420E-01 0.28518015E+03</pdfrwt>
<pdfrwt beam="2">  1       21 0.18475825E-01 0.28518015E+03</pdfrwt>
<totfact> 0.36725253E+05</totfact>
</mgrwt>
</event>
<event>
 8    1  0.9175398E-006  0.3112294E+03  0.7546771E-02  0.1079758E+00
         21   -1    0    0  504  503  0.00000000000E+00  0.00000000000E+00  0.40634046501E+03  0.40634046501E+03  0.00000000000E+00 0.  1.
         21   -1    0    0  503  504 -0.00000000000E+00 -0.00000000000E+00 -0.59595191236E+02  0.59595191236E+02  0.00000000000E+00 0.  1.
         25    2    1    2    0    0  0.51183087399E+02 -0.65137953276E+02  0.11113254007E+03  0.18664939511E+03  0.12499957535E+03 0.  0.
         25    2    1    2    0    0 -0.51183087399E+02  0.65137953276E+02  0.23561273370E+03  0.27928626114E+03  0.12499917593E+03 0.  0.
          5    1    3    3  501    0  0.34361677693E+02 -0.10275595764E+03  0.78633921493E+02  0.13395855827E+03  0.47000000000E+01 0.  1.
         -5    1    3    3    0  501  0.16821409706E+02  0.37618004367E+02  0.32498618576E+02  0.52690836835E+02  0.47000000000E+01 0.  1.
          5    1    4    4  502    0 -0.92632416401E+02  0.39935046170E+02  0.16614827592E+03  0.19442970985E+03  0.47000000000E+01 0.  1.
         -5    1    4    4    0  502  0.41449329002E+02  0.25202907106E+02  0.69464457784E+02  0.84856551289E+02  0.47000000000E+01 0.  1.
<mgrwt>
<rscale>  0 0.31122942E+03</rscale>
<asrwt>0</asrwt>
<pdfrwt beam="1">  1       21 0.62513916E-01 0.31122942E+03</pdfrwt>
<pdfrwt beam="2">  1       21 0.91684912E-02 0.31122942E+03</pdfrwt>
<totfact> 0.21733725E+05</totfact>
</mgrwt>
</event>
<event>
 8    1  0.9175398E-006  0.2843892E+03  0.7546771E-02  0.1093316E+00
         21   -1    0    0  504  503  0.00000000000E+00  0.00000000000E+00  0.11700667391E+03  0.11700667391E+03  0.00000000000E+00 0. -1.
         21   -1    0    0  503  504 -0.00000000000E+00 -0.00000000000E+00 -0.17280464873E+03  0.17280464873E+03  0.00000000000E+00 0. -1.
         25    2    1    2    0    0  0.61409743876E+02  0.28140127825E+02 -0.33608807544E+02  0.14600373089E+03  0.12499805620E+03 0.  0.
         25    2    1    2    0    0 -0.61409743876E+02 -0.28140127825E+02 -0.22189167275E+02  0.14380759175E+03  0.12500096346E+03 0.  0.
          5    1    3    3  501    0  0.28714131992E+01 -0.33113995530E+00  0.44145701494E+02  0.44489185515E+02  0.47000000000E+01 0. -1.
         -5    1    3    3    0  501  0.58538330676E+02  0.28471267780E+02 -0.77754509038E+02  0.10151454538E+03  0.47000000000E+01 0. -1.
          5    1    4    4  502    0 -0.13443080324E+02 -0.25312740172E+01 -0.69860412399E+02  0.71342070178E+02  0.47000000000E+01 0.  1.
         -5    1    4    4    0  502 -0.47966663552E+02 -0.25608853808E+02  0.47671245124E+02  0.72465521577E+02  0.47000000000E+01 0.  1.
<mgrwt>
<rscale>  0 0.28438915E+03</rscale>
<asrwt>0</asrwt>
<pdfrwt beam="1">  1       21 0.18001027E-01 0.28438915E+03</pdfrwt>
<pdfrwt beam="2">  1       21 0.26585330E-01 0.28438915E+03</pdfrwt>
<totfact> 0.37061122E+05</totfact>
</mgrwt>
</event>
<event>
 8    1  0.9175398E-006  0.2657679E+03  0.7546771E-02  0.1103726E+00
         21   -1    0    0  504  503  0.00000000000E+00  0.00000000000E+00  0.10899435088E+03  0.10899435088E+03  0.00000000000E+00 0.  1.
         21   -1    0    0  503  504 -0.00000000000E+00 -0.00000000000E+00 -0.16200966280E+03  0.16200966280E+03  0.00000000000E+00 0.  1.
         25    2    1    2    0    0 -0.54650991748E+01  0.30068709085E+02 -0.60297980664E+02  0.14210604872E+03  0.12499715211E+03 0.  0.
         25    2    1    2    0    0  0.54650991748E+01 -0.30068709085E+02  0.72826687420E+01  0.12889796496E+03  0.12501061368E+03 0.  0.
          5    1    3    3  501    0 -0.38805182865E+02 -0.21001923748E+02  0.13377553787E+02  0.46346218440E+02  0.47000000000E+01 0.  1.
         -5    1    3    3    0  501  0.33340083691E+02  0.51070632833E+02 -0.73675534451E+02  0.95759830280E+02  0.47000000000E+01 0.  1.
          5    1    4    4  502    0  0.40114703083E+02  0.30171353514E+02  0.26069615858E+02  0.56755747263E+02  0.47000000000E+01 0. -1.
         -5    1    4    4    0  502 -0.34649603909E+02 -0.60240062599E+02 -0.18786947116E+02  0.72142217702E+02  0.47000000000E+01 0. -1.
<mgrwt>
<rscale>  0 0.26576785E+03</rscale>
<asrwt>0</asrwt>
<pdfrwt beam="1">  1       21 0.16768362E-01 0.26576785E+03</pdfrwt>
<pdfrwt beam="2">  1       21 0.24924563E-01 0.26576785E+03</pdfrwt>
<totfact> 0.48051679E+05</totfact>
</mgrwt>
</event>
<event>
 8    1  0.9175398E-006  0.3098378E+03  0.7546771E-02  0.1080424E+00
         21   -1    0    0  504  503  0.00000000000E+00  0.00000000000E+00  0.60525493893E+02  0.60525493893E+02  0.00000000000E+00 0. -1.
         21   -1    0    0  503  504 -0.00000000000E+00 -0.00000000000E+00 -0.39652487132E+03  0.39652487132E+03  0.00000000000E+00 0. -1.
         25    2    1    2    0    0 -0.14279257552E+02 -0.81619945016E+02 -0.11068325283E+03  0.18638908362E+03  0.12499758163E+03 0.  0.
         25    2    1    2    0    0  0.14279257552E+02  0.81619945016E+02 -0.22531612460E+03  0.27066128160E+03  0.12499784291E+03 0.  0.
          5    1    3    3  501    0 -0.51364027925E+02 -0.95309590482E+02 -0.93097666567E+02  0.14286863520E+03  0.47000000000E+01 0.  1.
         -5    1    3    3    0  501  0.37084770373E+02  0.13689645466E+02 -0.17585586268E+02  0.43520448423E+02  0.47000000000E+01 0.  1.
          5    1    4    4  502    0 -0.46663971889E+02  0.38929428183E+01 -0.45553290267E+02  0.65497126123E+02  0.47000000000E+01 0.  1.
         -5    1    4    4    0  502  0.60943229442E+02  0.77727002197E+02 -0.17976283433E+03  0.20516415547E+03  0.47000000000E+01 0.  1.
<mgrwt>
<rscale>  0 0.30983779E+03</rscale>
<asrwt>0</asrwt>
<pdfrwt beam="1">  1       21 0.93116144E-02 0.30983779E+03</pdfrwt>
<pdfrwt beam="2">  1       21 0.61003827E-01 0.30983779E+03</pdfrwt>
<totfact> 0.22310282E+05</totfact>
</mgrwt>
</event>
<event>
 8    1  0.9175398E-006  0.2638196E+03  0.7546771E-02  0.1104870E+00
         21   -1    0    0  504  503  0.00000000000E+00  0.00000000000E+00  0.50602079808E+03  0.50602079808E+03  0.00000000000E+00 0. -1.
         21   -1    0    0  503  504 -0.00000000000E+00 -0.00000000000E+00 -0.34386324600E+02  0.34386324600E+02  0.00000000000E+00 0. -1.
         25    2    1    2    0    0 -0.36280264492E+00  0.41968556607E+02  0.22802576191E+03  0.26340464465E+03  0.12499906944E+03 0.  0.
         25    2    1    2    0    0  0.36280264492E+00 -0.41968556607E+02  0.24360871157E+03  0.27700247803E+03  0.12499470834E+03 0.  0.
          5    1    3    3  501    0  0.34503080178E+01 -0.44336515706E+02  0.65925725230E+02  0.79661298618E+02  0.47000000000E+01 0. -1.
         -5    1    3    3    0  501 -0.38131106627E+01  0.86305072314E+02  0.16210003668E+03  0.18374334603E+03  0.47000000000E+01 0. -1.
          5    1    4    4  502    0  0.48637004790E+02  0.16567610668E+02  0.13419459012E+03  0.14377177044E+03  0.47000000000E+01 0.  1.
         -5    1    4    4    0  502 -0.48274202145E+02 -0.58536167275E+02  0.10941412145E+03  0.13323070759E+03  0.47000000000E+01 0.  1.
<mgrwt>
<rscale>  0 0.26381960E+03</rscale>
<asrwt>0</asrwt>
<pdfrwt beam="1">  1       21 0.77849348E-01 0.26381960E+03</pdfrwt>
<pdfrwt beam="2">  1       21 0.52902041E-02 0.26381960E+03</pdfrwt>
<totfact> 0.35118329E+05</totfact>
</mgrwt>
</event>
<event>
 8    1  0.9175398E-006  0.2863015E+03  0.7546771E-02  0.1092296E+00
         21   -1    0    0  504  503  0.00000000000E+00  0.00000000000E+00  0.18314440631E+03  0.18314440631E+03  0.00000000000E+00 0. -1.
         21   -1    0    0  503  504 -0.00000000000E+00 -0.00000000000E+00 -0.11189057555E+03  0.11189057555E+03  0.00000000000E+00 0. -1.
         25    2    1    2    0    0  0.17281236011E+02  0.48467438997E+02 -0.12862228769E+02  0.13578756552E+03  0.12500036904E+03 0.  0.
         25    2    1    2    0    0 -0.17281236011E+02 -0.48467438997E+02  0.84116059533E+02  0.15924741634E+03  0.12504596906E+03 0.  0.
          5    1    3    3  501    0 -0.64693818962E+01  0.88234743322E+02 -0.72415380512E+01  0.88891803360E+02  0.47000000000E+01 0.  1.
         -5    1    3    3    0  501  0.23750617907E+02 -0.39767304325E+02 -0.56206907182E+01  0.46895762158E+02  0.47000000000E+01 0.  1.
          5    1    4    4  502    0  0.24537906445E+02 -0.64416719543E+02  0.90429400636E+02  0.11380329129E+03  0.47000000000E+01 0. -1.
         -5    1    4    4    0  502 -0.41819142456E+02  0.15949280546E+02 -0.63133411027E+01  0.45444125050E+02  0.47000000000E+01 0. -1.
<mgrwt>
<rscale>  0 0.28630147E+03</rscale>
<asrwt>0</asrwt>
<pdfrwt beam="1">  1       21 0.28176063E-01 0.28630147E+03</pdfrwt>
<pdfrwt beam="2">  1       21 0.17213935E-01 0.28630147E+03</pdfrwt>
<totfact> 0.35957913E+05</totfact>
</mgrwt>
</event>
<event>
 8    1  0.9175398E-006  0.5420388E+03  0.7546771E-02  0.1003354E+00
         21   -1    0    0  504  503  0.00000000000E+00  0.00000000000E+00  0.15552594657E+03  0.15552594657E+03  0.00000000000E+00 0.  1.
         21   -1    0    0  503  504 -0.00000000000E+00 -0.00000000000E+00 -0.47227823480E+03  0.47227823480E+03  0.00000000000E+00 0.  1.
         25    2    1    2    0    0 -0.11003974314E+03 -0.92829771645E+02 -0.38147143364E+03  0.42646460689E+03  0.12500197866E+03 0.  0.
         25    2    1    2    0    0  0.11003974314E+03  0.92829771645E+02  0.64719145413E+02  0.20133957449E+03  0.12499177932E+03 0.  0.
          5    1    3    3  501    0 -0.25293396205E+01 -0.79633424689E+02 -0.19603115884E+03  0.21165581760E+03  0.47000000000E+01 0. -1.
         -5    1    3    3    0  501 -0.10751040352E+03 -0.13196346956E+02 -0.18544027479E+03  0.21480878929E+03  0.47000000000E+01 0. -1.
          5    1    4    4  502    0  0.29455138818E+02 -0.29613937049E+02  0.26835677059E+02  0.49868166535E+02  0.47000000000E+01 0. -1.
         -5    1    4    4    0  502  0.80584604325E+02  0.12244370869E+03  0.37883468353E+02  0.15147140795E+03  0.47000000000E+01 0. -1.
<mgrwt>
<rscale>  0 0.54203882E+03</rscale>
<asrwt>0</asrwt>
<pdfrwt beam="1">  1       21 0.23927069E-01 0.54203882E+03</pdfrwt>
<pdfrwt beam="2">  1       21 0.72658188E-01 0.54203882E+03</pdfrwt>
<totfact> 0.24985519E+04</totfact>
</mgrwt>
</event>
<event>
 8    1  0.9175398E-006  0.2921016E+03  0.7546771E-02  0.1089257E+00
         21   -1    0    0  504  503  0.00000000000E+00  0.00000000000E+00  0.12921497866E+03  0.12921497866E+03  0.00000000000E+00 0.  1.
         21   -1    0    0  503  504 -0.00000000000E+00 -0.00000000000E+00 -0.16508026345E+03  0.16508026345E+03  0.00000000000E+00 0.  1.
         25    2    1    2    0    0 -0.62230452493E+02 -0.13170096126E+01  0.25194534530E+02  0.14188749672E+03  0.12499173342E+03 0.  0.
         25    2    1    2    0    0  0.62230452493E+02  0.13170096126E+01 -0.61059819320E+02  0.15240774538E+03  0.12500182233E+03 0.  0.
          5    1    3    3  501    0 -0.22295619575E+02  0.55225368968E+02 -0.15144032350E+02  0.61630899277E+02  0.47000000000E+01 0. -1.
         -5    1    3    3    0  501 -0.39934832918E+02 -0.56542378581E+02  0.40338566879E+02  0.80256597446E+02  0.47000000000E+01 0. -1.
          5    1    4    4  502    0  0.65593838913E+02 -0.42072638929E+02 -0.98249291082E+00  0.78075053264E+02  0.47000000000E+01 0. -1.
         -5    1    4    4    0  502 -0.33633864202E+01  0.43389648542E+02 -0.60077326409E+02  0.74332692116E+02  0.47000000000E+01 0. -1.
<mgrwt>
<rscale>  0 0.29210164E+03</rscale>
<asrwt>0</asrwt>
<pdfrwt beam="1">  1       21 0.19879227E-01 0.29210164E+03</pdfrwt>
<pdfrwt beam="2">  1       21 0.25396964E-01 0.29210164E+03</pdfrwt>
<totfact> 0.33565265E+05</totfact>
</mgrwt>
</event>
<event>
 8    1  0.9175398E-006  0.2639664E+03  0.7546771E-02  0.1104783E+00
         21   -1    0    0  504  503  0.00000000000E+00  0.00000000000E+00  0.51729269185E+02  0.51729269185E+02  0.00000000000E+00 0.  1.
         21   -1    0    0  503  504 -0.00000000000E+00 -0.00000000000E+00 -0.33674474248E+03  0.33674474248E+03  0.00000000000E+00 0.  1.
         25    2    1    2    0    0  0.38811366504E+01 -0.17804522141E+02 -0.86372192801E+02  0.15305488736E+03  0.12503430979E+03 0.  0.
         25    2    1    2    0    0 -0.38811366504E+01  0.17804522141E+02 -0.19864328049E+03  0.23541912431E+03  0.12502378563E+03 0.  0.
          5    1    3    3  501    0  0.51992085823E+02 -0.36696734099E+02 -0.77518834211E+02  0.10040461612E+03  0.47000000000E+01 0. -1.
         -5    1    3    3    0  501 -0.48110949173E+02  0.18892211957E+02 -0.88533585899E+01  0.52650271237E+02  0.47000000000E+01 0. -1.
          5    1    4    4  502    0 -0.29490992944E+02  0.35261109518E+02 -0.19877079265E+03  0.20407102322E+03  0.47000000000E+01 0. -1.
         -5    1    4    4    0  502  0.25609856294E+02 -0.17456587377E+02  0.12751215092E+00  0.31348101084E+02  0.47000000000E+01 0. -1.
<mgrwt>
<rscale>  0 0.26396636E+03</rscale>
<asrwt>0</asrwt>
<pdfrwt beam="1">  1       21 0.79583490E-02 0.26396636E+03</pdfrwt>
<pdfrwt beam="2">  1       21 0.51806884E-01 0.26396636E+03</pdfrwt>
<totfact> 0.42184017E+05</totfact>
</mgrwt>
</event>
<event>
 8    1  0.9175398E-006  0.2526934E+03  0.7546771E-02  0.1111614E+00
         21   -1    0    0  504  503  0.00000000000E+00  0.00000000000E+00  0.39714872175E+02  0.39714872175E+02  0.00000000000E+00 0. -1.
         21   -1    0    0  503  504 -0.00000000000E+00 -0.00000000000E+00 -0.40195226971E+03  0.40195226971E+03  0.00000000000E+00 0. -1.
         25    2    1    2    0    0  0.68151538221E+01  0.17086435591E+02 -0.18037158404E+03  0.22021990668E+03  0.12499802545E+03 0.  0.
         25    2    1    2    0    0 -0.68151538221E+01 -0.17086435591E+02 -0.18186581349E+03  0.22144723520E+03  0.12500124503E+03 0.  0.
          5    1    3    3  501    0  0.25341966921E+02 -0.22621753488E+02  0.25558728727E+00  0.34294523516E+02  0.47000000000E+01 0.  1.
         -5    1    3    3    0  501 -0.18526813099E+02  0.39708189079E+02 -0.18062717133E+03  0.18592538317E+03  0.47000000000E+01 0.  1.
          5    1    4    4  502    0  0.52250048674E+02 -0.32507530396E+01 -0.13428826571E+03  0.14420840228E+03  0.47000000000E+01 0.  1.
         -5    1    4    4    0  502 -0.59065202496E+02 -0.13835682552E+02 -0.47577547782E+02  0.77238832918E+02  0.47000000000E+01 0.  1.
<mgrwt>
<rscale>  0 0.25269336E+03</rscale>
<asrwt>0</asrwt>
<pdfrwt beam="1">  1       21 0.61099807E-02 0.25269336E+03</pdfrwt>
<pdfrwt beam="2">  1       21 0.61838807E-01 0.25269336E+03</pdfrwt>
<totfact> 0.45808499E+05</totfact>
</mgrwt>
</event>
<event>
 8    1  0.9175398E-006  0.2598760E+03  0.7546771E-02  0.1107218E+00
         21   -1    0    0  504  503  0.00000000000E+00  0.00000000000E+00  0.20808260359E+02  0.20808260359E+02  0.00000000000E+00 0. -1.
         21   -1    0    0  503  504 -0.00000000000E+00 -0.00000000000E+00 -0.81140325740E+03  0.81140325740E+03  0.00000000000E+00 0. -1.
         25    2    1    2    0    0  0.33957792765E+02  0.10188036394E+02 -0.39933857248E+03  0.41994181815E+03  0.12499162926E+03 0.  0.
         25    2    1    2    0    0 -0.33957792765E+02 -0.10188036394E+02 -0.39125642455E+03  0.41226969961E+03  0.12501115023E+03 0.  0.
          5    1    3    3  501    0 -0.13343105845E+01  0.63639885492E+02 -0.16356002784E+03  0.17557274309E+03  0.47000000000E+01 0. -1.
         -5    1    3    3    0  501  0.35292103349E+02 -0.53451849098E+02 -0.23577854464E+03  0.24436907506E+03  0.47000000000E+01 0. -1.
          5    1    4    4  502    0  0.27001662200E+02  0.41479313073E+02 -0.13956715057E+03  0.14815769536E+03  0.47000000000E+01 0.  1.
         -5    1    4    4    0  502 -0.60959454965E+02 -0.51667349467E+02 -0.25168927398E+03  0.26411200425E+03  0.47000000000E+01 0.  1.
<mgrwt>
<rscale>  0 0.25987605E+03</rscale>
<asrwt>0</asrwt>
<pdfrwt beam="1">  1       21 0.32012704E-02 0.25987605E+03</pdfrwt>
<pdfrwt beam="2">  1       21 0.12483129E+00 0.25987605E+03</pdfrwt>
<totfact> 0.26620794E+05</totfact>
</mgrwt>
</event>
<event>
 8    1  0.9175398E-006  0.3621889E+03  0.7546771E-02  0.1057721E+00
         21   -1    0    0  504  503  0.00000000000E+00  0.00000000000E+00  0.13320044041E+03  0.13320044041E+03  0.00000000000E+00 0. -1.
         21   -1    0    0  503  504 -0.00000000000E+00 -0.00000000000E+00 -0.24620936568E+03  0.24620936568E+03  0.00000000000E+00 0. -1.
         25    2    1    2    0    0  0.11604439221E+03  0.35329557093E+02 -0.45938594460E+01  0.17424244781E+03  0.12499939402E+03 0.  0.
         25    2    1    2    0    0 -0.11604439221E+03 -0.35329557093E+02 -0.10841506582E+03  0.20516735828E+03  0.12500135935E+03 0.  0.
          5    1    3    3  501    0  0.35452280326E+02  0.74171555113E+02  0.11748110329E+02  0.83176870971E+02  0.47000000000E+01 0.  1.
         -5    1    3    3    0  501  0.80592111884E+02 -0.38841998020E+02 -0.16341969775E+02  0.91065576835E+02  0.47000000000E+01 0.  1.
          5    1    4    4  502    0 -0.56738282078E+02 -0.79399125176E+02 -0.44498832152E+02  0.10735776541E+03  0.47000000000E+01 0.  1.
         -5    1    4    4    0  502 -0.59306110132E+02  0.44069568083E+02 -0.63916233671E+02  0.97809592866E+02  0.47000000000E+01 0.  1.
<mgrwt>
<rscale>  0 0.36218888E+03</rscale>
<asrwt>0</asrwt>
<pdfrwt beam="1">  1       21 0.20492376E-01 0.36218888E+03</pdfrwt>
<pdfrwt beam="2">  1       21 0.37878363E-01 0.36218888E+03</pdfrwt>
<totfact> 0.14154199E+05</totfact>
</mgrwt>
</event>
<event>
 8    1  0.9175398E-006  0.3040356E+03  0.7546771E-02  0.1083240E+00
         21   -1    0    0  504  503  0.00000000000E+00  0.00000000000E+00  0.95545035668E+03  0.95545035668E+03  0.00000000000E+00 0.  1.
         21   -1    0    0  503  504 -0.00000000000E+00 -0.00000000000E+00 -0.24186924984E+02  0.24186924984E+02  0.00000000000E+00 0.  1.
         25    2    1    2    0    0 -0.48434574085E+02 -0.29500338172E+02  0.25511803825E+03  0.28969968877E+03  0.12499807324E+03 0.  0.
         25    2    1    2    0    0  0.48434574085E+02  0.29500338172E+02  0.67614539345E+03  0.68993759290E+03  0.12500044437E+03 0.  0.
          5    1    3    3  501    0  0.10624713770E+02  0.49754517113E+00  0.20787987866E+03  0.20820486557E+03  0.47000000000E+01 0.  1.
         -5    1    3    3    0  501 -0.59059287855E+02 -0.29997883344E+02  0.47238159587E+02  0.81494823199E+02  0.47000000000E+01 0.  1.
          5    1    4    4  502    0  0.52999717877E+02  0.74075586066E+02  0.41166571558E+03  0.42164785536E+03  0.47000000000E+01 0. -1.
         -5    1    4    4    0  502 -0.45651437919E+01 -0.44575247894E+02  0.26447967787E+03  0.26828973754E+03  0.47000000000E+01 0. -1.
<mgrwt>
<rscale>  0 0.30403556E+03</rscale>
<asrwt>0</asrwt>
<pdfrwt beam="1">  1       21 0.14699233E+00 0.30403556E+03</pdfrwt>
<pdfrwt beam="2">  1       21 0.37210661E-02 0.30403556E+03</pdfrwt>
<totfact> 0.13367154E+05</totfact>
</mgrwt>
</event>
<event>
 8    1  0.9175398E-006  0.2607628E+03  0.7546771E-02  0.1106686E+00
         21   -1    0    0  504  503  0.00000000000E+00  0.00000000000E+00  0.18346853035E+03  0.18346853035E+03  0.00000000000E+00 0.  1.
         21   -1    0    0  503  504 -0.00000000000E+00 -0.00000000000E+00 -0.92655194235E+02  0.92655194235E+02  0.00000000000E+00 0.  1.
         25    2    1    2    0    0 -0.76245034523E+01 -0.34857000244E+02  0.35413435907E+02  0.13481658971E+03  0.12509299700E+03 0.  0.
         25    2    1    2    0    0  0.76245034523E+01  0.34857000244E+02  0.55399900205E+02  0.14130713487E+03  0.12500165560E+03 0.  0.
          5    1    3    3  501    0 -0.45731146604E+02 -0.41186942234E+02  0.62158410318E+02  0.87598287389E+02  0.47000000000E+01 0. -1.
         -5    1    3    3    0  501  0.38106643152E+02  0.63299419904E+01 -0.26744974411E+02  0.47218302322E+02  0.47000000000E+01 0. -1.
          5    1    4    4  502    0 -0.48707239050E+02  0.46402967101E+02  0.48788800970E+02  0.83235014217E+02  0.47000000000E+01 0.  1.
         -5    1    4    4    0  502  0.56331742502E+02 -0.11545966857E+02  0.66110992346E+01  0.58072120653E+02  0.47000000000E+01 0.  1.
<mgrwt>
<rscale>  0 0.26076282E+03</rscale>
<asrwt>0</asrwt>
<pdfrwt beam="1">  1       21 0.28225928E-01 0.26076282E+03</pdfrwt>
<pdfrwt beam="2">  1       21 0.14254645E-01 0.26076282E+03</pdfrwt>
<totfact> 0.50955807E+05</totfact>
</mgrwt>
</event>
<event>
 8    1  0.9175398E-006  0.2836127E+03  0.7546771E-02  0.1093732E+00
         21   -1    0    0  504  503  0.00000000000E+00  0.00000000000E+00  0.37849103286E+04  0.37849103286E+04  0.00000000000E+00 0. -1.
         21   -1    0    0  503  504 -0.00000000000E+00 -0.00000000000E+00 -0.53129510083E+01  0.53129510083E+01  0.00000000000E+00 0. -1.
         25    2    1    2    0    0  0.64050189042E+02 -0.73090630960E+01  0.21315727541E+04  0.21362078059E+04  0.12500213956E+03 0.  0.
         25    2    1    2    0    0 -0.64050189042E+02  0.73090630960E+01  0.16480246236E+04  0.16540154738E+04  0.12500471382E+03 0.  0.
          5    1    3    3  501    0  0.10056220607E+03 -0.61154043971E+01  0.17347134958E+04  0.17376429892E+04  0.47000000000E+01 0. -1.
         -5    1    3    3    0  501 -0.36512017030E+02 -0.11936586989E+01  0.39685925831E+03  0.39856481671E+03  0.47000000000E+01 0. -1.
          5    1    4    4  502    0 -0.52418232561E+02  0.29882377505E+02  0.15814454816E+04  0.15826030863E+04  0.47000000000E+01 0.  1.
         -5    1    4    4    0  502 -0.11631956481E+02 -0.22573314409E+02  0.66579141952E+02  0.71412387427E+02  0.47000000000E+01 0.  1.
<mgrwt>
<rscale>  0 0.28361272E+03</rscale>
<asrwt>0</asrwt>
<pdfrwt beam="1">  1       21 0.58229174E+00 0.28361272E+03</pdfrwt>
<pdfrwt beam="2">  1       21 0.81738010E-03 0.28361272E+03</pdfrwt>
<totfact> 0.21732736E+03</totfact>
</mgrwt>
</event>
<event>
 8    1  0.9175398E-006  0.3439437E+03  0.7546771E-02  0.1065129E+00
         21   -1    0    0  504  503  0.00000000000E+00  0.00000000000E+00  0.21292859280E+03  0.21292859280E+03  0.00000000000E+00 0. -1.
         21   -1    0    0  503  504 -0.00000000000E+00 -0.00000000000E+00 -0.13889312646E+03  0.13889312646E+03  0.00000000000E+00 0. -1.
         25    2    1    2    0    0  0.21654699646E+02  0.36883774302E+00  0.15578002454E+03  0.20090357361E+03  0.12500307110E+03 0.  0.
         25    2    1    2    0    0 -0.21654699646E+02 -0.36883774302E+00 -0.81744558211E+02  0.15091814565E+03  0.12500020732E+03 0.  0.
          5    1    3    3  501    0 -0.10761959593E+02 -0.48907159383E+02  0.12383820036E+03  0.13366270939E+03  0.47000000000E+01 0.  1.
         -5    1    3    3    0  501  0.32416659240E+02  0.49275997126E+02  0.31941824181E+02  0.67240864220E+02  0.47000000000E+01 0.  1.
          5    1    4    4  502    0  0.16926905743E+02 -0.54027505621E+02 -0.56187329380E+02  0.79903676289E+02  0.47000000000E+01 0.  1.
         -5    1    4    4    0  502 -0.38581605389E+02  0.53658667878E+02 -0.25557228830E+02  0.71014469359E+02  0.47000000000E+01 0.  1.
<mgrwt>
<rscale>  0 0.34394370E+03</rscale>
<asrwt>0</asrwt>
<pdfrwt beam="1">  1       21 0.32758245E-01 0.34394370E+03</pdfrwt>
<pdfrwt beam="2">  1       21 0.21368173E-01 0.34394370E+03</pdfrwt>
<totfact> 0.17580376E+05</totfact>
</mgrwt>
</event>
<event>
 8    1  0.9175398E-006  0.4202599E+03  0.7546771E-02  0.1036982E+00
         21   -1    0    0  504  503  0.00000000000E+00  0.00000000000E+00  0.22827806348E+02  0.22827806348E+02  0.00000000000E+00 0. -1.
         21   -1    0    0  503  504 -0.00000000000E+00 -0.00000000000E+00 -0.19342465477E+04  0.19342465477E+04  0.00000000000E+00 0. -1.
         25    2    1    2    0    0  0.14276982675E+03 -0.90042012533E+02 -0.98483533345E+03  0.10069842101E+04  0.12500311191E+03 0.  0.
         25    2    1    2    0    0 -0.14276982675E+03  0.90042012533E+02 -0.92658340793E+03  0.95009014394E+03  0.12499472918E+03 0.  0.
          5    1    3    3  501    0 -0.55650593592E+00  0.25190297991E+02 -0.14349537464E+03  0.14576650285E+03  0.47000000000E+01 0.  1.
         -5    1    3    3    0  501  0.14332633269E+03 -0.11523231052E+03 -0.84133995881E+03  0.86121770727E+03  0.47000000000E+01 0.  1.
          5    1    4    4  502    0 -0.21546947894E+02 -0.74290317441E+01 -0.21361568460E+02  0.31589050053E+02  0.47000000000E+01 0.  1.
         -5    1    4    4    0  502 -0.12122287886E+03  0.97471044277E+02 -0.90522183947E+03  0.91850109389E+03  0.47000000000E+01 0.  1.
<mgrwt>
<rscale>  0 0.42025995E+03</rscale>
<asrwt>0</asrwt>
<pdfrwt beam="1">  1       21 0.35119704E-02 0.42025995E+03</pdfrwt>
<pdfrwt beam="2">  1       21 0.29757638E+00 0.42025995E+03</pdfrwt>
<totfact> 0.14740053E+04</totfact>
</mgrwt>
</event>
<event>
 8    1  0.9175398E-006  0.2970927E+03  0.7546771E-02  0.1086703E+00
         21   -1    0    0  504  503  0.00000000000E+00  0.00000000000E+00  0.22472874748E+02  0.22472874748E+02  0.00000000000E+00 0.  1.
         21   -1    0    0  503  504 -0.00000000000E+00 -0.00000000000E+00 -0.98189588257E+03  0.98189588257E+03  0.00000000000E+00 0.  1.
         25    2    1    2    0    0  0.71259586362E+02  0.17997153593E+02 -0.58876061475E+03  0.60635402469E+03  0.12499726235E+03 0.  0.
         25    2    1    2    0    0 -0.71259586362E+02 -0.17997153593E+02 -0.37066239308E+03  0.39801473263E+03  0.12499316606E+03 0.  0.
          5    1    3    3  501    0 -0.15214512323E+02 -0.38152334158E+02 -0.14757480048E+03  0.15325630077E+03  0.47000000000E+01 0. -1.
         -5    1    3    3    0  501  0.86474098685E+02  0.56149487751E+02 -0.44118581426E+03  0.45309772392E+03  0.47000000000E+01 0. -1.
          5    1    4    4  502    0 -0.78139829754E+02  0.15362630866E+02 -0.11447076705E+03  0.13952594716E+03  0.47000000000E+01 0.  1.
         -5    1    4    4    0  502  0.68802433921E+01 -0.33359784459E+02 -0.25619162602E+03  0.25848878547E+03  0.47000000000E+01 0.  1.
<mgrwt>
<rscale>  0 0.29709273E+03</rscale>
<asrwt>0</asrwt>
<pdfrwt beam="1">  1       21 0.34573653E-02 0.29709273E+03</pdfrwt>
<pdfrwt beam="2">  1       21 0.15106091E+00 0.29709273E+03</pdfrwt>
<totfact> 0.14094261E+05</totfact>
</mgrwt>
</event>
<event>
 8    1  0.9175398E-006  0.2773128E+03  0.7546771E-02  0.1097166E+00
         21   -1    0    0  504  503  0.00000000000E+00  0.00000000000E+00  0.46800409993E+02  0.46800409993E+02  0.00000000000E+00 0. -1.
         21   -1    0    0  503  504 -0.00000000000E+00 -0.00000000000E+00 -0.41079969803E+03  0.41079969803E+03  0.00000000000E+00 0. -1.
         25    2    1    2    0    0  0.24925142635E+02 -0.46199159973E+02 -0.13404430286E+03  0.19065290911E+03  0.12500012602E+03 0.  0.
         25    2    1    2    0    0 -0.24925142635E+02  0.46199159973E+02 -0.22995498518E+03  0.26694719892E+03  0.12500354669E+03 0.  0.
          5    1    3    3  501    0  0.45127401442E+02  0.23844027528E+02 -0.19585887970E+02  0.54870001068E+02  0.47000000000E+01 0.  1.
         -5    1    3    3    0  501 -0.20202258807E+02 -0.70043187500E+02 -0.11445841489E+03  0.13578290804E+03  0.47000000000E+01 0.  1.
          5    1    4    4  502    0 -0.19201310828E+02 -0.26660909908E+02 -0.16732057103E+03  0.17058064938E+03  0.47000000000E+01 0. -1.
         -5    1    4    4    0  502 -0.57238318063E+01  0.72860069880E+02 -0.62634414148E+02  0.96366549535E+02  0.47000000000E+01 0. -1.
<mgrwt>
<rscale>  0 0.27731278E+03</rscale>
<asrwt>0</asrwt>
<pdfrwt beam="1">  1       21 0.72000631E-02 0.27731278E+03</pdfrwt>
<pdfrwt beam="2">  1       21 0.63199953E-01 0.27731278E+03</pdfrwt>
<totfact> 0.32698720E+05</totfact>
</mgrwt>
</event>
<event>
 8    1  0.9175398E-006  0.3243660E+03  0.7546771E-02  0.1073657E+00
         21   -1    0    0  504  503  0.00000000000E+00  0.00000000000E+00  0.13824187141E+03  0.13824187141E+03  0.00000000000E+00 0. -1.
         21   -1    0    0  503  504 -0.00000000000E+00 -0.00000000000E+00 -0.19027033478E+03  0.19027033478E+03  0.00000000000E+00 0. -1.
         25    2    1    2    0    0 -0.46551743983E+02  0.92028057201E+02 -0.32576970701E+02  0.16529432841E+03  0.12499891121E+03 0.  0.
         25    2    1    2    0    0  0.46551743983E+02 -0.92028057201E+02 -0.19451492663E+02  0.16321787778E+03  0.12500194750E+03 0.  0.
          5    1    3    3  501    0 -0.50379950686E+02  0.84826126989E+02  0.29048567550E+02  0.10295397286E+03  0.47000000000E+01 0. -1.
         -5    1    3    3    0  501  0.38282067025E+01  0.72019302110E+01 -0.61625538251E+02  0.62340355549E+02  0.47000000000E+01 0. -1.
          5    1    4    4  502    0  0.44076766214E+01  0.10204159953E+02  0.37039936821E+02  0.38956378339E+02  0.47000000000E+01 0.  1.
         -5    1    4    4    0  502  0.42144067362E+02 -0.10223221715E+03 -0.56491429484E+02  0.12426149944E+03  0.47000000000E+01 0.  1.
<mgrwt>
<rscale>  0 0.32436601E+03</rscale>
<asrwt>0</asrwt>
<pdfrwt beam="1">  1       21 0.21267980E-01 0.32436601E+03</pdfrwt>
<pdfrwt beam="2">  1       21 0.29272359E-01 0.32436601E+03</pdfrwt>
<totfact> 0.22256031E+05</totfact>
</mgrwt>
</event>
<event>
 8    1  0.9175398E-006  0.2876218E+03  0.7546771E-02  0.1091597E+00
         21   -1    0    0  504  503  0.00000000000E+00  0.00000000000E+00  0.16433593394E+03  0.16433593394E+03  0.00000000000E+00 0.  1.
         21   -1    0    0  503  504 -0.00000000000E+00 -0.00000000000E+00 -0.12584935578E+03  0.12584935578E+03  0.00000000000E+00 0.  1.
         25    2    1    2    0    0 -0.18183391522E+02 -0.39511463190E+02 -0.37512962235E+02  0.13756423346E+03  0.12499961816E+03 0.  0.
         25    2    1    2    0    0  0.18183391522E+02  0.39511463190E+02  0.75999540395E+02  0.15262105626E+03  0.12500186088E+03 0.  0.
          5    1    3    3  501    0  0.35892002510E+02  0.15276215386E+02  0.17317549472E+02  0.42937001763E+02  0.47000000000E+01 0. -1.
         -5    1    3    3    0  501 -0.54075394032E+02 -0.54787678576E+02 -0.54830511708E+02  0.94627231692E+02  0.47000000000E+01 0. -1.
          5    1    4    4  502    0 -0.41279939172E+02  0.14364510504E+02 -0.99006313009E+01  0.45060903678E+02  0.47000000000E+01 0.  1.
         -5    1    4    4    0  502  0.59463330695E+02  0.25146952686E+02  0.85900171695E+02  0.10756015258E+03  0.47000000000E+01 0.  1.
<mgrwt>
<rscale>  0 0.28762178E+03</rscale>
<asrwt>0</asrwt>
<pdfrwt beam="1">  1       21 0.25282451E-01 0.28762178E+03</pdfrwt>
<pdfrwt beam="2">  1       21 0.19361439E-01 0.28762178E+03</pdfrwt>
<totfact> 0.35613904E+05</totfact>
</mgrwt>
</event>
<event>
 8    1  0.9175398E-006  0.2510394E+03  0.7546771E-02  0.1112650E+00
         21   -1    0    0  504  503  0.00000000000E+00  0.00000000000E+00  0.97091283255E+02  0.97091283255E+02  0.00000000000E+00 0. -1.
         21   -1    0    0  503  504 -0.00000000000E+00 -0.00000000000E+00 -0.16227201525E+03  0.16227201525E+03  0.00000000000E+00 0. -1.
         25    2    1    2    0    0  0.43092592785E+01 -0.27885873503E+01 -0.22087009837E+02  0.12704033582E+03  0.12500025995E+03 0.  0.
         25    2    1    2    0    0 -0.43092592785E+01  0.27885873503E+01 -0.43093722157E+02  0.13232296268E+03  0.12500380646E+03 0.  0.
          5    1    3    3  501    0 -0.30422274074E+02 -0.31842778862E+02 -0.55181782116E+02  0.70757306357E+02  0.47000000000E+01 0.  1.
         -5    1    3    3    0  501  0.34731533353E+02  0.29054191512E+02  0.33094772279E+02  0.56283029464E+02  0.47000000000E+01 0.  1.
          5    1    4    4  502    0  0.22549958409E+02 -0.50018947976E+02 -0.47505931291E+02  0.72727568972E+02  0.47000000000E+01 0.  1.
         -5    1    4    4    0  502 -0.26859217687E+02  0.52807535326E+02  0.44122091335E+01  0.59595393710E+02  0.47000000000E+01 0.  1.
<mgrwt>
<rscale>  0 0.25103942E+03</rscale>
<asrwt>0</asrwt>
<pdfrwt beam="1">  1       21 0.14937121E-01 0.25103942E+03</pdfrwt>
<pdfrwt beam="2">  1       21 0.24964925E-01 0.25103942E+03</pdfrwt>
<totfact> 0.59416925E+05</totfact>
</mgrwt>
</event>
<event>
 8    1  0.9175398E-006  0.2579114E+03  0.7546771E-02  0.1108405E+00
         21   -1    0    0  504  503  0.00000000000E+00  0.00000000000E+00  0.10176634800E+03  0.10176634800E+03  0.00000000000E+00 0. -1.
         21   -1    0    0  503  504 -0.00000000000E+00 -0.00000000000E+00 -0.16340938718E+03  0.16340938718E+03  0.00000000000E+00 0. -1.
         25    2    1    2    0    0  0.16430157322E+02 -0.12433940142E+02 -0.55422167726E+02  0.13833684656E+03  0.12506363781E+03 0.  0.
         25    2    1    2    0    0 -0.16430157322E+02  0.12433940142E+02 -0.62208714482E+01  0.12683888862E+03  0.12499940595E+03 0.  0.
          5    1    3    3  501    0 -0.86519390879E+01  0.31465545464E+02  0.26265597862E+02  0.42153389334E+02  0.47000000000E+01 0. -1.
         -5    1    3    3    0  501  0.25082096410E+02 -0.43899485607E+02 -0.81687765588E+02  0.96183457224E+02  0.47000000000E+01 0. -1.
          5    1    4    4  502    0 -0.52852574762E+02  0.50498923494E+02 -0.93986265921E+01  0.73850931713E+02  0.47000000000E+01 0. -1.
         -5    1    4    4    0  502  0.36422417440E+02 -0.38064983352E+02  0.31777551439E+01  0.52987956910E+02  0.47000000000E+01 0. -1.
<mgrwt>
<rscale>  0 0.25791143E+03</rscale>
<asrwt>0</asrwt>
<pdfrwt beam="1">  1       21 0.15656361E-01 0.25791143E+03</pdfrwt>
<pdfrwt beam="2">  1       21 0.25139906E-01 0.25791143E+03</pdfrwt>
<totfact> 0.53715200E+05</totfact>
</mgrwt>
</event>
<event>
 8    1  0.9175398E-006  0.3054620E+03  0.7546771E-02  0.1082542E+00
         21   -1    0    0  504  503  0.00000000000E+00  0.00000000000E+00  0.68425966078E+03  0.68425966078E+03  0.00000000000E+00 0. -1.
         21   -1    0    0  503  504 -0.00000000000E+00 -0.00000000000E+00 -0.34090509034E+02  0.34090509034E+02  0.00000000000E+00 0. -1.
         25    2    1    2    0    0  0.65272384910E+02  0.52482717755E+02  0.38670135252E+03  0.41494323811E+03  0.12500013967E+03 0.  0.
         25    2    1    2    0    0 -0.65272384910E+02 -0.52482717755E+02  0.26346779922E+03  0.30340693170E+03  0.12500226031E+03 0.  0.
          5    1    3    3  501    0  0.88477064424E+02  0.40796075022E+02  0.16500427046E+03  0.19167944578E+03  0.47000000000E+01 0. -1.
         -5    1    3    3    0  501 -0.23204679514E+02  0.11686642733E+02  0.22169708206E+03  0.22326379233E+03  0.47000000000E+01 0. -1.
          5    1    4    4  502    0  0.35597493527E+02 -0.67636536796E+01  0.41444483748E+02  0.55250916641E+02  0.47000000000E+01 0.  1.
         -5    1    4    4    0  502 -0.10086987844E+03 -0.45719064076E+02  0.22202331548E+03  0.24815601506E+03  0.47000000000E+01 0.  1.
<mgrwt>
<rscale>  0 0.30546201E+03</rscale>
<asrwt>0</asrwt>
<pdfrwt beam="1">  1       21 0.10527071E+00 0.30546201E+03</pdfrwt>
<pdfrwt beam="2">  1       21 0.52446942E-02 0.30546201E+03</pdfrwt>
<totfact> 0.17385345E+05</totfact>
</mgrwt>
</event>
<event>
 8    1  0.9175398E-006  0.3438870E+03  0.7546771E-02  0.1065152E+00
         21   -1    0    0  504  503  0.00000000000E+00  0.00000000000E+00  0.81874766890E+02  0.81874766890E+02  0.00000000000E+00 0.  1.
         21   -1    0    0  503  504 -0.00000000000E+00 -0.00000000000E+00 -0.36109496942E+03  0.36109496942E+03  0.00000000000E+00 0.  1.
         25    2    1    2    0    0 -0.41114908829E+02  0.71881206628E+02 -0.31197651005E+02  0.15315167396E+03  0.12499919286E+03 0.  0.
         25    2    1    2    0    0  0.41114908829E+02 -0.71881206628E+02 -0.24802255153E+03  0.28981806235E+03  0.12498791783E+03 0.  0.
          5    1    3    3  501    0  0.35017736715E+02 -0.10703269089E+02 -0.13698774106E+02  0.39377001738E+02  0.47000000000E+01 0. -1.
         -5    1    3    3    0  501 -0.76132645544E+02  0.82584475717E+02 -0.17498876899E+02  0.11377467222E+03  0.47000000000E+01 0. -1.
          5    1    4    4  502    0  0.63730059919E+02  0.10129955016E+02 -0.10427891898E+03  0.12272049327E+03  0.47000000000E+01 0. -1.
         -5    1    4    4    0  502 -0.22615151090E+02 -0.82011161644E+02 -0.14374363255E+03  0.16709756908E+03  0.47000000000E+01 0. -1.
<mgrwt>
<rscale>  0 0.34388700E+03</rscale>
<asrwt>0</asrwt>
<pdfrwt beam="1">  1       21 0.12596118E-01 0.34388700E+03</pdfrwt>
<pdfrwt beam="2">  1       21 0.55553073E-01 0.34388700E+03</pdfrwt>
<totfact> 0.15756848E+05</totfact>
</mgrwt>
</event>
<event>
 8    1  0.9175398E-006  0.3151680E+03  0.7546771E-02  0.1077895E+00
         21   -1    0    0  504  503  0.00000000000E+00  0.00000000000E+00  0.47660878246E+03  0.47660878246E+03  0.00000000000E+00 0.  1.
         21   -1    0    0  503  504 -0.00000000000E+00 -0.00000000000E+00 -0.52102952852E+02  0.52102952852E+02  0.00000000000E+00 0.  1.
         25    2    1    2    0    0  0.78128967759E+02 -0.40508368423E+02  0.14811390567E+03  0.21286118657E+03  0.12500836844E+03 0.  0.
         25    2    1    2    0    0 -0.78128967759E+02  0.40508368423E+02  0.27639192394E+03  0.31585054875E+03  0.12499603996E+03 0.  0.
          5    1    3    3  501    0  0.40716462957E+02 -0.67494515879E+02  0.27458432104E+02  0.83602604763E+02  0.47000000000E+01 0.  1.
         -5    1    3    3    0  501  0.37412504802E+02  0.26986147455E+02  0.12065547357E+03  0.12925858181E+03  0.47000000000E+01 0.  1.
          5    1    4    4  502    0 -0.14503708359E+02 -0.44223946428E+02  0.81924206389E+02  0.94338648423E+02  0.47000000000E+01 0. -1.
         -5    1    4    4    0  502 -0.63625259400E+02  0.84732314852E+02  0.19446771755E+03  0.22151190032E+03  0.47000000000E+01 0. -1.
<mgrwt>
<rscale>  0 0.31516805E+03</rscale>
<asrwt>0</asrwt>
<pdfrwt beam="1">  1       21 0.73324425E-01 0.31516805E+03</pdfrwt>
<pdfrwt beam="2">  1       21 0.80158392E-02 0.31516805E+03</pdfrwt>
<totfact> 0.19325138E+05</totfact>
</mgrwt>
</event>
<event>
 8    1  0.9175398E-006  0.2664954E+03  0.7546771E-02  0.1103302E+00
         21   -1    0    0  504  503  0.00000000000E+00  0.00000000000E+00  0.32401817440E+03  0.32401817440E+03  0.00000000000E+00 0.  1.
         21   -1    0    0  503  504 -0.00000000000E+00 -0.00000000000E+00 -0.54796137363E+02  0.54796137363E+02  0.00000000000E+00 0.  1.
         25    2    1    2    0    0 -0.32820761326E+02  0.11271872627E+02  0.91355599374E+02  0.15866566167E+03  0.12499875667E+03 0.  0.
         25    2    1    2    0    0  0.32820761326E+02 -0.11271872627E+02  0.17786643767E+03  0.22014865010E+03  0.12499880402E+03 0.  0.
          5    1    3    3  501    0 -0.70576066566E+02  0.40713357799E+02  0.58205522491E+02  0.10024236392E+03  0.47000000000E+01 0.  1.
         -5    1    3    3    0  501  0.37755305240E+02 -0.29441485172E+02  0.33150076883E+02  0.58423297752E+02  0.47000000000E+01 0.  1.
          5    1    4    4  502    0 -0.27661813445E+02 -0.47613643161E+02  0.52582027268E+02  0.76283645231E+02  0.47000000000E+01 0. -1.
         -5    1    4    4    0  502  0.60482574771E+02  0.36341770534E+02  0.12528441040E+03  0.14386500487E+03  0.47000000000E+01 0. -1.
<mgrwt>
<rscale>  0 0.26649536E+03</rscale>
<asrwt>0</asrwt>
<pdfrwt beam="1">  1       21 0.49848949E-01 0.26649536E+03</pdfrwt>
<pdfrwt beam="2">  1       21 0.84301752E-02 0.26649536E+03</pdfrwt>
<totfact> 0.41330344E+05</totfact>
</mgrwt>
</event>
<event>
 8    1  0.9175398E-006  0.4557863E+03  0.7546771E-02  0.1026010E+00
         21   -1    0    0  504  503  0.00000000000E+00  0.00000000000E+00  0.10783740021E+04  0.10783740021E+04  0.00000000000E+00 0.  1.
         21   -1    0    0  503  504 -0.00000000000E+00 -0.00000000000E+00 -0.48160728864E+02  0.48160728864E+02  0.00000000000E+00 0.  1.
         25    2    1    2    0    0  0.14048123064E+03 -0.69025895459E+02  0.24645587280E+03  0.31759162537E+03  0.12499757141E+03 0.  0.
         25    2    1    2    0    0 -0.14048123064E+03  0.69025895459E+02  0.78375740039E+03  0.80894310555E+03  0.12495493167E+03 0.  0.
          5    1    3    3  501    0  0.15559745646E+03 -0.38124433816E+02  0.22674112153E+03  0.27766466665E+03  0.47000000000E+01 0. -1.
         -5    1    3    3    0  501 -0.15116225824E+02 -0.30901461643E+02  0.19714751271E+02  0.39926958719E+02  0.47000000000E+01 0. -1.
          5    1    4    4  502    0  0.14592002652E+02 -0.12618897783E+02  0.15270853453E+03  0.15399399222E+03  0.47000000000E+01 0. -1.
         -5    1    4    4    0  502 -0.15507323329E+03  0.81644793243E+02  0.63104886587E+03  0.65494911333E+03  0.47000000000E+01 0. -1.
<mgrwt>
<rscale>  0 0.45578626E+03</rscale>
<asrwt>0</asrwt>
<pdfrwt beam="1">  1       21 0.16590367E+00 0.45578626E+03</pdfrwt>
<pdfrwt beam="2">  1       21 0.74093438E-02 0.45578626E+03</pdfrwt>
<totfact> 0.27969499E+04</totfact>
</mgrwt>
</event>
<event>
 8    1  0.9175398E-006  0.2886655E+03  0.7546771E-02  0.1091048E+00
         21   -1    0    0  504  503  0.00000000000E+00  0.00000000000E+00  0.18743513773E+02  0.18743513773E+02  0.00000000000E+00 0. -1.
         21   -1    0    0  503  504 -0.00000000000E+00 -0.00000000000E+00 -0.11114210405E+04  0.11114210405E+04  0.00000000000E+00 0. -1.
         25    2    1    2    0    0  0.51509832424E+02 -0.10890872360E+02 -0.35331004477E+03  0.37845881274E+03  0.12502484260E+03 0.  0.
         25    2    1    2    0    0 -0.51509832424E+02  0.10890872360E+02 -0.73936748191E+03  0.75170574149E+03  0.12500149815E+03 0.  0.
          5    1    3    3  501    0  0.66882508266E+02  0.42247127763E+02 -0.22871009576E+03  0.24205058897E+03  0.47000000000E+01 0. -1.
         -5    1    3    3    0  501 -0.15372675842E+02 -0.53138000123E+02 -0.12459994901E+03  0.13640822377E+03  0.47000000000E+01 0. -1.
          5    1    4    4  502    0 -0.68484944854E+01 -0.27411924384E+02 -0.59567215917E+03  0.59636040000E+03  0.47000000000E+01 0. -1.
         -5    1    4    4    0  502 -0.44661337939E+02  0.38302796745E+02 -0.14369532274E+03  0.15534534149E+03  0.47000000000E+01 0. -1.
<mgrwt>
<rscale>  0 0.28866545E+03</rscale>
<asrwt>0</asrwt>
<pdfrwt beam="1">  1       21 0.28836181E-02 0.28866545E+03</pdfrwt>
<pdfrwt beam="2">  1       21 0.17098782E+00 0.28866545E+03</pdfrwt>
<totfact> 0.13627801E+05</totfact>
</mgrwt>
</event>
<event>
 8    1  0.9175398E-006  0.2751329E+03  0.7546771E-02  0.1098377E+00
         21   -1    0    0  504  503  0.00000000000E+00  0.00000000000E+00  0.79711144608E+03  0.79711144608E+03  0.00000000000E+00 0.  1.
         21   -1    0    0  503  504 -0.00000000000E+00 -0.00000000000E+00 -0.23741378541E+02  0.23741378541E+02  0.00000000000E+00 0.  1.
         25    2    1    2    0    0 -0.41471720039E+01  0.22942855382E+02  0.23009166721E+03  0.26289048630E+03  0.12500263524E+03 0.  0.
         25    2    1    2    0    0  0.41471720039E+01 -0.22942855382E+02  0.54327840033E+03  0.55796233833E+03  0.12500790805E+03 0.  0.
          5    1    3    3  501    0 -0.60251726917E+02  0.27031550144E+02  0.15813220181E+03  0.17143178979E+03  0.47000000000E+01 0.  1.
         -5    1    3    3    0  501  0.56104554913E+02 -0.40886947628E+01  0.71959465395E+02  0.91458696508E+02  0.47000000000E+01 0.  1.
          5    1    4    4  502    0 -0.44267703442E+02 -0.30681137054E+02  0.44251093175E+03  0.44580149894E+03  0.47000000000E+01 0.  1.
         -5    1    4    4    0  502  0.48414875446E+02  0.77382816728E+01  0.10076746858E+03  0.11216083939E+03  0.47000000000E+01 0.  1.
<mgrwt>
<rscale>  0 0.27513287E+03</rscale>
<asrwt>0</asrwt>
<pdfrwt beam="1">  1       21 0.12263251E+00 0.27513287E+03</pdfrwt>
<pdfrwt beam="2">  1       21 0.36525204E-02 0.27513287E+03</pdfrwt>
<totfact> 0.22225276E+05</totfact>
</mgrwt>
</event>
<event>
 8    1  0.9175398E-006  0.4026702E+03  0.7546771E-02  0.1042859E+00
         21   -1    0    0  504  503  0.00000000000E+00  0.00000000000E+00  0.24047158875E+02  0.24047158875E+02  0.00000000000E+00 0.  1.
         21   -1    0    0  503  504 -0.00000000000E+00 -0.00000000000E+00 -0.16856800574E+04  0.16856800574E+04  0.00000000000E+00 0.  1.
         25    2    1    2    0    0  0.95944895932E+02 -0.11854771575E+03 -0.65820415500E+03  0.68710732298E+03  0.12499911869E+03 0.  0.
         25    2    1    2    0    0 -0.95944895932E+02  0.11854771575E+03 -0.10034287435E+04  0.10226198933E+04  0.12499287523E+03 0.  0.
          5    1    3    3  501    0 -0.13887504925E+02  0.17139588559E+02 -0.76502925334E+02  0.79758484650E+02  0.47000000000E+01 0. -1.
         -5    1    3    3    0  501  0.10983240086E+03 -0.13568730431E+03 -0.58170122967E+03  0.60734883833E+03  0.47000000000E+01 0. -1.
          5    1    4    4  502    0 -0.19074287985E+01 -0.12609773183E+02 -0.32347626762E+03  0.32376168763E+03  0.47000000000E+01 0. -1.
         -5    1    4    4    0  502 -0.94037467134E+02  0.13115748894E+03 -0.67995247589E+03  0.69885820564E+03  0.47000000000E+01 0. -1.
<mgrwt>
<rscale>  0 0.40267017E+03</rscale>
<asrwt>0</asrwt>
<pdfrwt beam="1">  1       21 0.36995637E-02 0.40267017E+03</pdfrwt>
<pdfrwt beam="2">  1       21 0.25933534E+00 0.40267017E+03</pdfrwt>
<totfact> 0.23091625E+04</totfact>
</mgrwt>
</event>
<event>
 8    1  0.9175398E-006  0.3625694E+03  0.7546771E-02  0.1057571E+00
         21   -1    0    0  504  503  0.00000000000E+00  0.00000000000E+00  0.12122678946E+03  0.12122678946E+03  0.00000000000E+00 0.  1.
         21   -1    0    0  503  504 -0.00000000000E+00 -0.00000000000E+00 -0.27109634115E+03  0.27109634115E+03  0.00000000000E+00 0.  1.
         25    2    1    2    0    0 -0.61504493759E+02 -0.11243503925E+03 -0.44056562119E+02  0.18436783829E+03  0.12500431323E+03 0.  0.
         25    2    1    2    0    0  0.61504493759E+02  0.11243503925E+03 -0.10581298957E+03  0.20795529231E+03  0.12499829613E+03 0.  0.
          5    1    3    3  501    0  0.27630499345E+02 -0.73752727764E+02 -0.36092331488E+02  0.86762063939E+02  0.47000000000E+01 0.  1.
         -5    1    3    3    0  501 -0.89134993103E+02 -0.38682311486E+02 -0.79642306310E+01  0.97605774352E+02  0.47000000000E+01 0.  1.
          5    1    4    4  502    0  0.38844475887E+02 -0.18853947092E+02 -0.40975496970E+02  0.59711355535E+02  0.47000000000E+01 0. -1.
         -5    1    4    4    0  502  0.22660017871E+02  0.13128898634E+03 -0.64837492599E+02  0.14824393678E+03  0.47000000000E+01 0. -1.
<mgrwt>
<rscale>  0 0.36256938E+03</rscale>
<asrwt>0</asrwt>
<pdfrwt beam="1">  1       21 0.18650276E-01 0.36256938E+03</pdfrwt>
<pdfrwt beam="2">  1       21 0.41707129E-01 0.36256938E+03</pdfrwt>
<totfact> 0.13884482E+05</totfact>
</mgrwt>
</event>
<event>
 8    1  0.9175398E-006  0.4259111E+03  0.7546771E-02  0.1035159E+00
         21   -1    0    0  504  503  0.00000000000E+00  0.00000000000E+00  0.54477954866E+02  0.54477954866E+02  0.00000000000E+00 0. -1.
         21   -1    0    0  503  504 -0.00000000000E+00 -0.00000000000E+00 -0.83244806678E+03  0.83244806678E+03  0.00000000000E+00 0. -1.
         25    2    1    2    0    0  0.83095572527E+02 -0.17371742245E+00 -0.70358221289E+03  0.71940744386E+03  0.12495693513E+03 0.  0.
         25    2    1    2    0    0 -0.83095572527E+02  0.17371742245E+00 -0.74387899029E+02  0.16751857779E+03  0.12499604006E+03 0.  0.
          5    1    3    3  501    0  0.10283489051E+03  0.20129208881E+02 -0.36965408471E+03  0.38424787846E+03  0.47000000000E+01 0. -1.
         -5    1    3    3    0  501 -0.19739317987E+02 -0.20302926303E+02 -0.33392812818E+03  0.33515956540E+03  0.47000000000E+01 0. -1.
          5    1    4    4  502    0 -0.11179565591E+03 -0.13587723264E+02 -0.38006863955E+02  0.11895169865E+03  0.47000000000E+01 0. -1.
         -5    1    4    4    0  502  0.28700083385E+02  0.13761440686E+02 -0.36381035074E+02  0.48566879137E+02  0.47000000000E+01 0. -1.
<mgrwt>
<rscale>  0 0.42591111E+03</rscale>
<asrwt>0</asrwt>
<pdfrwt beam="1">  1       21 0.83812237E-02 0.42591111E+03</pdfrwt>
<pdfrwt beam="2">  1       21 0.12806893E+00 0.42591111E+03</pdfrwt>
<totfact> 0.45525383E+04</totfact>
</mgrwt>
</event>
<event>
 8    1  0.9175398E-006  0.2787100E+03  0.7546771E-02  0.1096396E+00
         21   -1    0    0  504  503  0.00000000000E+00  0.00000000000E+00  0.22880662680E+03  0.22880662680E+03  0.00000000000E+00 0. -1.
         21   -1    0    0  503  504 -0.00000000000E+00 -0.00000000000E+00 -0.84874387168E+02  0.84874387168E+02  0.00000000000E+00 0. -1.
         25    2    1    2    0    0  0.28080630581E+02  0.52195336645E+02  0.53082878523E+02  0.14817072631E+03  0.12499558857E+03 0.  0.
         25    2    1    2    0    0 -0.28080630581E+02 -0.52195336645E+02  0.90849361104E+02  0.16551028766E+03  0.12500869540E+03 0.  0.
          5    1    3    3  501    0  0.18091500535E+02 -0.39117770004E+02  0.30407000148E+01  0.43460765965E+02  0.47000000000E+01 0. -1.
         -5    1    3    3    0  501  0.99891300460E+01  0.91313106649E+02  0.50042178508E+02  0.10470996034E+03  0.47000000000E+01 0. -1.
          5    1    4    4  502    0  0.15570829436E+02 -0.67562045353E+02  0.96214962119E+02  0.11868651835E+03  0.47000000000E+01 0. -1.
         -5    1    4    4    0  502 -0.43651460017E+02  0.15366708708E+02 -0.53656010146E+01  0.46823769310E+02  0.47000000000E+01 0. -1.
<mgrwt>
<rscale>  0 0.27871004E+03</rscale>
<asrwt>0</asrwt>
<pdfrwt beam="1">  1       21 0.35201019E-01 0.27871004E+03</pdfrwt>
<pdfrwt beam="2">  1       21 0.13057598E-01 0.27871004E+03</pdfrwt>
<totfact> 0.38517325E+05</totfact>
</mgrwt>
</event>
<event>
 8    1  0.9175398E-006  0.3892868E+03  0.7546771E-02  0.1047554E+00
         21   -1    0    0  504  503  0.00000000000E+00  0.00000000000E+00  0.86728904946E+03  0.86728904946E+03  0.00000000000E+00 0. -1.
         21   -1    0    0  503  504 -0.00000000000E+00 -0.00000000000E+00 -0.43683306538E+02  0.43683306538E+02  0.00000000000E+00 0. -1.
         25    2    1    2    0    0  0.84453283116E+02  0.12192820279E+03  0.37396739272E+03  0.42127849298E+03  0.12500045664E+03 0.  0.
         25    2    1    2    0    0 -0.84453283116E+02 -0.12192820279E+03  0.44963835020E+03  0.48969386302E+03  0.12500635922E+03 0.  0.
          5    1    3    3  501    0 -0.13137074501E+02  0.90131198147E+02  0.17308479662E+03  0.19564419855E+03  0.47000000000E+01 0.  1.
         -5    1    3    3    0  501  0.97590357616E+02  0.31797004647E+02  0.20088259611E+03  0.22563429443E+03  0.47000000000E+01 0.  1.
          5    1    4    4  502    0 -0.27193008739E+02 -0.99781651065E+02  0.39168848628E+03  0.40513923273E+03  0.47000000000E+01 0.  1.
         -5    1    4    4    0  502 -0.57260274377E+02 -0.22146551729E+02  0.57949863921E+02  0.84554630291E+02  0.47000000000E+01 0.  1.
<mgrwt>
<rscale>  0 0.38928680E+03</rscale>
<asrwt>0</asrwt>
<pdfrwt beam="1">  1       21 0.13342907E+00 0.38928680E+03</pdfrwt>
<pdfrwt beam="2">  1       21 0.67205093E-02 0.38928680E+03</pdfrwt>
<totfact> 0.61002851E+04</totfact>
</mgrwt>
</event>
<event>
 8    1  0.9175398E-006  0.2970074E+03  0.7546771E-02  0.1086746E+00
         21   -1    0    0  504  503  0.00000000000E+00  0.00000000000E+00  0.50471533160E+02  0.50471533160E+02  0.00000000000E+00 0. -1.
         21   -1    0    0  503  504 -0.00000000000E+00 -0.00000000000E+00 -0.43694631429E+03  0.43694631429E+03  0.00000000000E+00 0. -1.
         25    2    1    2    0    0  0.38327572527E+02  0.16842775882E+01 -0.77599645048E+02  0.15200211123E+03  0.12494437682E+03 0.  0.
         25    2    1    2    0    0 -0.38327572527E+02 -0.16842775882E+01 -0.30887513608E+03  0.33541573622E+03  0.12501210665E+03 0.  0.
          5    1    3    3  501    0 -0.93781949255E+01 -0.33733180137E+02 -0.84898937538E+02  0.91955410811E+02  0.47000000000E+01 0.  1.
         -5    1    3    3    0  501  0.47705767452E+02  0.35417457725E+02  0.72992924900E+01  0.60046700415E+02  0.47000000000E+01 0.  1.
          5    1    4    4  502    0 -0.37417688981E+02  0.58871575197E+02 -0.17203031564E+03  0.18569454843E+03  0.47000000000E+01 0. -1.
         -5    1    4    4    0  502 -0.90988354591E+00 -0.60555852785E+02 -0.13684482043E+03  0.14972118779E+03  0.47000000000E+01 0. -1.
<mgrwt>
<rscale>  0 0.29700741E+03</rscale>
<asrwt>0</asrwt>
<pdfrwt beam="1">  1       21 0.77648511E-02 0.29700741E+03</pdfrwt>
<pdfrwt beam="2">  1       21 0.67222511E-01 0.29700741E+03</pdfrwt>
<totfact> 0.24910816E+05</totfact>
</mgrwt>
</event>
<event>
 8    1  0.9175398E-006  0.3022291E+03  0.7546771E-02  0.1084132E+00
         21   -1    0    0  504  503  0.00000000000E+00  0.00000000000E+00  0.46894809117E+03  0.46894809117E+03  0.00000000000E+00 0. -1.
         21   -1    0    0  503  504 -0.00000000000E+00 -0.00000000000E+00 -0.48695377708E+02  0.48695377708E+02  0.00000000000E+00 0. -1.
         25    2    1    2    0    0 -0.54740606664E+02 -0.54516711434E+02  0.14979019324E+03  0.20983970426E+03  0.12500797434E+03 0.  0.
         25    2    1    2    0    0  0.54740606664E+02  0.54516711434E+02  0.27046252023E+03  0.30780376462E+03  0.12499830729E+03 0.  0.
          5    1    3    3  501    0 -0.13905102134E+02 -0.43329475735E+02 -0.79628491044E+01  0.46435894507E+02  0.47000000000E+01 0.  1.
         -5    1    3    3    0  501 -0.40835504530E+02 -0.11187235700E+02  0.15775304234E+03  0.16340380975E+03  0.47000000000E+01 0.  1.
          5    1    4    4  502    0  0.62972832120E+02  0.87103142188E+02  0.23635421583E+03  0.25968815973E+03  0.47000000000E+01 0. -1.
         -5    1    4    4    0  502 -0.82322254561E+01 -0.32586430753E+02  0.34108304395E+02  0.48115604890E+02  0.47000000000E+01 0. -1.
<mgrwt>
<rscale>  0 0.30222908E+03</rscale>
<asrwt>0</asrwt>
<pdfrwt beam="1">  1       21 0.72145857E-01 0.30222908E+03</pdfrwt>
<pdfrwt beam="2">  1       21 0.74915969E-02 0.30222908E+03</pdfrwt>
<totfact> 0.22634183E+05</totfact>
</mgrwt>
</event>
<event>
 8    1  0.9175398E-006  0.2519397E+03  0.7546771E-02  0.1112085E+00
         21   -1    0    0  504  503  0.00000000000E+00  0.00000000000E+00  0.47554078664E+03  0.47554078664E+03  0.00000000000E+00 0.  1.
         21   -1    0    0  503  504 -0.00000000000E+00 -0.00000000000E+00 -0.33369184320E+02  0.33369184320E+02  0.00000000000E+00 0.  1.
         25    2    1    2    0    0  0.84259450351E+01 -0.11161977473E+02  0.23363009171E+03  0.26534085576E+03  0.12500865447E+03 0.  0.
         25    2    1    2    0    0 -0.84259450351E+01  0.11161977473E+02  0.20854151061E+03  0.24356911520E+03  0.12506304787E+03 0.  0.
          5    1    3    3  501    0  0.59101079084E+00  0.52893202614E+02  0.15303131706E+03  0.16198368491E+03  0.47000000000E+01 0. -1.
         -5    1    3    3    0  501  0.78349342443E+01 -0.64055180087E+02  0.80598774651E+02  0.10335717085E+03  0.47000000000E+01 0. -1.
          5    1    4    4  502    0  0.36081266078E+02 -0.31636763831E+02  0.15288608509E+03  0.16030903781E+03  0.47000000000E+01 0.  1.
         -5    1    4    4    0  502 -0.44507211113E+02  0.42798741303E+02  0.55655425518E+02  0.83260077395E+02  0.47000000000E+01 0.  1.
<mgrwt>
<rscale>  0 0.25193974E+03</rscale>
<asrwt>0</asrwt>
<pdfrwt beam="1">  1       21 0.73160116E-01 0.25193974E+03</pdfrwt>
<pdfrwt beam="2">  1       21 0.51337210E-02 0.25193974E+03</pdfrwt>
<totfact> 0.42630309E+05</totfact>
</mgrwt>
</event>
<event>
 8    1  0.9175398E-006  0.3108698E+03  0.7546771E-02  0.1079930E+00
         21   -1    0    0  504  503  0.00000000000E+00  0.00000000000E+00  0.16462839524E+03  0.16462839524E+03  0.00000000000E+00 0.  1.
         21   -1    0    0  503  504 -0.00000000000E+00 -0.00000000000E+00 -0.14675483600E+03  0.14675483600E+03  0.00000000000E+00 0.  1.
         25    2    1    2    0    0 -0.15153417515E+02  0.82343223564E+02  0.48023225212E+02  0.15794322056E+03  0.12501919146E+03 0.  0.
         25    2    1    2    0    0  0.15153417515E+02 -0.82343223564E+02 -0.30149665969E+02  0.15344001068E+03  0.12499920796E+03 0.  0.
          5    1    3    3  501    0  0.41754090281E+00  0.76083299022E+02 -0.27040126004E+02  0.80883256270E+02  0.47000000000E+01 0.  1.
         -5    1    3    3    0  501 -0.15570958418E+02  0.62599245426E+01  0.75063351216E+02  0.77059964295E+02  0.47000000000E+01 0.  1.
          5    1    4    4  502    0  0.24379278338E+02 -0.10993211530E+03 -0.43865226908E+02  0.12093662521E+03  0.47000000000E+01 0.  1.
         -5    1    4    4    0  502 -0.92258608221E+01  0.27588891732E+02  0.13715560939E+02  0.32503385466E+02  0.47000000000E+01 0.  1.
<mgrwt>
<rscale>  0 0.31086983E+03</rscale>
<asrwt>0</asrwt>
<pdfrwt beam="1">  1       21 0.25327446E-01 0.31086983E+03</pdfrwt>
<pdfrwt beam="2">  1       21 0.22577667E-01 0.31086983E+03</pdfrwt>
<totfact> 0.26407068E+05</totfact>
</mgrwt>
</event>
<event>
 8    1  0.9175398E-006  0.2926316E+03  0.7546771E-02  0.1088983E+00
         21   -1    0    0  504  503  0.00000000000E+00  0.00000000000E+00  0.33193269405E+02  0.33193269405E+02  0.00000000000E+00 0. -1.
         21   -1    0    0  503  504 -0.00000000000E+00 -0.00000000000E+00 -0.64495950911E+03  0.64495950911E+03  0.00000000000E+00 0. -1.
         25    2    1    2    0    0 -0.46294555210E+02  0.60010340887E+02 -0.32028248101E+03  0.35206685052E+03  0.12500309091E+03 0.  0.
         25    2    1    2    0    0  0.46294555210E+02 -0.60010340887E+02 -0.29148375870E+03  0.32608592800E+03  0.12499929599E+03 0.  0.
          5    1    3    3  501    0 -0.50762179380E+02  0.83680985745E+02 -0.31058889993E+03  0.32567907669E+03  0.47000000000E+01 0. -1.
         -5    1    3    3    0  501  0.44676241703E+01 -0.23670644858E+02 -0.96935810782E+01  0.26387773833E+02  0.47000000000E+01 0. -1.
          5    1    4    4  502    0  0.43136972359E+02 -0.39072496401E+02 -0.29781939255E+03  0.30348960269E+03  0.47000000000E+01 0. -1.
         -5    1    4    4    0  502  0.31575828506E+01 -0.20937844486E+02  0.63356338547E+01  0.22596325310E+02  0.47000000000E+01 0. -1.
<mgrwt>
<rscale>  0 0.29263161E+03</rscale>
<asrwt>0</asrwt>
<pdfrwt beam="1">  1       21 0.51066571E-02 0.29263161E+03</pdfrwt>
<pdfrwt beam="2">  1       21 0.99224535E-01 0.29263161E+03</pdfrwt>
<totfact> 0.21065826E+05</totfact>
</mgrwt>
</event>
<event>
 8    1  0.9175398E-006  0.2963629E+03  0.7546771E-02  0.1087073E+00
         21   -1    0    0  504  503  0.00000000000E+00  0.00000000000E+00  0.44196097382E+03  0.44196097382E+03  0.00000000000E+00 0.  1.
         21   -1    0    0  503  504 -0.00000000000E+00 -0.00000000000E+00 -0.49682530803E+02  0.49682530803E+02  0.00000000000E+00 0.  1.
         25    2    1    2    0    0 -0.20201968297E+02  0.60072472145E+02  0.27596327635E+03  0.30951280735E+03  0.12500250632E+03 0.  0.
         25    2    1    2    0    0  0.20201968297E+02 -0.60072472145E+02  0.11631516667E+03  0.18213069728E+03  0.12500220582E+03 0.  0.
          5    1    3    3  501    0 -0.38467609265E+02 -0.17177193152E+02  0.32565525170E+02  0.53454806675E+02  0.47000000000E+01 0.  1.
         -5    1    3    3    0  501  0.18265640968E+02  0.77249665297E+02  0.24339775118E+03  0.25605800067E+03  0.47000000000E+01 0.  1.
          5    1    4    4  502    0  0.82254351567E+01 -0.83971208537E+02  0.26892761455E+02  0.88679942858E+02  0.47000000000E+01 0. -1.
         -5    1    4    4    0  502  0.11976533140E+02  0.23898736392E+02  0.89422405213E+02  0.93450754418E+02  0.47000000000E+01 0. -1.
<mgrwt>
<rscale>  0 0.29636288E+03</rscale>
<asrwt>0</asrwt>
<pdfrwt beam="1">  1       21 0.67993993E-01 0.29636288E+03</pdfrwt>
<pdfrwt beam="2">  1       21 0.76434666E-02 0.29636288E+03</pdfrwt>
<totfact> 0.24972768E+05</totfact>
</mgrwt>
</event>
<event>
 8    1  0.9175398E-006  0.2765536E+03  0.7546771E-02  0.1097586E+00
         21   -1    0    0  504  503  0.00000000000E+00  0.00000000000E+00  0.29990219613E+03  0.29990219613E+03  0.00000000000E+00 0.  1.
         21   -1    0    0  503  504 -0.00000000000E+00 -0.00000000000E+00 -0.63755694746E+02  0.63755694746E+02  0.00000000000E+00 0.  1.
         25    2    1    2    0    0  0.95626390999E+01 -0.58345144894E+02  0.11849392886E+03  0.18210229675E+03  0.12499934123E+03 0.  0.
         25    2    1    2    0    0 -0.95626390999E+01  0.58345144894E+02  0.11765257252E+03  0.18155559412E+03  0.12499882374E+03 0.  0.
          5    1    3    3  501    0  0.48638389283E+02 -0.19702623954E+02  0.11540032934E+03  0.12685902535E+03  0.47000000000E+01 0. -1.
         -5    1    3    3    0  501 -0.39075750183E+02 -0.38642520940E+02  0.30935995222E+01  0.55243271400E+02  0.47000000000E+01 0. -1.
          5    1    4    4  502    0  0.14516523398E+02  0.54418444405E+01  0.12200730366E+03  0.12307808606E+03  0.47000000000E+01 0. -1.
         -5    1    4    4    0  502 -0.24079162498E+02  0.52903300453E+02 -0.43547311349E+01  0.58477508059E+02  0.47000000000E+01 0. -1.
<mgrwt>
<rscale>  0 0.27655360E+03</rscale>
<asrwt>0</asrwt>
<pdfrwt beam="1">  1       21 0.46138799E-01 0.27655360E+03</pdfrwt>
<pdfrwt beam="2">  1       21 0.98085686E-02 0.27655360E+03</pdfrwt>
<totfact> 0.37093192E+05</totfact>
</mgrwt>
</event>
<event>
 8    1  0.9175398E-006  0.3081476E+03  0.7546771E-02  0.1081237E+00
         21   -1    0    0  504  503  0.00000000000E+00  0.00000000000E+00  0.15820141613E+03  0.15820141613E+03  0.00000000000E+00 0.  1.
         21   -1    0    0  503  504 -0.00000000000E+00 -0.00000000000E+00 -0.15005385618E+03  0.15005385618E+03  0.00000000000E+00 0.  1.
         25    2    1    2    0    0 -0.67964735003E+02  0.52062009587E+02  0.32062761309E+02  0.15486821273E+03  0.12500593829E+03 0.  0.
         25    2    1    2    0    0  0.67964735003E+02 -0.52062009587E+02 -0.23915201356E+02  0.15338705958E+03  0.12500398051E+03 0.  0.
          5    1    3    3  501    0 -0.80334753425E+02  0.84260901262E+02  0.21433687060E+02  0.11846967979E+03  0.47000000000E+01 0.  1.
         -5    1    3    3    0  501  0.12370018422E+02 -0.32198891675E+02  0.10629074249E+02  0.36398532941E+02  0.47000000000E+01 0.  1.
          5    1    4    4  502    0 -0.13474105455E+02  0.29644139844E+02 -0.18631621508E+02  0.37809441478E+02  0.47000000000E+01 0.  1.
         -5    1    4    4    0  502  0.81438840458E+02 -0.81706149430E+02 -0.52835798477E+01  0.11557761810E+03  0.47000000000E+01 0.  1.
<mgrwt>
<rscale>  0 0.30814758E+03</rscale>
<asrwt>0</asrwt>
<pdfrwt beam="1">  1       21 0.24338679E-01 0.30814758E+03</pdfrwt>
<pdfrwt beam="2">  1       21 0.23085209E-01 0.30814758E+03</pdfrwt>
<totfact> 0.27342802E+05</totfact>
</mgrwt>
</event>
<event>
 8    1  0.9175398E-006  0.4333162E+03  0.7546771E-02  0.1032818E+00
         21   -1    0    0  504  503  0.00000000000E+00  0.00000000000E+00  0.13379210856E+03  0.13379210856E+03  0.00000000000E+00 0.  1.
         21   -1    0    0  503  504 -0.00000000000E+00 -0.00000000000E+00 -0.35084825143E+03  0.35084825143E+03  0.00000000000E+00 0.  1.
         25    2    1    2    0    0 -0.17182971808E+03  0.23979921757E+02 -0.14750609161E+03  0.25977520179E+03  0.12499847894E+03 0.  0.
         25    2    1    2    0    0  0.17182971808E+03 -0.23979921757E+02 -0.69550051262E+02  0.22486515820E+03  0.12500656415E+03 0.  0.
          5    1    3    3  501    0 -0.17739045686E+03  0.46372912354E+02 -0.14881749668E+03  0.23619178331E+03  0.47000000000E+01 0.  1.
         -5    1    3    3    0  501  0.55607387852E+01 -0.22392990597E+02  0.13114050654E+01  0.23583418475E+02  0.47000000000E+01 0.  1.
          5    1    4    4  502    0  0.19160818647E+03 -0.25193344216E+02 -0.60329115517E+02  0.20250949087E+03  0.47000000000E+01 0. -1.
         -5    1    4    4    0  502 -0.19778468388E+02  0.12134224585E+01 -0.92209357449E+01  0.22355667332E+02  0.47000000000E+01 0. -1.
<mgrwt>
<rscale>  0 0.43331618E+03</rscale>
<asrwt>0</asrwt>
<pdfrwt beam="1">  1       21 0.20583402E-01 0.43331618E+03</pdfrwt>
<pdfrwt beam="2">  1       21 0.53976653E-01 0.43331618E+03</pdfrwt>
<totfact> 0.65927644E+04</totfact>
</mgrwt>
</event>
<event>
 8    1  0.9175398E-006  0.3077971E+03  0.7546771E-02  0.1081407E+00
         21   -1    0    0  504  503  0.00000000000E+00  0.00000000000E+00  0.98761971383E+02  0.98761971383E+02  0.00000000000E+00 0. -1.
         21   -1    0    0  503  504 -0.00000000000E+00 -0.00000000000E+00 -0.23981669779E+03  0.23981669779E+03  0.00000000000E+00 0. -1.
         25    2    1    2    0    0 -0.28444569183E+02  0.26269059037E+01 -0.16412848987E+03  0.20827702733E+03  0.12500065910E+03 0.  0.
         25    2    1    2    0    0  0.28444569183E+02 -0.26269059037E+01  0.23073763458E+02  0.13030164185E+03  0.12502049895E+03 0.  0.
          5    1    3    3  501    0 -0.60459924801E+02  0.29407142441E+02 -0.42688573830E+02  0.79778360908E+02  0.47000000000E+01 0. -1.
         -5    1    3    3    0  501  0.32015355618E+02 -0.26780236537E+02 -0.12143991604E+03  0.12849866642E+03  0.47000000000E+01 0. -1.
          5    1    4    4  502    0 -0.32269845607E+02 -0.35481589835E+02  0.35689097004E+02  0.59967389452E+02  0.47000000000E+01 0. -1.
         -5    1    4    4    0  502  0.60714414790E+02  0.32854683931E+02 -0.12615333546E+02  0.70334252396E+02  0.47000000000E+01 0. -1.
<mgrwt>
<rscale>  0 0.30779714E+03</rscale>
<asrwt>0</asrwt>
<pdfrwt beam="1">  1       21 0.15194150E-01 0.30779714E+03</pdfrwt>
<pdfrwt beam="2">  1       21 0.36894876E-01 0.30779714E+03</pdfrwt>
<totfact> 0.26409203E+05</totfact>
</mgrwt>
</event>
<event>
 8    1  0.9175398E-006  0.2588483E+03  0.7546771E-02  0.1107837E+00
         21   -1    0    0  504  503  0.00000000000E+00  0.00000000000E+00  0.10820897810E+03  0.10820897810E+03  0.00000000000E+00 0.  1.
         21   -1    0    0  503  504 -0.00000000000E+00 -0.00000000000E+00 -0.15479866580E+03  0.15479866580E+03  0.00000000000E+00 0.  1.
         25    2    1    2    0    0  0.49123883975E+01 -0.20044761109E+02 -0.50188548322E+02  0.13626314291E+03  0.12499131860E+03 0.  0.
         25    2    1    2    0    0 -0.49123883975E+01  0.20044761109E+02  0.35988606136E+01  0.12674450099E+03  0.12500117090E+03 0.  0.
          5    1    3    3  501    0 -0.19012851635E+02  0.16781997814E+02 -0.79284221425E+02  0.83373867278E+02  0.47000000000E+01 0. -1.
         -5    1    3    3    0  501  0.23925240032E+02 -0.36826758923E+02  0.29095673103E+02  0.52889275630E+02  0.47000000000E+01 0. -1.
          5    1    4    4  502    0  0.17233372043E+02 -0.47323871841E+02 -0.15943184808E+02  0.53035960440E+02  0.47000000000E+01 0. -1.
         -5    1    4    4    0  502 -0.22145760441E+02  0.67368632950E+02  0.19542045421E+02  0.73708540552E+02  0.47000000000E+01 0. -1.
<mgrwt>
<rscale>  0 0.25884826E+03</rscale>
<asrwt>0</asrwt>
<pdfrwt beam="1">  1       21 0.16647535E-01 0.25884826E+03</pdfrwt>
<pdfrwt beam="2">  1       21 0.23815179E-01 0.25884826E+03</pdfrwt>
<totfact> 0.53205474E+05</totfact>
</mgrwt>
</event>
<event>
 8    1  0.9175398E-006  0.3217167E+03  0.7546771E-02  0.1074862E+00
         21   -1    0    0  504  503  0.00000000000E+00  0.00000000000E+00  0.23673279588E+03  0.23673279588E+03  0.00000000000E+00 0.  1.
         21   -1    0    0  503  504 -0.00000000000E+00 -0.00000000000E+00 -0.10930217306E+03  0.10930217306E+03  0.00000000000E+00 0.  1.
         25    2    1    2    0    0  0.55130849231E+02 -0.47894227007E+02 -0.11702751807E+02  0.14524154639E+03  0.12499953952E+03 0.  0.
         25    2    1    2    0    0 -0.55130849231E+02  0.47894227007E+02  0.13913337462E+03  0.20079342255E+03  0.12500654019E+03 0.  0.
          5    1    3    3  501    0 -0.24185665902E+02  0.79184455290E+01 -0.36765066171E+02  0.44960074569E+02  0.47000000000E+01 0.  1.
         -5    1    3    3    0  501  0.79316515133E+02 -0.55812672536E+02  0.25062314364E+02  0.10028147182E+03  0.47000000000E+01 0.  1.
          5    1    4    4  502    0 -0.92085204251E+02  0.13355533501E+02  0.99940289177E+02  0.13663164537E+03  0.47000000000E+01 0. -1.
         -5    1    4    4    0  502  0.36954355020E+02  0.34538693506E+02  0.39193085443E+02  0.64161777177E+02  0.47000000000E+01 0. -1.
<mgrwt>
<rscale>  0 0.32171670E+03</rscale>
<asrwt>0</asrwt>
<pdfrwt beam="1">  1       21 0.36420430E-01 0.32171670E+03</pdfrwt>
<pdfrwt beam="2">  1       21 0.16815719E-01 0.32171670E+03</pdfrwt>
<totfact> 0.22407355E+05</totfact>
</mgrwt>
</event>
<event>
 8    1  0.9175398E-006  0.2669745E+03  0.7546771E-02  0.1103024E+00
         21   -1    0    0  504  503  0.00000000000E+00  0.00000000000E+00  0.11456734676E+02  0.11456734676E+02  0.00000000000E+00 0.  1.
         21   -1    0    0  503  504 -0.00000000000E+00 -0.00000000000E+00 -0.15553163538E+04  0.15553163538E+04  0.00000000000E+00 0.  1.
         25    2    1    2    0    0 -0.27612906618E+02  0.11553214556E+02 -0.98333184887E+03  0.99169726020E+03  0.12500392594E+03 0.  0.
         25    2    1    2    0    0  0.27612906618E+02 -0.11553214556E+02 -0.56052777030E+03  0.57507582832E+03  0.12499951067E+03 0.  0.
          5    1    3    3  501    0 -0.43036208578E+02  0.32824771471E+02 -0.18236379872E+03  0.19028459200E+03  0.47000000000E+01 0. -1.
         -5    1    3    3    0  501  0.15423301960E+02 -0.21271556915E+02 -0.80096805016E+03  0.80141266820E+03  0.47000000000E+01 0. -1.
          5    1    4    4  502    0  0.65280509174E+02 -0.41982820478E+02 -0.39340055762E+03  0.40101145972E+03  0.47000000000E+01 0.  1.
         -5    1    4    4    0  502 -0.37667602556E+02  0.30429605922E+02 -0.16712721268E+03  0.17406436860E+03  0.47000000000E+01 0.  1.
<mgrwt>
<rscale>  0 0.26697451E+03</rscale>
<asrwt>0</asrwt>
<pdfrwt beam="1">  1       21 0.17625753E-02 0.26697451E+03</pdfrwt>
<pdfrwt beam="2">  1       21 0.23927934E+00 0.26697451E+03</pdfrwt>
<totfact> 0.11141136E+05</totfact>
</mgrwt>
</event>
<event>
 8    1  0.9175398E-006  0.2950974E+03  0.7546771E-02  0.1087717E+00
         21   -1    0    0  504  503  0.00000000000E+00  0.00000000000E+00  0.26657702993E+03  0.26657702993E+03  0.00000000000E+00 0.  1.
         21   -1    0    0  503  504 -0.00000000000E+00 -0.00000000000E+00 -0.81667278534E+02  0.81667278534E+02  0.00000000000E+00 0.  1.
         25    2    1    2    0    0 -0.47672267508E+02 -0.50303749204E+02  0.49233174066E+02  0.15117665826E+03  0.12500945685E+03 0.  0.
         25    2    1    2    0    0  0.47672267508E+02  0.50303749204E+02  0.13567657733E+03  0.19706765019E+03  0.12499765136E+03 0.  0.
          5    1    3    3  501    0 -0.45890276007E+02 -0.88429919990E+02  0.17380325134E+02  0.10124195713E+03  0.47000000000E+01 0.  1.
         -5    1    3    3    0  501 -0.17819915014E+01  0.38126170786E+02  0.31852848932E+02  0.49934701136E+02  0.47000000000E+01 0.  1.
          5    1    4    4  502    0  0.51877030466E+02  0.68979345675E+02  0.14970956407E+03  0.17287110804E+03  0.47000000000E+01 0.  1.
         -5    1    4    4    0  502 -0.42047629579E+01 -0.18675596471E+02 -0.14032986749E+02  0.24196542153E+02  0.47000000000E+01 0.  1.
<mgrwt>
<rscale>  0 0.29509741E+03</rscale>
<asrwt>0</asrwt>
<pdfrwt beam="1">  1       21 0.41011850E-01 0.29509741E+03</pdfrwt>
<pdfrwt beam="2">  1       21 0.12564197E-01 0.29509741E+03</pdfrwt>
<totfact> 0.30216829E+05</totfact>
</mgrwt>
</event>
<event>
 8    1  0.9175398E-006  0.2694497E+03  0.7546771E-02  0.1101595E+00
         21   -1    0    0  504  503  0.00000000000E+00  0.00000000000E+00  0.36432411615E+02  0.36432411615E+02  0.00000000000E+00 0.  1.
         21   -1    0    0  503  504 -0.00000000000E+00 -0.00000000000E+00 -0.49820444787E+03  0.49820444787E+03  0.00000000000E+00 0.  1.
         25    2    1    2    0    0 -0.42808507913E+02  0.24308771706E+02 -0.25115102562E+03  0.28481632073E+03  0.12498005503E+03 0.  0.
         25    2    1    2    0    0  0.42808507913E+02 -0.24308771706E+02 -0.21062101063E+03  0.24982053875E+03  0.12500242689E+03 0.  0.
          5    1    3    3  501    0  0.35033882884E+02  0.25128910968E+02 -0.37351750498E+02  0.57237036800E+02  0.47000000000E+01 0. -1.
         -5    1    3    3    0  501 -0.77842390797E+02 -0.82013926213E+00 -0.21379927512E+03  0.22757928393E+03  0.47000000000E+01 0. -1.
          5    1    4    4  502    0  0.20188334754E+02 -0.70249935501E+02 -0.16711878824E+03  0.18246479573E+03  0.47000000000E+01 0.  1.
         -5    1    4    4    0  502  0.22620173159E+02  0.45941163795E+02 -0.43502222395E+02  0.67355743021E+02  0.47000000000E+01 0.  1.
<mgrwt>
<rscale>  0 0.26944973E+03</rscale>
<asrwt>0</asrwt>
<pdfrwt beam="1">  1       21 0.56049866E-02 0.26944973E+03</pdfrwt>
<pdfrwt beam="2">  1       21 0.76646836E-01 0.26944973E+03</pdfrwt>
<totfact> 0.32904702E+05</totfact>
</mgrwt>
</event>
<event>
 8    1  0.9175398E-006  0.2545200E+03  0.7546771E-02  0.1110481E+00
         21   -1    0    0  504  503  0.00000000000E+00  0.00000000000E+00  0.61561629079E+03  0.61561629079E+03  0.00000000000E+00 0.  1.
         21   -1    0    0  503  504 -0.00000000000E+00 -0.00000000000E+00 -0.26307154848E+02  0.26307154848E+02  0.00000000000E+00 0.  1.
         25    2    1    2    0    0  0.21243019343E+02 -0.70405557684E+01  0.31576025931E+03  0.34033738297E+03  0.12499663030E+03 0.  0.
         25    2    1    2    0    0 -0.21243019343E+02  0.70405557684E+01  0.27354887663E+03  0.30158606267E+03  0.12499731996E+03 0.  0.
          5    1    3    3  501    0 -0.79879030226E+01 -0.42881830906E+02  0.27510098793E+03  0.27857728116E+03  0.47000000000E+01 0. -1.
         -5    1    3    3    0  501  0.29230922365E+02  0.35841275138E+02  0.40659271378E+02  0.61760101804E+02  0.47000000000E+01 0. -1.
          5    1    4    4  502    0 -0.60226448681E+02  0.41583324165E+02  0.18081900434E+03  0.19512560134E+03  0.47000000000E+01 0. -1.
         -5    1    4    4    0  502  0.38983429339E+02 -0.34542768397E+02  0.92729872292E+02  0.10646046133E+03  0.47000000000E+01 0. -1.
<mgrwt>
<rscale>  0 0.25452004E+03</rscale>
<asrwt>0</asrwt>
<pdfrwt beam="1">  1       21 0.94710188E-01 0.25452004E+03</pdfrwt>
<pdfrwt beam="2">  1       21 0.40472550E-02 0.25452004E+03</pdfrwt>
<totfact> 0.35263572E+05</totfact>
</mgrwt>
</event>
<event>
 8    1  0.9175398E-006  0.5613473E+03  0.7546771E-02  0.9989011E-01
         21   -1    0    0  504  503  0.00000000000E+00  0.00000000000E+00  0.17786875458E+04  0.17786875458E+04  0.00000000000E+00 0. -1.
         21   -1    0    0  503  504 -0.00000000000E+00 -0.00000000000E+00 -0.44289793663E+02  0.44289793663E+02  0.00000000000E+00 0. -1.
         25    2    1    2    0    0  0.21350159161E+03  0.45179468888E+02  0.46251642380E+03  0.52647003753E+03  0.12500057639E+03 0.  0.
         25    2    1    2    0    0 -0.21350159161E+03 -0.45179468888E+02  0.12718813283E+04  0.12965073019E+04  0.12499982633E+03 0.  0.
          5    1    3    3  501    0  0.22621973087E+03  0.57123155944E+02  0.43208946265E+03  0.49108228976E+03  0.47000000000E+01 0.  1.
         -5    1    3    3    0  501 -0.12718139269E+02 -0.11943687056E+02  0.30426961156E+02  0.35387747769E+02  0.47000000000E+01 0.  1.
          5    1    4    4  502    0 -0.51997122521E+01 -0.18253502584E+02  0.23494946304E+02  0.30566809875E+02  0.47000000000E+01 0. -1.
         -5    1    4    4    0  502 -0.20830187935E+03 -0.26925966304E+02  0.12483863820E+04  0.12659404920E+04  0.47000000000E+01 0. -1.
<mgrwt>
<rscale>  0 0.56134732E+03</rscale>
<asrwt>0</asrwt>
<pdfrwt beam="1">  1       21 0.27364418E+00 0.56134732E+03</pdfrwt>
<pdfrwt beam="2">  1       21 0.68138158E-02 0.56134732E+03</pdfrwt>
<totfact> 0.61968597E+03</totfact>
</mgrwt>
</event>
<event>
 8    1  0.9175398E-006  0.3339371E+03  0.7546771E-02  0.1069408E+00
         21   -1    0    0  504  503  0.00000000000E+00  0.00000000000E+00  0.98365546859E+02  0.98365546859E+02  0.00000000000E+00 0.  1.
         21   -1    0    0  503  504 -0.00000000000E+00 -0.00000000000E+00 -0.28341724487E+03  0.28341724487E+03  0.00000000000E+00 0.  1.
         25    2    1    2    0    0 -0.10237047453E+03  0.84434138920E+00 -0.14068281303E+03  0.21422592700E+03  0.12498266660E+03 0.  0.
         25    2    1    2    0    0  0.10237047453E+03 -0.84434138920E+00 -0.44368884974E+02  0.16755686472E+03  0.12500511187E+03 0.  0.
          5    1    3    3  501    0 -0.21439379288E+02 -0.41484527162E+02 -0.10687134257E+03  0.11672269206E+03  0.47000000000E+01 0. -1.
         -5    1    3    3    0  501 -0.80931095242E+02  0.42328868551E+02 -0.33811470461E+02  0.97503234944E+02  0.47000000000E+01 0. -1.
          5    1    4    4  502    0  0.88204878716E+02 -0.40533772839E+02  0.11010659714E+02  0.97808036465E+02  0.47000000000E+01 0. -1.
         -5    1    4    4    0  502  0.14165595814E+02  0.39689431450E+02 -0.55379544688E+02  0.69748828258E+02  0.47000000000E+01 0. -1.
<mgrwt>
<rscale>  0 0.33393707E+03</rscale>
<asrwt>0</asrwt>
<pdfrwt beam="1">  1       21 0.15133161E-01 0.33393707E+03</pdfrwt>
<pdfrwt beam="2">  1       21 0.43602653E-01 0.33393707E+03</pdfrwt>
<totfact> 0.18804878E+05</totfact>
</mgrwt>
</event>
<event>
 8    1  0.9175398E-006  0.4179763E+03  0.7546771E-02  0.1037727E+00
         21   -1    0    0  504  503  0.00000000000E+00  0.00000000000E+00  0.13902374065E+04  0.13902374065E+04  0.00000000000E+00 0.  1.
         21   -1    0    0  503  504 -0.00000000000E+00 -0.00000000000E+00 -0.31416248830E+02  0.31416248830E+02  0.00000000000E+00 0.  1.
         25    2    1    2    0    0  0.84687432510E+02  0.91655996411E+02  0.29948944468E+03  0.34769942591E+03  0.12501272097E+03 0.  0.
         25    2    1    2    0    0 -0.84687432510E+02 -0.91655996411E+02  0.10593317130E+04  0.10739542294E+04  0.12498490239E+03 0.  0.
          5    1    3    3  501    0  0.12090279173E+02  0.26702243245E+02  0.21968824333E+03  0.22168490905E+03  0.47000000000E+01 0.  1.
         -5    1    3    3    0  501  0.72597153337E+02  0.64953753166E+02  0.79801201350E+02  0.12601451686E+03  0.47000000000E+01 0.  1.
          5    1    4    4  502    0 -0.10576220382E+03 -0.29660146880E+02  0.60575910361E+03  0.61565538224E+03  0.47000000000E+01 0. -1.
         -5    1    4    4    0  502  0.21074771308E+02 -0.61995849532E+02  0.45357260938E+03  0.45829884717E+03  0.47000000000E+01 0. -1.
<mgrwt>
<rscale>  0 0.41797629E+03</rscale>
<asrwt>0</asrwt>
<pdfrwt beam="1">  1       21 0.21388263E+00 0.41797629E+03</pdfrwt>
<pdfrwt beam="2">  1       21 0.48332701E-02 0.41797629E+03</pdfrwt>
<totfact> 0.27898845E+04</totfact>
</mgrwt>
</event>
<event>
 8    1  0.9175398E-006  0.2987383E+03  0.7546771E-02  0.1085873E+00
         21   -1    0    0  504  503  0.00000000000E+00  0.00000000000E+00  0.80270520262E+02  0.80270520262E+02  0.00000000000E+00 0.  1.
         21   -1    0    0  503  504 -0.00000000000E+00 -0.00000000000E+00 -0.27794933739E+03  0.27794933739E+03  0.00000000000E+00 0.  1.
         25    2    1    2    0    0 -0.63920266000E+02  0.48412291472E+02 -0.11800576985E+03  0.18968032408E+03  0.12499485291E+03 0.  0.
         25    2    1    2    0    0  0.63920266000E+02 -0.48412291472E+02 -0.79673047281E+02  0.16853953358E+03  0.12501291751E+03 0.  0.
          5    1    3    3  501    0 -0.74846654393E+02  0.72126598958E+02 -0.12461141067E+03  0.16234026494E+03  0.47000000000E+01 0. -1.
         -5    1    3    3    0  501  0.10926388393E+02 -0.23714307486E+02  0.66056408233E+01  0.27340059136E+02  0.47000000000E+01 0. -1.
          5    1    4    4  502    0 -0.25439951655E+01 -0.61097968723E+02 -0.79883704770E+02  0.10071211437E+03  0.47000000000E+01 0. -1.
         -5    1    4    4    0  502  0.66464261165E+02  0.12685677251E+02  0.21065748920E+00  0.67827419206E+02  0.47000000000E+01 0. -1.
<mgrwt>
<rscale>  0 0.29873827E+03</rscale>
<asrwt>0</asrwt>
<pdfrwt beam="1">  1       21 0.12349311E-01 0.29873827E+03</pdfrwt>
<pdfrwt beam="2">  1       21 0.42761437E-01 0.29873827E+03</pdfrwt>
<totfact> 0.28591066E+05</totfact>
</mgrwt>
</event>
<event>
 8    1  0.9175398E-006  0.4005985E+03  0.7546771E-02  0.1043573E+00
         21   -1    0    0  504  503  0.00000000000E+00  0.00000000000E+00  0.39119838606E+02  0.39119838606E+02  0.00000000000E+00 0. -1.
         21   -1    0    0  503  504 -0.00000000000E+00 -0.00000000000E+00 -0.10255613324E+04  0.10255613324E+04  0.00000000000E+00 0. -1.
         25    2    1    2    0    0 -0.13446290402E+03 -0.15213610828E+02 -0.28420580009E+03  0.33868512569E+03  0.12499180391E+03 0.  0.
         25    2    1    2    0    0  0.13446290402E+03  0.15213610828E+02 -0.70223569374E+03  0.72599604536E+03  0.12499424706E+03 0.  0.
          5    1    3    3  501    0 -0.14404558709E+03 -0.13469928040E+02 -0.29162302142E+03  0.32557126216E+03  0.47000000000E+01 0.  1.
         -5    1    3    3    0  501  0.95826830732E+01 -0.17436827874E+01  0.74172213256E+01  0.13113863532E+02  0.47000000000E+01 0.  1.
          5    1    4    4  502    0  0.11521611611E+03 -0.27846158952E+02 -0.32842532783E+03  0.34919256570E+03  0.47000000000E+01 0. -1.
         -5    1    4    4    0  502  0.19246787907E+02  0.43059769780E+02 -0.37381036591E+03  0.37680347965E+03  0.47000000000E+01 0. -1.
<mgrwt>
<rscale>  0 0.40059852E+03</rscale>
<asrwt>0</asrwt>
<pdfrwt beam="1">  1       21 0.60184367E-02 0.40059852E+03</pdfrwt>
<pdfrwt beam="2">  1       21 0.15777867E+00 0.40059852E+03</pdfrwt>
<totfact> 0.47056813E+04</totfact>
</mgrwt>
</event>
<event>
 8    1  0.9175398E-006  0.2969918E+03  0.7546771E-02  0.1086754E+00
         21   -1    0    0  504  503  0.00000000000E+00  0.00000000000E+00  0.13768931431E+03  0.13768931431E+03  0.00000000000E+00 0.  1.
         21   -1    0    0  503  504 -0.00000000000E+00 -0.00000000000E+00 -0.16015060022E+03  0.16015060022E+03  0.00000000000E+00 0.  1.
         25    2    1    2    0    0 -0.47327405099E+02  0.33823922473E+02 -0.66538776705E+02  0.15308943276E+03  0.12500009845E+03 0.  0.
         25    2    1    2    0    0  0.47327405099E+02 -0.33823922473E+02  0.44077490793E+02  0.14475048177E+03  0.12500374303E+03 0.  0.
          5    1    3    3  501    0 -0.37216170133E+02 -0.14526310359E+01 -0.97734356007E+02  0.10469597796E+03  0.47000000000E+01 0.  1.
         -5    1    3    3    0  501 -0.10111234966E+02  0.35276553509E+02  0.31195579302E+02  0.48393454806E+02  0.47000000000E+01 0.  1.
          5    1    4    4  502    0  0.31849610390E+02 -0.77312047804E+02  0.50673675854E+02  0.97884941856E+02  0.47000000000E+01 0.  1.
         -5    1    4    4    0  502  0.15477794709E+02  0.43488125331E+02 -0.65961850606E+01  0.46865539912E+02  0.47000000000E+01 0.  1.
<mgrwt>
<rscale>  0 0.29699176E+03</rscale>
<asrwt>0</asrwt>
<pdfrwt beam="1">  1       21 0.21182971E-01 0.29699176E+03</pdfrwt>
<pdfrwt beam="2">  1       21 0.24638554E-01 0.29699176E+03</pdfrwt>
<totfact> 0.31528893E+05</totfact>
</mgrwt>
</event>
<event>
 8    1  0.9175398E-006  0.2977154E+03  0.7546771E-02  0.1086388E+00
         21   -1    0    0  504  503  0.00000000000E+00  0.00000000000E+00  0.53028794980E+03  0.53028794980E+03  0.00000000000E+00 0.  1.
         21   -1    0    0  503  504 -0.00000000000E+00 -0.00000000000E+00 -0.41785995971E+02  0.41785995971E+02  0.00000000000E+00 0.  1.
         25    2    1    2    0    0  0.47721975445E+01  0.56111567517E+02  0.13284043591E+03  0.19090326770E+03  0.12500477722E+03 0.  0.
         25    2    1    2    0    0 -0.47721975445E+01 -0.56111567517E+02  0.35566151792E+03  0.38117067807E+03  0.12499875444E+03 0.  0.
          5    1    3    3  501    0 -0.47920873069E+02  0.29647241513E+02  0.14150312961E+02  0.58289710601E+02  0.47000000000E+01 0. -1.
         -5    1    3    3    0  501  0.52693070614E+02  0.26464326004E+02  0.11869012294E+03  0.13261355710E+03  0.47000000000E+01 0. -1.
          5    1    4    4  502    0 -0.34909079851E+02  0.26867366416E+02  0.16775256160E+03  0.17350363442E+03  0.47000000000E+01 0. -1.
         -5    1    4    4    0  502  0.30136882307E+02 -0.82978933933E+02  0.18790895632E+03  0.20766704365E+03  0.47000000000E+01 0. -1.
<mgrwt>
<rscale>  0 0.29771537E+03</rscale>
<asrwt>0</asrwt>
<pdfrwt beam="1">  1       21 0.81582757E-01 0.29771537E+03</pdfrwt>
<pdfrwt beam="2">  1       21 0.64286152E-02 0.29771537E+03</pdfrwt>
<totfact> 0.22383840E+05</totfact>
</mgrwt>
</event>
<event>
 8    1  0.9175398E-006  0.4170734E+03  0.7546771E-02  0.1038023E+00
         21   -1    0    0  504  503  0.00000000000E+00  0.00000000000E+00  0.12866388682E+03  0.12866388682E+03  0.00000000000E+00 0.  1.
         21   -1    0    0  503  504 -0.00000000000E+00 -0.00000000000E+00 -0.33799343557E+03  0.33799343557E+03  0.00000000000E+00 0.  1.
         25    2    1    2    0    0 -0.16208743722E+03 -0.35677287766E+02 -0.12469959716E+03  0.24229648386E+03  0.12494955139E+03 0.  0.
         25    2    1    2    0    0  0.16208743722E+03  0.35677287766E+02 -0.84629951585E+02  0.22436083853E+03  0.12502140214E+03 0.  0.
          5    1    3    3  501    0 -0.14304359734E+03 -0.71392213009E+02 -0.71262253172E+02  0.17509630935E+03  0.47000000000E+01 0.  1.
         -5    1    3    3    0  501 -0.19043839880E+02  0.35714925243E+02 -0.53437343988E+02  0.67200174516E+02  0.47000000000E+01 0.  1.
          5    1    4    4  502    0  0.36225888676E+02  0.67691750188E+02 -0.21402098111E+02  0.79841266632E+02  0.47000000000E+01 0. -1.
         -5    1    4    4    0  502  0.12586154855E+03 -0.32014462422E+02 -0.63227853474E+02  0.14451957190E+03  0.47000000000E+01 0. -1.
<mgrwt>
<rscale>  0 0.41707337E+03</rscale>
<asrwt>0</asrwt>
<pdfrwt beam="1">  1       21 0.19794444E-01 0.41707337E+03</pdfrwt>
<pdfrwt beam="2">  1       21 0.51998991E-01 0.41707337E+03</pdfrwt>
<totfact> 0.77198990E+04</totfact>
</mgrwt>
</event>
<event>
 8    1  0.9175398E-006  0.3238815E+03  0.7546771E-02  0.1073877E+00
         21   -1    0    0  504  503  0.00000000000E+00  0.00000000000E+00  0.30101082755E+03  0.30101082755E+03  0.00000000000E+00 0. -1.
         21   -1    0    0  503  504 -0.00000000000E+00 -0.00000000000E+00 -0.87122469953E+02  0.87122469953E+02  0.00000000000E+00 0. -1.
         25    2    1    2    0    0 -0.28418976723E+02 -0.54494933181E+02  0.79450303446E+01  0.13950709052E+03  0.12498707461E+03 0.  0.
         25    2    1    2    0    0  0.28418976723E+02  0.54494933181E+02  0.20594332725E+03  0.24862620698E+03  0.12500000311E+03 0.  0.
          5    1    3    3  501    0  0.42327575565E+02 -0.32430519409E+02  0.30869024152E+02  0.61792789988E+02  0.47000000000E+01 0.  1.
         -5    1    3    3    0  501 -0.70746552288E+02 -0.22064413771E+02 -0.22923993807E+02  0.77714300536E+02  0.47000000000E+01 0.  1.
          5    1    4    4  502    0  0.27844925614E+02 -0.16866918238E+02  0.16062467897E+03  0.16395795287E+03  0.47000000000E+01 0.  1.
         -5    1    4    4    0  502  0.57405110940E+00  0.71361851418E+02  0.45318648280E+02  0.84668254112E+02  0.47000000000E+01 0.  1.
<mgrwt>
<rscale>  0 0.32388150E+03</rscale>
<asrwt>0</asrwt>
<pdfrwt beam="1">  1       21 0.46309358E-01 0.32388150E+03</pdfrwt>
<pdfrwt beam="2">  1       21 0.13403457E-01 0.32388150E+03</pdfrwt>
<totfact> 0.20774250E+05</totfact>
</mgrwt>
</event>
<event>
 8    1  0.9175398E-006  0.2736264E+03  0.7546771E-02  0.1099222E+00
         21   -1    0    0  504  503  0.00000000000E+00  0.00000000000E+00  0.80734009323E+02  0.80734009323E+02  0.00000000000E+00 0. -1.
         21   -1    0    0  503  504 -0.00000000000E+00 -0.00000000000E+00 -0.23184599845E+03  0.23184599845E+03  0.00000000000E+00 0. -1.
         25    2    1    2    0    0 -0.55059379330E+02 -0.27972005601E+00 -0.67810584103E+02  0.15253432045E+03  0.12504731146E+03 0.  0.
         25    2    1    2    0    0  0.55059379330E+02  0.27972005601E+00 -0.83301405026E+02  0.16004568732E+03  0.12507551501E+03 0.  0.
          5    1    3    3  501    0  0.59782888286E+01 -0.19230570299E+02 -0.83941144411E+02  0.86450913797E+02  0.47000000000E+01 0. -1.
         -5    1    3    3    0  501 -0.61037668158E+02  0.18950850243E+02  0.16130560308E+02  0.66083406654E+02  0.47000000000E+01 0. -1.
          5    1    4    4  502    0  0.71859450543E+02  0.58059575662E+01  0.25243365641E+01  0.72290746647E+02  0.47000000000E+01 0.  1.
         -5    1    4    4    0  502 -0.16800071214E+02 -0.55262375101E+01 -0.85825741590E+02  0.87754940678E+02  0.47000000000E+01 0.  1.
<mgrwt>
<rscale>  0 0.27362644E+03</rscale>
<asrwt>0</asrwt>
<pdfrwt beam="1">  1       21 0.12420617E-01 0.27362644E+03</pdfrwt>
<pdfrwt beam="2">  1       21 0.35668615E-01 0.27362644E+03</pdfrwt>
<totfact> 0.41107780E+05</totfact>
</mgrwt>
</event>
<event>
 8    1  0.9175398E-006  0.3405368E+03  0.7546771E-02  0.1066568E+00
         21   -1    0    0  504  503  0.00000000000E+00  0.00000000000E+00  0.28565438218E+03  0.28565438218E+03  0.00000000000E+00 0.  1.
         21   -1    0    0  503  504 -0.00000000000E+00 -0.00000000000E+00 -0.10149093265E+03  0.10149093265E+03  0.00000000000E+00 0.  1.
         25    2    1    2    0    0 -0.47961752030E+02  0.38626477891E+02 -0.19183660864E+02  0.14066035838E+03  0.12499995650E+03 0.  0.
         25    2    1    2    0    0  0.47961752030E+02 -0.38626477891E+02  0.20334711040E+03  0.24648495645E+03  0.12494979791E+03 0.  0.
          5    1    3    3  501    0 -0.23595362036E+02  0.24240536785E+02 -0.72486652510E+02  0.80129579591E+02  0.47000000000E+01 0. -1.
         -5    1    3    3    0  501 -0.24366389994E+02  0.14385941107E+02  0.53302991646E+02  0.60530778793E+02  0.47000000000E+01 0. -1.
          5    1    4    4  502    0  0.58494873433E+02 -0.76973634814E+02  0.12128032486E+03  0.15516957779E+03  0.47000000000E+01 0.  1.
         -5    1    4    4    0  502 -0.10533121403E+02  0.38347156923E+02  0.82066785536E+02  0.91315378654E+02  0.47000000000E+01 0.  1.
<mgrwt>
<rscale>  0 0.34053681E+03</rscale>
<asrwt>0</asrwt>
<pdfrwt beam="1">  1       21 0.43946828E-01 0.34053681E+03</pdfrwt>
<pdfrwt beam="2">  1       21 0.15613990E-01 0.34053681E+03</pdfrwt>
<totfact> 0.17438048E+05</totfact>
</mgrwt>
</event>
<event>
 8    1  0.9175398E-006  0.3446953E+03  0.7546771E-02  0.1064814E+00
         21   -1    0    0  504  503  0.00000000000E+00  0.00000000000E+00  0.70452043862E+02  0.70452043862E+02  0.00000000000E+00 0.  1.
         21   -1    0    0  503  504 -0.00000000000E+00 -0.00000000000E+00 -0.42161605127E+03  0.42161605127E+03  0.00000000000E+00 0.  1.
         25    2    1    2    0    0  0.58557377456E+02  0.56438017791E+02 -0.52250006003E+02  0.15802007365E+03  0.12500425689E+03 0.  0.
         25    2    1    2    0    0 -0.58557377456E+02 -0.56438017791E+02 -0.29891400141E+03  0.33404802149E+03  0.12499713643E+03 0.  0.
          5    1    3    3  501    0 -0.21675491748E+02 -0.15671772600E+01 -0.54518305886E+02  0.58877998130E+02  0.47000000000E+01 0. -1.
         -5    1    3    3    0  501  0.80232869204E+02  0.58005195051E+02  0.22682998831E+01  0.99142075518E+02  0.47000000000E+01 0. -1.
          5    1    4    4  502    0 -0.35282181119E+02 -0.32574193244E+02 -0.18585139631E+02  0.51705007351E+02  0.47000000000E+01 0. -1.
         -5    1    4    4    0  502 -0.23275196337E+02 -0.23863824547E+02 -0.28032886178E+03  0.28234301414E+03  0.47000000000E+01 0. -1.
<mgrwt>
<rscale>  0 0.34469530E+03</rscale>
<asrwt>0</asrwt>
<pdfrwt beam="1">  1       21 0.10838776E-01 0.34469530E+03</pdfrwt>
<pdfrwt beam="2">  1       21 0.64864007E-01 0.34469530E+03</pdfrwt>
<totfact> 0.14751360E+05</totfact>
</mgrwt>
</event>
<event>
 8    1  0.9175398E-006  0.5018994E+03  0.7546771E-02  0.1013284E+00
         21   -1    0    0  504  503  0.00000000000E+00  0.00000000000E+00  0.33311078440E+03  0.33311078440E+03  0.00000000000E+00 0. -1.
         21   -1    0    0  503  504 -0.00000000000E+00 -0.00000000000E+00 -0.18905346586E+03  0.18905346586E+03  0.00000000000E+00 0. -1.
         25    2    1    2    0    0  0.15470781212E+03 -0.12345334752E+03 -0.22040200275E+02  0.23513004111E+03  0.12500051863E+03 0.  0.
         25    2    1    2    0    0 -0.15470781212E+03  0.12345334752E+03  0.16609751882E+03  0.28703420916E+03  0.12500006129E+03 0.  0.
          5    1    3    3  501    0 -0.96273104619E+01  0.12560604886E+02 -0.13934246048E+02  0.21603405165E+02  0.47000000000E+01 0. -1.
         -5    1    3    3    0  501  0.16433512259E+03 -0.13601395240E+03 -0.81059542273E+01  0.21352663594E+03  0.47000000000E+01 0. -1.
          5    1    4    4  502    0 -0.93333295984E+01 -0.18159943432E+02 -0.50053698044E+01  0.21541548545E+02  0.47000000000E+01 0.  1.
         -5    1    4    4    0  502 -0.14537448253E+03  0.14161329095E+03  0.17110288862E+03  0.26549266061E+03  0.47000000000E+01 0.  1.
<mgrwt>
<rscale>  0 0.50189939E+03</rscale>
<asrwt>0</asrwt>
<pdfrwt beam="1">  1       21 0.51247813E-01 0.50189939E+03</pdfrwt>
<pdfrwt beam="2">  1       21 0.29085149E-01 0.50189939E+03</pdfrwt>
<totfact> 0.37090853E+04</totfact>
</mgrwt>
</event>
<event>
 8    1  0.9175398E-006  0.3272820E+03  0.7546771E-02  0.1072346E+00
         21   -1    0    0  504  503  0.00000000000E+00  0.00000000000E+00  0.31757107494E+03  0.31757107494E+03  0.00000000000E+00 0.  1.
         21   -1    0    0  503  504 -0.00000000000E+00 -0.00000000000E+00 -0.84322474883E+02  0.84322474883E+02  0.00000000000E+00 0.  1.
         25    2    1    2    0    0 -0.98655076339E+02  0.16837633697E+01  0.16286759388E+03  0.22778985520E+03  0.12500682320E+03 0.  0.
         25    2    1    2    0    0  0.98655076339E+02 -0.16837633697E+01  0.70381006177E+02  0.17410369463E+03  0.12499180496E+03 0.  0.
          5    1    3    3  501    0 -0.45350352621E+02 -0.49421356320E+02  0.25790398917E+02  0.72016384384E+02  0.47000000000E+01 0. -1.
         -5    1    3    3    0  501 -0.53304723718E+02  0.51105119690E+02  0.13707719497E+03  0.15577347081E+03  0.47000000000E+01 0. -1.
          5    1    4    4  502    0  0.90508949573E+02  0.46407281865E+02  0.72596877459E+02  0.12505159887E+03  0.47000000000E+01 0. -1.
         -5    1    4    4    0  502  0.81461267664E+01 -0.48091045234E+02 -0.22158712821E+01  0.49052095761E+02  0.47000000000E+01 0. -1.
<mgrwt>
<rscale>  0 0.32728201E+03</rscale>
<asrwt>0</asrwt>
<pdfrwt beam="1">  1       21 0.48857088E-01 0.32728201E+03</pdfrwt>
<pdfrwt beam="2">  1       21 0.12972689E-01 0.32728201E+03</pdfrwt>
<totfact> 0.19694137E+05</totfact>
</mgrwt>
</event>
<event>
 8    1  0.9175398E-006  0.2710083E+03  0.7546771E-02  0.1100704E+00
         21   -1    0    0  504  503  0.00000000000E+00  0.00000000000E+00  0.86703086007E+01  0.86703086007E+01  0.00000000000E+00 0.  1.
         21   -1    0    0  503  504 -0.00000000000E+00 -0.00000000000E+00 -0.21177304535E+04  0.21177304535E+04  0.00000000000E+00 0.  1.
         25    2    1    2    0    0 -0.24765028862E+02 -0.19042923153E+02 -0.72528141176E+03  0.73663713947E+03  0.12500083768E+03 0.  0.
         25    2    1    2    0    0  0.24765028862E+02  0.19042923153E+02 -0.13837787332E+04  0.13897636227E+04  0.12499361957E+03 0.  0.
          5    1    3    3  501    0 -0.19394956099E+02  0.28265331986E+01 -0.12999770830E+02  0.23984112525E+02  0.47000000000E+01 0.  1.
         -5    1    3    3    0  501 -0.53700727634E+01 -0.21869456351E+02 -0.71228164093E+03  0.71265302695E+03  0.47000000000E+01 0.  1.
          5    1    4    4  502    0  0.65772062166E+02 -0.22701021282E+02 -0.80519126231E+03  0.80820564180E+03  0.47000000000E+01 0.  1.
         -5    1    4    4    0  502 -0.41007033304E+02  0.41743944434E+02 -0.57858747085E+03  0.58155798086E+03  0.47000000000E+01 0.  1.
<mgrwt>
<rscale>  0 0.27100831E+03</rscale>
<asrwt>0</asrwt>
<pdfrwt beam="1">  1       21 0.13338909E-02 0.27100831E+03</pdfrwt>
<pdfrwt beam="2">  1       21 0.32580535E+00 0.27100831E+03</pdfrwt>
<totfact> 0.53841021E+04</totfact>
</mgrwt>
</event>
<event>
 8    1  0.9175398E-006  0.2938339E+03  0.7546771E-02  0.1088364E+00
         21   -1    0    0  504  503  0.00000000000E+00  0.00000000000E+00  0.10059728237E+03  0.10059728237E+03  0.00000000000E+00 0. -1.
         21   -1    0    0  503  504 -0.00000000000E+00 -0.00000000000E+00 -0.21456440415E+03  0.21456440415E+03  0.00000000000E+00 0. -1.
         25    2    1    2    0    0 -0.31561479827E+02  0.19227971113E+02  0.15694753518E+02  0.13130813474E+03  0.12501863493E+03 0.  0.
         25    2    1    2    0    0  0.31561479827E+02 -0.19227971113E+02 -0.12966187530E+03  0.18385355177E+03  0.12499633879E+03 0.  0.
          5    1    3    3  501    0 -0.31116029982E+02  0.46898064805E+02 -0.39817527081E+02  0.69102541684E+02  0.47000000000E+01 0. -1.
         -5    1    3    3    0  501 -0.44544984474E+00 -0.27670093692E+02  0.55512280600E+02  0.62205593059E+02  0.47000000000E+01 0. -1.
          5    1    4    4  502    0 -0.18514612989E+02  0.21412520398E+02  0.96436384985E+01  0.30271714313E+02  0.47000000000E+01 0.  1.
         -5    1    4    4    0  502  0.50076092816E+02 -0.40640491511E+02 -0.13930551380E+03  0.15358183746E+03  0.47000000000E+01 0.  1.
<mgrwt>
<rscale>  0 0.29383394E+03</rscale>
<asrwt>0</asrwt>
<pdfrwt beam="1">  1       21 0.15476505E-01 0.29383394E+03</pdfrwt>
<pdfrwt beam="2">  1       21 0.33009908E-01 0.29383394E+03</pdfrwt>
<totfact> 0.31996589E+05</totfact>
</mgrwt>
</event>
<event>
 8    1  0.9175398E-006  0.4627211E+03  0.7546771E-02  0.1023995E+00
         21   -1    0    0  504  503  0.00000000000E+00  0.00000000000E+00  0.26013128005E+03  0.26013128005E+03  0.00000000000E+00 0.  1.
         21   -1    0    0  503  504 -0.00000000000E+00 -0.00000000000E+00 -0.20577191443E+03  0.20577191443E+03  0.00000000000E+00 0.  1.
         25    2    1    2    0    0  0.12626436880E+03  0.13531594745E+03 -0.33691128881E+02  0.22586323349E+03  0.12500404639E+03 0.  0.
         25    2    1    2    0    0 -0.12626436880E+03 -0.13531594745E+03  0.88050494505E+02  0.24003996099E+03  0.12495277839E+03 0.  0.
          5    1    3    3  501    0  0.22552385551E+02  0.23812614845E+02  0.43812943056E+02  0.54930089196E+02  0.47000000000E+01 0. -1.
         -5    1    3    3    0  501  0.10371198325E+03  0.11150333261E+03 -0.77504071937E+02  0.17093314430E+03  0.47000000000E+01 0. -1.
          5    1    4    4  502    0 -0.65675444157E+01 -0.50811072656E+01 -0.27229488258E+02  0.28852821725E+02  0.47000000000E+01 0. -1.
         -5    1    4    4    0  502 -0.11969682439E+03 -0.13023484019E+03  0.11527998276E+03  0.21118713927E+03  0.47000000000E+01 0. -1.
<mgrwt>
<rscale>  0 0.46272113E+03</rscale>
<asrwt>0</asrwt>
<pdfrwt beam="1">  1       21 0.40020197E-01 0.46272113E+03</pdfrwt>
<pdfrwt beam="2">  1       21 0.31657217E-01 0.46272113E+03</pdfrwt>
<totfact> 0.53091713E+04</totfact>
</mgrwt>
</event>
<event>
 8    1  0.9175398E-006  0.3120968E+03  0.7546771E-02  0.1079345E+00
         21   -1    0    0  504  503  0.00000000000E+00  0.00000000000E+00  0.73011604385E+02  0.73011604385E+02  0.00000000000E+00 0. -1.
         21   -1    0    0  503  504 -0.00000000000E+00 -0.00000000000E+00 -0.33352379197E+03  0.33352379197E+03  0.00000000000E+00 0. -1.
         25    2    1    2    0    0  0.48781066194E+02  0.38558532347E+02 -0.22106149723E+03  0.26146400814E+03  0.12501555568E+03 0.  0.
         25    2    1    2    0    0 -0.48781066194E+02 -0.38558532347E+02 -0.39450690355E+02  0.14507138821E+03  0.12499199123E+03 0.  0.
          5    1    3    3  501    0 -0.12870984232E+01 -0.33229936365E+02 -0.13577291327E+02  0.36225931775E+02  0.47000000000E+01 0.  1.
         -5    1    3    3    0  501  0.50068164617E+02  0.71788468713E+02 -0.20748420590E+03  0.22523807637E+03  0.47000000000E+01 0.  1.
          5    1    4    4  502    0  0.38223666659E+02 -0.32502961990E+02 -0.31693995345E+01  0.50493824616E+02  0.47000000000E+01 0. -1.
         -5    1    4    4    0  502 -0.87004732853E+02 -0.60555703571E+01 -0.36281290820E+02  0.94577563591E+02  0.47000000000E+01 0. -1.
<mgrwt>
<rscale>  0 0.31209683E+03</rscale>
<asrwt>0</asrwt>
<pdfrwt beam="1">  1       21 0.11232555E-01 0.31209683E+03</pdfrwt>
<pdfrwt beam="2">  1       21 0.51311352E-01 0.31209683E+03</pdfrwt>
<totfact> 0.23120853E+05</totfact>
</mgrwt>
</event>
<event>
 8    1  0.9175398E-006  0.2988379E+03  0.7546771E-02  0.1085823E+00
         21   -1    0    0  504  503  0.00000000000E+00  0.00000000000E+00  0.13795718117E+04  0.13795718117E+04  0.00000000000E+00 0. -1.
         21   -1    0    0  503  504 -0.00000000000E+00 -0.00000000000E+00 -0.16183299759E+02  0.16183299759E+02  0.00000000000E+00 0. -1.
         25    2    1    2    0    0 -0.15167287196E+02 -0.33864664435E+02  0.10228133107E+04  0.10310910780E+04  0.12499952136E+03 0.  0.
         25    2    1    2    0    0  0.15167287196E+02  0.33864664435E+02  0.34057520125E+03  0.36466403354E+03  0.12494609859E+03 0.  0.
          5    1    3    3  501    0 -0.25290632912E+02 -0.77345999078E+02  0.52920106150E+03  0.53544175517E+03  0.47000000000E+01 0. -1.
         -5    1    3    3    0  501  0.10123345716E+02  0.43481334643E+02  0.49361224922E+03  0.49564932278E+03  0.47000000000E+01 0. -1.
          5    1    4    4  502    0  0.29148396299E+02 -0.32492692317E+02  0.51358735721E+02  0.67566365861E+02  0.47000000000E+01 0. -1.
         -5    1    4    4    0  502 -0.13981109104E+02  0.66357356752E+02  0.28921646553E+03  0.29709766768E+03  0.47000000000E+01 0. -1.
<mgrwt>
<rscale>  0 0.29883791E+03</rscale>
<asrwt>0</asrwt>
<pdfrwt beam="1">  1       21 0.21224173E+00 0.29883791E+03</pdfrwt>
<pdfrwt beam="2">  1       21 0.24897395E-02 0.29883791E+03</pdfrwt>
<totfact> 0.91583882E+04</totfact>
</mgrwt>
</event>
<event>
 8    1  0.9175398E-006  0.3237488E+03  0.7546771E-02  0.1073937E+00
         21   -1    0    0  504  503  0.00000000000E+00  0.00000000000E+00  0.17840847808E+03  0.17840847808E+03  0.00000000000E+00 0.  1.
         21   -1    0    0  503  504 -0.00000000000E+00 -0.00000000000E+00 -0.14687262425E+03  0.14687262425E+03  0.00000000000E+00 0.  1.
         25    2    1    2    0    0  0.88255618810E+01 -0.38552623828E+02  0.11113085526E+03  0.17190266663E+03  0.12504504971E+03 0.  0.
         25    2    1    2    0    0 -0.88255618810E+01  0.38552623828E+02 -0.79595001422E+02  0.15337843570E+03  0.12500153975E+03 0.  0.
          5    1    3    3  501    0 -0.48836225637E+02 -0.15348241198E+02  0.94195453352E+02  0.10730991974E+03  0.47000000000E+01 0.  1.
         -5    1    3    3    0  501  0.57661787518E+02 -0.23204382629E+02  0.16935401903E+02  0.64592746889E+02  0.47000000000E+01 0.  1.
          5    1    4    4  502    0  0.15204356104E+02  0.58462499066E+02  0.72076557993E+01  0.61017018476E+02  0.47000000000E+01 0. -1.
         -5    1    4    4    0  502 -0.24029917985E+02 -0.19909875238E+02 -0.86802657221E+02  0.92361417221E+02  0.47000000000E+01 0. -1.
<mgrwt>
<rscale>  0 0.32374880E+03</rscale>
<asrwt>0</asrwt>
<pdfrwt beam="1">  1       21 0.27447458E-01 0.32374880E+03</pdfrwt>
<pdfrwt beam="2">  1       21 0.22595788E-01 0.32374880E+03</pdfrwt>
<totfact> 0.22498048E+05</totfact>
</mgrwt>
</event>
<event>
 8    1  0.9175398E-006  0.3679842E+03  0.7546771E-02  0.1055466E+00
         21   -1    0    0  504  503  0.00000000000E+00  0.00000000000E+00  0.17411505128E+03  0.17411505128E+03  0.00000000000E+00 0. -1.
         21   -1    0    0  503  504 -0.00000000000E+00 -0.00000000000E+00 -0.19442944104E+03  0.19442944104E+03  0.00000000000E+00 0. -1.
         25    2    1    2    0    0 -0.63659072962E+02 -0.49569748729E+02 -0.11857612127E+03  0.19024994310E+03  0.12500042701E+03 0.  0.
         25    2    1    2    0    0  0.63659072962E+02  0.49569748729E+02  0.98261731510E+02  0.17829454922E+03  0.12499576330E+03 0.  0.
          5    1    3    3  501    0 -0.23721872521E+02 -0.86722390249E+02 -0.94249719272E+02  0.13034032296E+03  0.47000000000E+01 0.  1.
         -5    1    3    3    0  501 -0.39937200441E+02  0.37152641520E+02 -0.24326402000E+02  0.59909620140E+02  0.47000000000E+01 0.  1.
          5    1    4    4  502    0  0.76794079835E+02  0.53540347442E+02  0.16399688498E+02  0.95157444715E+02  0.47000000000E+01 0. -1.
         -5    1    4    4    0  502 -0.13135006872E+02 -0.39705987125E+01  0.81862043013E+02  0.83137104508E+02  0.47000000000E+01 0. -1.
<mgrwt>
<rscale>  0 0.36798420E+03</rscale>
<asrwt>0</asrwt>
<pdfrwt beam="1">  1       21 0.26786931E-01 0.36798420E+03</pdfrwt>
<pdfrwt beam="2">  1       21 0.29912222E-01 0.36798420E+03</pdfrwt>
<totfact> 0.13554706E+05</totfact>
</mgrwt>
</event>
<event>
 8    1  0.9175398E-006  0.2673728E+03  0.7546771E-02  0.1102793E+00
         21   -1    0    0  504  503  0.00000000000E+00  0.00000000000E+00  0.27102136353E+03  0.27102136353E+03  0.00000000000E+00 0.  1.
         21   -1    0    0  503  504 -0.00000000000E+00 -0.00000000000E+00 -0.65943327372E+02  0.65943327372E+02  0.00000000000E+00 0.  1.
         25    2    1    2    0    0  0.20996258757E+02  0.36828044204E+02  0.75784543285E+02  0.15219410756E+03  0.12499040624E+03 0.  0.
         25    2    1    2    0    0 -0.20996258757E+02 -0.36828044204E+02  0.12929349287E+03  0.18477058334E+03  0.12500485370E+03 0.  0.
          5    1    3    3  501    0  0.30115952259E+02  0.21978238229E+02 -0.27993158665E+02  0.46858515429E+02  0.47000000000E+01 0.  1.
         -5    1    3    3    0  501 -0.91196935020E+01  0.14849805975E+02  0.10377770195E+03  0.10533559213E+03  0.47000000000E+01 0.  1.
          5    1    4    4  502    0 -0.66287488263E+02 -0.17879120329E+01  0.37074409563E+02  0.76117209447E+02  0.47000000000E+01 0. -1.
         -5    1    4    4    0  502  0.45291229505E+02 -0.35040132171E+02  0.92219083306E+02  0.10865337389E+03  0.47000000000E+01 0. -1.
<mgrwt>
<rscale>  0 0.26737278E+03</rscale>
<asrwt>0</asrwt>
<pdfrwt beam="1">  1       21 0.41695594E-01 0.26737278E+03</pdfrwt>
<pdfrwt beam="2">  1       21 0.10145127E-01 0.26737278E+03</pdfrwt>
<totfact> 0.43123536E+05</totfact>
</mgrwt>
</event>
<event>
 8    1  0.9175398E-006  0.4020147E+03  0.7546771E-02  0.1043084E+00
         21   -1    0    0  504  503  0.00000000000E+00  0.00000000000E+00  0.10679711015E+03  0.10679711015E+03  0.00000000000E+00 0. -1.
         21   -1    0    0  503  504 -0.00000000000E+00 -0.00000000000E+00 -0.37832450568E+03  0.37832450568E+03  0.00000000000E+00 0. -1.
         25    2    1    2    0    0  0.88002897343E+02  0.12855546307E+03 -0.16301249127E+03  0.25781459469E+03  0.12499710357E+03 0.  0.
         25    2    1    2    0    0 -0.88002897343E+02 -0.12855546307E+03 -0.10851490426E+03  0.22730702114E+03  0.12498792097E+03 0.  0.
          5    1    3    3  501    0  0.54888623336E+02  0.13674740446E+03 -0.16744287967E+03  0.22309599178E+03  0.47000000000E+01 0.  1.
         -5    1    3    3    0  501  0.33114274007E+02 -0.81919413909E+01  0.44303883982E+01  0.34718602912E+02  0.47000000000E+01 0.  1.
          5    1    4    4  502    0 -0.10505585182E+03 -0.11963265222E+03 -0.52213811419E+02  0.16762182310E+03  0.47000000000E+01 0.  1.
         -5    1    4    4    0  502  0.17052954476E+02 -0.89228108513E+01 -0.56301092840E+02  0.59685198038E+02  0.47000000000E+01 0.  1.
<mgrwt>
<rscale>  0 0.40201475E+03</rscale>
<asrwt>0</asrwt>
<pdfrwt beam="1">  1       21 0.16430325E-01 0.40201475E+03</pdfrwt>
<pdfrwt beam="2">  1       21 0.58203770E-01 0.40201475E+03</pdfrwt>
<totfact> 0.86238684E+04</totfact>
</mgrwt>
</event>
<event>
 8    1  0.9175398E-006  0.3042920E+03  0.7546771E-02  0.1083115E+00
         21   -1    0    0  504  503  0.00000000000E+00  0.00000000000E+00  0.32871465082E+03  0.32871465082E+03  0.00000000000E+00 0.  1.
         21   -1    0    0  503  504 -0.00000000000E+00 -0.00000000000E+00 -0.70420974074E+02  0.70420974074E+02  0.00000000000E+00 0.  1.
         25    2    1    2    0    0  0.83109907396E+02  0.16622466616E+01  0.16166356933E+03  0.22060904615E+03  0.12499288709E+03 0.  0.
         25    2    1    2    0    0 -0.83109907396E+02 -0.16622466616E+01  0.96630107417E+02  0.17852657874E+03  0.12499736752E+03 0.  0.
          5    1    3    3  501    0  0.28601717319E+00  0.52566916277E+02  0.57524462220E+02  0.78067382731E+02  0.47000000000E+01 0.  1.
         -5    1    3    3    0  501  0.82823890223E+02 -0.50904669616E+02  0.10413910711E+03  0.14254166342E+03  0.47000000000E+01 0.  1.
          5    1    4    4  502    0 -0.93765781049E+01 -0.53284825562E+02  0.60832908446E+02  0.81547075988E+02  0.47000000000E+01 0. -1.
         -5    1    4    4    0  502 -0.73733329291E+02  0.51622578901E+02  0.35797198971E+02  0.96979502757E+02  0.47000000000E+01 0. -1.
<mgrwt>
<rscale>  0 0.30429200E+03</rscale>
<asrwt>0</asrwt>
<pdfrwt beam="1">  1       21 0.50571484E-01 0.30429200E+03</pdfrwt>
<pdfrwt beam="2">  1       21 0.10833996E-01 0.30429200E+03</pdfrwt>
<totfact> 0.25482641E+05</totfact>
</mgrwt>
</event>
<event>
 8    1  0.9175398E-006  0.3474121E+03  0.7546771E-02  0.1063682E+00
         21   -1    0    0  504  503  0.00000000000E+00  0.00000000000E+00  0.33642313108E+03  0.33642313108E+03  0.00000000000E+00 0. -1.
         21   -1    0    0  503  504 -0.00000000000E+00 -0.00000000000E+00 -0.89689998477E+02  0.89689998477E+02  0.00000000000E+00 0. -1.
         25    2    1    2    0    0  0.50971434291E+02 -0.85674208848E+02  0.40103856222E+02  0.16484850874E+03  0.12501421669E+03 0.  0.
         25    2    1    2    0    0 -0.50971434291E+02  0.85674208848E+02  0.20662927638E+03  0.26126462082E+03  0.12500154822E+03 0.  0.
          5    1    3    3  501    0  0.91746727288E+02 -0.60893170710E+02  0.16625658110E+02  0.11146274138E+03  0.47000000000E+01 0. -1.
         -5    1    3    3    0  501 -0.40775292997E+02 -0.24781038138E+02  0.23478198113E+02  0.53385767362E+02  0.47000000000E+01 0. -1.
          5    1    4    4  502    0 -0.10353079470E+02  0.10928137176E+03  0.12069929197E+03  0.16321768762E+03  0.47000000000E+01 0.  1.
         -5    1    4    4    0  502 -0.40618354822E+02 -0.23607162916E+02  0.85929984407E+02  0.98046933199E+02  0.47000000000E+01 0.  1.
<mgrwt>
<rscale>  0 0.34741209E+03</rscale>
<asrwt>0</asrwt>
<pdfrwt beam="1">  1       21 0.51757404E-01 0.34741209E+03</pdfrwt>
<pdfrwt beam="2">  1       21 0.13798462E-01 0.34741209E+03</pdfrwt>
<totfact> 0.15507353E+05</totfact>
</mgrwt>
</event>
<event>
 8    1  0.9175398E-006  0.3472163E+03  0.7546771E-02  0.1063763E+00
         21   -1    0    0  504  503  0.00000000000E+00  0.00000000000E+00  0.46023480127E+03  0.46023480127E+03  0.00000000000E+00 0.  1.
         21   -1    0    0  503  504 -0.00000000000E+00 -0.00000000000E+00 -0.65487851787E+02  0.65487851787E+02  0.00000000000E+00 0.  1.
         25    2    1    2    0    0 -0.64396647372E+02 -0.15229370432E+02  0.34980487972E+03  0.37731889499E+03  0.12500893056E+03 0.  0.
         25    2    1    2    0    0  0.64396647372E+02  0.15229370432E+02  0.44942069762E+02  0.14840375807E+03  0.12500009544E+03 0.  0.
          5    1    3    3  501    0  0.12575859175E+02  0.70661730321E+01  0.24418453768E+03  0.24465539332E+03  0.47000000000E+01 0. -1.
         -5    1    3    3    0  501 -0.76972506547E+02 -0.22295543464E+02  0.10562034204E+03  0.13266350167E+03  0.47000000000E+01 0. -1.
          5    1    4    4  502    0  0.21093649202E+02  0.54914515343E+02  0.63439073858E+02  0.86643823345E+02  0.47000000000E+01 0.  1.
         -5    1    4    4    0  502  0.43302998171E+02 -0.39685144911E+02 -0.18497004096E+02  0.61759934728E+02  0.47000000000E+01 0.  1.
<mgrwt>
<rscale>  0 0.34721629E+03</rscale>
<asrwt>0</asrwt>
<pdfrwt beam="1">  1       21 0.70805352E-01 0.34721629E+03</pdfrwt>
<pdfrwt beam="2">  1       21 0.10075054E-01 0.34721629E+03</pdfrwt>
<totfact> 0.13831061E+05</totfact>
</mgrwt>
</event>
<event>
 8    1  0.9175398E-006  0.2768738E+03  0.7546771E-02  0.1097409E+00
         21   -1    0    0  504  503  0.00000000000E+00  0.00000000000E+00  0.10400648541E+03  0.10400648541E+03  0.00000000000E+00 0. -1.
         21   -1    0    0  503  504 -0.00000000000E+00 -0.00000000000E+00 -0.18426519598E+03  0.18426519598E+03  0.00000000000E+00 0. -1.
         25    2    1    2    0    0 -0.12389595628E+02  0.15620167828E+02 -0.98499641666E+02  0.16038549450E+03  0.12499534277E+03 0.  0.
         25    2    1    2    0    0  0.12389595628E+02 -0.15620167828E+02  0.18240931092E+02  0.12788618689E+03  0.12499861403E+03 0.  0.
          5    1    3    3  501    0  0.43259832007E+02 -0.10495885697E+02 -0.86758357720E+02  0.97625198162E+02  0.47000000000E+01 0.  1.
         -5    1    3    3    0  501 -0.55649427635E+02  0.26116053525E+02 -0.11741283945E+02  0.62760296339E+02  0.47000000000E+01 0.  1.
          5    1    4    4  502    0  0.10614207313E+02 -0.48363163401E+02  0.57823346383E+02  0.76271137122E+02  0.47000000000E+01 0. -1.
         -5    1    4    4    0  502  0.17753883154E+01  0.32742995573E+02 -0.39582415291E+02  0.51615049772E+02  0.47000000000E+01 0. -1.
<mgrwt>
<rscale>  0 0.27687380E+03</rscale>
<asrwt>0</asrwt>
<pdfrwt beam="1">  1       21 0.16000998E-01 0.27687380E+03</pdfrwt>
<pdfrwt beam="2">  1       21 0.28348492E-01 0.27687380E+03</pdfrwt>
<totfact> 0.40751842E+05</totfact>
</mgrwt>
</event>
<event>
 8    1  0.9175398E-006  0.2637677E+03  0.7546771E-02  0.1104900E+00
         21   -1    0    0  504  503  0.00000000000E+00  0.00000000000E+00  0.14000284516E+03  0.14000284516E+03  0.00000000000E+00 0. -1.
         21   -1    0    0  503  504 -0.00000000000E+00 -0.00000000000E+00 -0.12423572309E+03  0.12423572309E+03  0.00000000000E+00 0. -1.
         25    2    1    2    0    0  0.25835504789E+02  0.23219960471E+02  0.31622071303E+02  0.13353461162E+03  0.12499958894E+03 0.  0.
         25    2    1    2    0    0 -0.25835504789E+02 -0.23219960471E+02 -0.15854949232E+02  0.13070395663E+03  0.12500201995E+03 0.  0.
          5    1    3    3  501    0 -0.24969273802E+02  0.24778286633E+02  0.63932675232E+02  0.73122534727E+02  0.47000000000E+01 0. -1.
         -5    1    3    3    0  501  0.50804778590E+02 -0.15583261624E+01 -0.32310603929E+02  0.60412076891E+02  0.47000000000E+01 0. -1.
          5    1    4    4  502    0  0.90194973514E+01 -0.54072986917E+02 -0.48750426051E+02  0.73511450038E+02  0.47000000000E+01 0. -1.
         -5    1    4    4    0  502 -0.34855002140E+02  0.30853026446E+02  0.32895476819E+02  0.57192506591E+02  0.47000000000E+01 0. -1.
<mgrwt>
<rscale>  0 0.26376774E+03</rscale>
<asrwt>0</asrwt>
<pdfrwt beam="1">  1       21 0.21538899E-01 0.26376774E+03</pdfrwt>
<pdfrwt beam="2">  1       21 0.19113188E-01 0.26376774E+03</pdfrwt>
<totfact> 0.49778873E+05</totfact>
</mgrwt>
</event>
<event>
 8    1  0.9175398E-006  0.2909753E+03  0.7546771E-02  0.1089841E+00
         21   -1    0    0  504  503  0.00000000000E+00  0.00000000000E+00  0.18215878717E+03  0.18215878717E+03  0.00000000000E+00 0. -1.
         21   -1    0    0  503  504 -0.00000000000E+00 -0.00000000000E+00 -0.11619894365E+03  0.11619894365E+03  0.00000000000E+00 0. -1.
         25    2    1    2    0    0  0.33408157391E+02 -0.65182023929E+02  0.46623746586E+02  0.15219933707E+03  0.12500425287E+03 0.  0.
         25    2    1    2    0    0 -0.33408157391E+02  0.65182023929E+02  0.19336096938E+02  0.14615839374E+03  0.12499436064E+03 0.  0.
          5    1    3    3  501    0  0.74435289113E+02 -0.41889901826E+02 -0.23023469903E+00  0.85542499077E+02  0.47000000000E+01 0.  1.
         -5    1    3    3    0  501 -0.41027131722E+02 -0.23292122103E+02  0.46853981285E+02  0.66656837996E+02  0.47000000000E+01 0.  1.
          5    1    4    4  502    0  0.18427145797E+02  0.64336444946E+01 -0.41996882278E+02  0.46548679947E+02  0.47000000000E+01 0.  1.
         -5    1    4    4    0  502 -0.51835303188E+02  0.58748379434E+02  0.61332979216E+02  0.99609713795E+02  0.47000000000E+01 0.  1.
<mgrwt>
<rscale>  0 0.29097532E+03</rscale>
<asrwt>0</asrwt>
<pdfrwt beam="1">  1       21 0.28024429E-01 0.29097532E+03</pdfrwt>
<pdfrwt beam="2">  1       21 0.17876761E-01 0.29097532E+03</pdfrwt>
<totfact> 0.33840482E+05</totfact>
</mgrwt>
</event>
<event>
 8    1  0.9175398E-006  0.2660572E+03  0.7546771E-02  0.1103558E+00
         21   -1    0    0  504  503  0.00000000000E+00  0.00000000000E+00  0.34746858150E+03  0.34746858150E+03  0.00000000000E+00 0. -1.
         21   -1    0    0  503  504 -0.00000000000E+00 -0.00000000000E+00 -0.50930100377E+02  0.50930100377E+02  0.00000000000E+00 0. -1.
         25    2    1    2    0    0 -0.34985666800E+02  0.16728627922E+02  0.18392923077E+03  0.22574264424E+03  0.12500374243E+03 0.  0.
         25    2    1    2    0    0  0.34985666800E+02 -0.16728627922E+02  0.11260925035E+03  0.17265603764E+03  0.12500168077E+03 0.  0.
          5    1    3    3  501    0 -0.20605442515E+02  0.39143382859E+01 -0.14755295071E+02  0.26071345153E+02  0.47000000000E+01 0. -1.
         -5    1    3    3    0  501 -0.14380224285E+02  0.12814289636E+02  0.19868452584E+03  0.19967129908E+03  0.47000000000E+01 0. -1.
          5    1    4    4  502    0  0.55952929559E+02  0.39025720125E+02  0.77494982411E+02  0.10335037231E+03  0.47000000000E+01 0. -1.
         -5    1    4    4    0  502 -0.20967262759E+02 -0.55754348047E+02  0.35114267942E+02  0.69305665330E+02  0.47000000000E+01 0. -1.
<mgrwt>
<rscale>  0 0.26605721E+03</rscale>
<asrwt>0</asrwt>
<pdfrwt beam="1">  1       21 0.53456703E-01 0.26605721E+03</pdfrwt>
<pdfrwt beam="2">  1       21 0.78354003E-02 0.26605721E+03</pdfrwt>
<totfact> 0.40549239E+05</totfact>
</mgrwt>
</event>
<event>
 8    1  0.9175398E-006  0.3428101E+03  0.7546771E-02  0.1065605E+00
         21   -1    0    0  504  503  0.00000000000E+00  0.00000000000E+00  0.99059049977E+02  0.99059049977E+02  0.00000000000E+00 0.  1.
         21   -1    0    0  503  504 -0.00000000000E+00 -0.00000000000E+00 -0.29658761513E+03  0.29658761513E+03  0.00000000000E+00 0.  1.
         25    2    1    2    0    0 -0.19243661546E+02 -0.32694078451E+02  0.29332613291E+02  0.13388159035E+03  0.12499862702E+03 0.  0.
         25    2    1    2    0    0  0.19243661546E+02  0.32694078451E+02 -0.22686117844E+03  0.26176507475E+03  0.12496294972E+03 0.  0.
          5    1    3    3  501    0  0.40996702721E+02 -0.52589270407E+02  0.11638221395E+02  0.67852038976E+02  0.47000000000E+01 0. -1.
         -5    1    3    3    0  501 -0.60240364267E+02  0.19895191957E+02  0.17694391896E+02  0.66029551373E+02  0.47000000000E+01 0. -1.
          5    1    4    4  502    0  0.22078749388E+02 -0.45129411342E+02 -0.66937776235E+02  0.83826552057E+02  0.47000000000E+01 0. -1.
         -5    1    4    4    0  502 -0.28350878419E+01  0.77823489793E+02 -0.15992340221E+03  0.17793852270E+03  0.47000000000E+01 0. -1.
<mgrwt>
<rscale>  0 0.34281008E+03</rscale>
<asrwt>0</asrwt>
<pdfrwt beam="1">  1       21 0.15239854E-01 0.34281008E+03</pdfrwt>
<pdfrwt beam="2">  1       21 0.45628864E-01 0.34281008E+03</pdfrwt>
<totfact> 0.16858761E+05</totfact>
</mgrwt>
</event>
<event>
 8    1  0.9175398E-006  0.2863786E+03  0.7546771E-02  0.1092255E+00
         21   -1    0    0  504  503  0.00000000000E+00  0.00000000000E+00  0.13854445294E+03  0.13854445294E+03  0.00000000000E+00 0. -1.
         21   -1    0    0  503  504 -0.00000000000E+00 -0.00000000000E+00 -0.14798988132E+03  0.14798988132E+03  0.00000000000E+00 0. -1.
         25    2    1    2    0    0  0.46214405666E+02  0.28155896314E+02  0.39459296111E+02  0.14181098600E+03  0.12499917564E+03 0.  0.
         25    2    1    2    0    0 -0.46214405666E+02 -0.28155896314E+02 -0.48904724493E+02  0.14472334827E+03  0.12499859866E+03 0.  0.
          5    1    3    3  501    0 -0.12716292092E+02 -0.42084250541E+02  0.93451675006E+01  0.45190821898E+02  0.47000000000E+01 0.  1.
         -5    1    3    3    0  501  0.58930697758E+02  0.70240146855E+02  0.30114128610E+02  0.96620164099E+02  0.47000000000E+01 0.  1.
          5    1    4    4  502    0  0.20347525763E+02 -0.51744164600E+02 -0.48525832698E+02  0.73948135973E+02  0.47000000000E+01 0. -1.
         -5    1    4    4    0  502 -0.66561931429E+02  0.23588268286E+02 -0.37889179472E+00  0.70775212294E+02  0.47000000000E+01 0. -1.
<mgrwt>
<rscale>  0 0.28637861E+03</rscale>
<asrwt>0</asrwt>
<pdfrwt beam="1">  1       21 0.21314531E-01 0.28637861E+03</pdfrwt>
<pdfrwt beam="2">  1       21 0.22767674E-01 0.28637861E+03</pdfrwt>
<totfact> 0.36326972E+05</totfact>
</mgrwt>
</event>
<event>
 8    1  0.9175398E-006  0.2657480E+03  0.7546771E-02  0.1103738E+00
         21   -1    0    0  504  503  0.00000000000E+00  0.00000000000E+00  0.21452509572E+02  0.21452509572E+02  0.00000000000E+00 0.  1.
         21   -1    0    0  503  504 -0.00000000000E+00 -0.00000000000E+00 -0.82300420950E+03  0.82300420950E+03  0.00000000000E+00 0.  1.
         25    2    1    2    0    0  0.36101019385E+02  0.18791006171E+02 -0.33928978175E+03  0.36386744567E+03  0.12500230600E+03 0.  0.
         25    2    1    2    0    0 -0.36101019385E+02 -0.18791006171E+02 -0.46226191818E+03  0.48058927341E+03  0.12499433266E+03 0.  0.
          5    1    3    3  501    0 -0.19656169899E+02  0.46272748457E+02 -0.24950311515E+03  0.25456124359E+03  0.47000000000E+01 0. -1.
         -5    1    3    3    0  501  0.55757189284E+02 -0.27481742286E+02 -0.89786666594E+02  0.10930620208E+03  0.47000000000E+01 0. -1.
          5    1    4    4  502    0 -0.11303632871E+02 -0.25778631729E+02 -0.14404819792E+02  0.31967151940E+02  0.47000000000E+01 0.  1.
         -5    1    4    4    0  502 -0.24797386513E+02  0.69876255584E+01 -0.44785709839E+03  0.44862212147E+03  0.47000000000E+01 0.  1.
<mgrwt>
<rscale>  0 0.26574804E+03</rscale>
<asrwt>0</asrwt>
<pdfrwt beam="1">  1       21 0.33003869E-02 0.26574804E+03</pdfrwt>
<pdfrwt beam="2">  1       21 0.12661600E+00 0.26574804E+03</pdfrwt>
<totfact> 0.24364075E+05</totfact>
</mgrwt>
</event>
<event>
 8    1  0.9175398E-006  0.3092770E+03  0.7546771E-02  0.1080693E+00
         21   -1    0    0  504  503  0.00000000000E+00  0.00000000000E+00  0.14495678076E+03  0.14495678076E+03  0.00000000000E+00 0.  1.
         21   -1    0    0  503  504 -0.00000000000E+00 -0.00000000000E+00 -0.16496684999E+03  0.16496684999E+03  0.00000000000E+00 0.  1.
         25    2    1    2    0    0 -0.55462787437E+02 -0.71063108075E+02 -0.22802327529E+02  0.15578534022E+03  0.12499215962E+03 0.  0.
         25    2    1    2    0    0  0.55462787437E+02  0.71063108075E+02  0.27922583031E+01  0.15413829053E+03  0.12499891912E+03 0.  0.
          5    1    3    3  501    0 -0.85351775485E+02 -0.39529712648E+02 -0.47615301008E+02  0.10553118331E+03  0.47000000000E+01 0.  1.
         -5    1    3    3    0  501  0.29888988048E+02 -0.31533395427E+02  0.24812973478E+02  0.50254156908E+02  0.47000000000E+01 0.  1.
          5    1    4    4  502    0  0.25482714976E+02  0.87697040580E+02 -0.39397706114E+02  0.99571125012E+02  0.47000000000E+01 0. -1.
         -5    1    4    4    0  502  0.29980072461E+02 -0.16633932505E+02  0.42189964417E+02  0.54567165520E+02  0.47000000000E+01 0. -1.
<mgrwt>
<rscale>  0 0.30927699E+03</rscale>
<asrwt>0</asrwt>
<pdfrwt beam="1">  1       21 0.22301043E-01 0.30927699E+03</pdfrwt>
<pdfrwt beam="2">  1       21 0.25379515E-01 0.30927699E+03</pdfrwt>
<totfact> 0.26937262E+05</totfact>
</mgrwt>
</event>
<event>
 8    1  0.9175398E-006  0.3639732E+03  0.7546771E-02  0.1057022E+00
         21   -1    0    0  504  503  0.00000000000E+00  0.00000000000E+00  0.14416271780E+03  0.14416271780E+03  0.00000000000E+00 0. -1.
         21   -1    0    0  503  504 -0.00000000000E+00 -0.00000000000E+00 -0.22973427882E+03  0.22973427882E+03  0.00000000000E+00 0. -1.
         25    2    1    2    0    0  0.85255688919E+02  0.95367731401E+02 -0.82870885491E+01  0.17906767554E+03  0.12503207549E+03 0.  0.
         25    2    1    2    0    0 -0.85255688919E+02 -0.95367731401E+02 -0.77284472466E+02  0.19482932108E+03  0.12498815137E+03 0.  0.
          5    1    3    3  501    0  0.11524902449E+02 -0.22248822636E+02 -0.29026400697E+02  0.38632310603E+02  0.47000000000E+01 0. -1.
         -5    1    3    3    0  501  0.73730786470E+02  0.11761655404E+03  0.20739312148E+02  0.14043536494E+03  0.47000000000E+01 0. -1.
          5    1    4    4  502    0 -0.95240087204E+02 -0.16829290331E+02 -0.59169305886E+02  0.11347685219E+03  0.47000000000E+01 0.  1.
         -5    1    4    4    0  502  0.99843982847E+01 -0.78538441070E+02 -0.18115166580E+02  0.81352468894E+02  0.47000000000E+01 0.  1.
<mgrwt>
<rscale>  0 0.36397317E+03</rscale>
<asrwt>0</asrwt>
<pdfrwt beam="1">  1       21 0.22178880E-01 0.36397317E+03</pdfrwt>
<pdfrwt beam="2">  1       21 0.35343735E-01 0.36397317E+03</pdfrwt>
<totfact> 0.14001299E+05</totfact>
</mgrwt>
</event>
<event>
 8    1  0.9175398E-006  0.2747997E+03  0.7546771E-02  0.1098564E+00
         21   -1    0    0  504  503  0.00000000000E+00  0.00000000000E+00  0.16178889877E+03  0.16178889877E+03  0.00000000000E+00 0. -1.
         21   -1    0    0  503  504 -0.00000000000E+00 -0.00000000000E+00 -0.11668735019E+03  0.11668735019E+03  0.00000000000E+00 0. -1.
         25    2    1    2    0    0 -0.13052085365E+01  0.56662748315E+02  0.29134593060E+02  0.14030567278E+03  0.12499794673E+03 0.  0.
         25    2    1    2    0    0  0.13052085365E+01 -0.56662748315E+02  0.15966955515E+02  0.13817057618E+03  0.12499517525E+03 0.  0.
          5    1    3    3  501    0 -0.23528582147E+02 -0.14373900323E+02  0.54724323536E+02  0.61457666526E+02  0.47000000000E+01 0. -1.
         -5    1    3    3    0  501  0.22223373610E+02  0.71036648638E+02 -0.25589730476E+02  0.78848006254E+02  0.47000000000E+01 0. -1.
          5    1    4    4  502    0 -0.45398697687E+02 -0.68261119997E+01 -0.30600238689E+02  0.55372395329E+02  0.47000000000E+01 0. -1.
         -5    1    4    4    0  502  0.46703906223E+02 -0.49836636315E+02  0.46567194205E+02  0.82798180849E+02  0.47000000000E+01 0. -1.
<mgrwt>
<rscale>  0 0.27479969E+03</rscale>
<asrwt>0</asrwt>
<pdfrwt beam="1">  1       21 0.24890600E-01 0.27479969E+03</pdfrwt>
<pdfrwt beam="2">  1       21 0.17951900E-01 0.27479969E+03</pdfrwt>
<totfact> 0.42378360E+05</totfact>
</mgrwt>
</event>
<event>
 8    1  0.9175398E-006  0.3415379E+03  0.7546771E-02  0.1066143E+00
         21   -1    0    0  504  503  0.00000000000E+00  0.00000000000E+00  0.62890117968E+03  0.62890117968E+03  0.00000000000E+00 0. -1.
         21   -1    0    0  503  504 -0.00000000000E+00 -0.00000000000E+00 -0.46369827557E+02  0.46369827557E+02  0.00000000000E+00 0. -1.
         25    2    1    2    0    0  0.54105603336E+02  0.67166070747E+02  0.13684393831E+03  0.20441994451E+03  0.12499021117E+03 0.  0.
         25    2    1    2    0    0 -0.54105603336E+02 -0.67166070747E+02  0.44568741381E+03  0.47085106272E+03  0.12499902027E+03 0.  0.
          5    1    3    3  501    0 -0.16873842838E+02  0.22702216802E+01 -0.15961761567E+02  0.23806476239E+02  0.47000000000E+01 0.  1.
         -5    1    3    3    0  501  0.70979446174E+02  0.64895849067E+02  0.15280569988E+03  0.18061346827E+03  0.47000000000E+01 0.  1.
          5    1    4    4  502    0 -0.46262241639E+02 -0.96857433051E+02  0.24160526510E+03  0.26441775935E+03  0.47000000000E+01 0.  1.
         -5    1    4    4    0  502 -0.78433616976E+01  0.29691362303E+02  0.20408214871E+03  0.20643330337E+03  0.47000000000E+01 0.  1.
<mgrwt>
<rscale>  0 0.34153793E+03</rscale>
<asrwt>0</asrwt>
<pdfrwt beam="1">  1       21 0.96754022E-01 0.34153793E+03</pdfrwt>
<pdfrwt beam="2">  1       21 0.71338201E-02 0.34153793E+03</pdfrwt>
<totfact> 0.12392558E+05</totfact>
</mgrwt>
</event>
<event>
 8    1  0.9175398E-006  0.2939180E+03  0.7546771E-02  0.1088321E+00
         21   -1    0    0  504  503  0.00000000000E+00  0.00000000000E+00  0.84783984080E+02  0.84783984080E+02  0.00000000000E+00 0.  1.
         21   -1    0    0  503  504 -0.00000000000E+00 -0.00000000000E+00 -0.25472905319E+03  0.25472905319E+03  0.00000000000E+00 0.  1.
         25    2    1    2    0    0  0.67707614574E+02 -0.11232964791E+02 -0.43973887031E+02  0.14922947262E+03  0.12500092875E+03 0.  0.
         25    2    1    2    0    0 -0.67707614574E+02  0.11232964791E+02 -0.12597118207E+03  0.19028356465E+03  0.12501438195E+03 0.  0.
          5    1    3    3  501    0 -0.48799153260E+01  0.12520312592E+02 -0.67649245648E+02  0.69130906530E+02  0.47000000000E+01 0.  1.
         -5    1    3    3    0  501  0.72587529900E+02 -0.23753277383E+02  0.23675358617E+02  0.80098566086E+02  0.47000000000E+01 0.  1.
          5    1    4    4  502    0 -0.53832852992E+02  0.28742397554E+02 -0.14700743257E+03  0.15923999721E+03  0.47000000000E+01 0. -1.
         -5    1    4    4    0  502 -0.13874761582E+02 -0.17509432763E+02  0.21036250498E+02  0.31043567444E+02  0.47000000000E+01 0. -1.
<mgrwt>
<rscale>  0 0.29391797E+03</rscale>
<asrwt>0</asrwt>
<pdfrwt beam="1">  1       21 0.13043690E-01 0.29391797E+03</pdfrwt>
<pdfrwt beam="2">  1       21 0.39189084E-01 0.29391797E+03</pdfrwt>
<totfact> 0.30984084E+05</totfact>
</mgrwt>
</event>
<event>
 8    1  0.9175398E-006  0.2730444E+03  0.7546771E-02  0.1099550E+00
         21   -1    0    0  504  503  0.00000000000E+00  0.00000000000E+00  0.45876496184E+03  0.45876496184E+03  0.00000000000E+00 0. -1.
         21   -1    0    0  503  504 -0.00000000000E+00 -0.00000000000E+00 -0.40627139917E+02  0.40627139917E+02  0.00000000000E+00 0. -1.
         25    2    1    2    0    0 -0.16158711238E+02  0.38720399675E+02  0.14431948360E+03  0.19548302986E+03  0.12500051327E+03 0.  0.
         25    2    1    2    0    0  0.16158711238E+02 -0.38720399675E+02  0.27381833832E+03  0.30390907190E+03  0.12499547304E+03 0.  0.
          5    1    3    3  501    0 -0.20367721264E+02  0.60840396105E+02  0.15667818074E+03  0.16937101342E+03  0.47000000000E+01 0.  1.
         -5    1    3    3    0  501  0.42090100259E+01 -0.22119996430E+02 -0.12358697139E+02  0.26112016438E+02  0.47000000000E+01 0.  1.
          5    1    4    4  502    0  0.36226355145E+02 -0.61573458616E+02  0.26087980521E+03  0.27052541910E+03  0.47000000000E+01 0. -1.
         -5    1    4    4    0  502 -0.20067643907E+02  0.22853058941E+02  0.12938533112E+02  0.33383652796E+02  0.47000000000E+01 0. -1.
<mgrwt>
<rscale>  0 0.27304438E+03</rscale>
<asrwt>0</asrwt>
<pdfrwt beam="1">  1       21 0.70579221E-01 0.27304438E+03</pdfrwt>
<pdfrwt beam="2">  1       21 0.62503296E-02 0.27304438E+03</pdfrwt>
<totfact> 0.32791595E+05</totfact>
</mgrwt>
</event>
<event>
 8    1  0.9175398E-006  0.3580652E+03  0.7546771E-02  0.1059353E+00
         21   -1    0    0  504  503  0.00000000000E+00  0.00000000000E+00  0.13770540873E+03  0.13770540873E+03  0.00000000000E+00 0. -1.
         21   -1    0    0  503  504 -0.00000000000E+00 -0.00000000000E+00 -0.23276261902E+03  0.23276261902E+03  0.00000000000E+00 0. -1.
         25    2    1    2    0    0  0.98746278824E+02  0.12669691629E+02  0.35994616519E+02  0.16380375680E+03  0.12499883862E+03 0.  0.
         25    2    1    2    0    0 -0.98746278824E+02 -0.12669691629E+02 -0.13105182680E+03  0.20666427095E+03  0.12499676360E+03 0.  0.
          5    1    3    3  501    0 -0.14919576209E+01  0.44712603874E+02  0.37329273519E+02  0.58455175513E+02  0.47000000000E+01 0. -1.
         -5    1    3    3    0  501  0.10023823644E+03 -0.32042912245E+02 -0.13346570001E+01  0.10534858129E+03  0.47000000000E+01 0. -1.
          5    1    4    4  502    0 -0.11904677298E+03 -0.38293249708E+02 -0.11494006711E+03  0.16991708612E+03  0.47000000000E+01 0.  1.
         -5    1    4    4    0  502  0.20300494160E+02  0.25623558079E+02 -0.16111759696E+02  0.36747184821E+02  0.47000000000E+01 0.  1.
<mgrwt>
<rscale>  0 0.35806520E+03</rscale>
<asrwt>0</asrwt>
<pdfrwt beam="1">  1       21 0.21185447E-01 0.35806520E+03</pdfrwt>
<pdfrwt beam="2">  1       21 0.35809634E-01 0.35806520E+03</pdfrwt>
<totfact> 0.14901155E+05</totfact>
</mgrwt>
</event>
<event>
 8    1  0.9175398E-006  0.4913583E+03  0.7546771E-02  0.1016059E+00
         21   -1    0    0  504  503  0.00000000000E+00  0.00000000000E+00  0.48868839362E+03  0.48868839362E+03  0.00000000000E+00 0.  1.
         21   -1    0    0  503  504 -0.00000000000E+00 -0.00000000000E+00 -0.12351069297E+03  0.12351069297E+03  0.00000000000E+00 0.  1.
         25    2    1    2    0    0  0.35669448183E+02  0.20793921747E+03  0.20112718243E+03  0.31715799840E+03  0.12500409891E+03 0.  0.
         25    2    1    2    0    0 -0.35669448183E+02 -0.20793921747E+03  0.16405051823E+03  0.29504108819E+03  0.12500257395E+03 0.  0.
          5    1    3    3  501    0 -0.39733248829E+02  0.12235901715E+03  0.84678105349E+02  0.15408741566E+03  0.47000000000E+01 0. -1.
         -5    1    3    3    0  501  0.75402697011E+02  0.85580200320E+02  0.11644907708E+03  0.16307058274E+03  0.47000000000E+01 0. -1.
          5    1    4    4  502    0 -0.77758957177E+02 -0.12060554335E+03  0.12518693402E+03  0.19048887358E+03  0.47000000000E+01 0.  1.
         -5    1    4    4    0  502  0.42089508994E+02 -0.87333674122E+02  0.38863584208E+02  0.10455221461E+03  0.47000000000E+01 0.  1.
<mgrwt>
<rscale>  0 0.49135829E+03</rscale>
<asrwt>0</asrwt>
<pdfrwt beam="1">  1       21 0.75182829E-01 0.49135829E+03</pdfrwt>
<pdfrwt beam="2">  1       21 0.19001645E-01 0.49135829E+03</pdfrwt>
<totfact> 0.36369168E+04</totfact>
</mgrwt>
</event>
<event>
 8    1  0.9175398E-006  0.3463096E+03  0.7546771E-02  0.1064140E+00
         21   -1    0    0  504  503  0.00000000000E+00  0.00000000000E+00  0.40530664503E+03  0.40530664503E+03  0.00000000000E+00 0.  1.
         21   -1    0    0  503  504 -0.00000000000E+00 -0.00000000000E+00 -0.73975084242E+02  0.73975084242E+02  0.00000000000E+00 0.  1.
         25    2    1    2    0    0 -0.70267403112E+02  0.68055393285E+02  0.69896021873E+02  0.17343373258E+03  0.12499904490E+03 0.  0.
         25    2    1    2    0    0  0.70267403112E+02 -0.68055393285E+02  0.26143553892E+03  0.30584799670E+03  0.12500164631E+03 0.  0.
          5    1    3    3  501    0 -0.41768269393E+02  0.95220399104E+02  0.14176017927E+02  0.10504552450E+03  0.47000000000E+01 0. -1.
         -5    1    3    3    0  501 -0.28499133719E+02 -0.27165005818E+02  0.55720003946E+02  0.68388208074E+02  0.47000000000E+01 0. -1.
          5    1    4    4  502    0  0.21566069712E+02 -0.44400906191E+02  0.24368268868E+03  0.24867625257E+03  0.47000000000E+01 0. -1.
         -5    1    4    4    0  502  0.48701333400E+02 -0.23654487094E+02  0.17752850239E+02  0.57171744124E+02  0.47000000000E+01 0. -1.
<mgrwt>
<rscale>  0 0.34630965E+03</rscale>
<asrwt>0</asrwt>
<pdfrwt beam="1">  1       21 0.62354867E-01 0.34630965E+03</pdfrwt>
<pdfrwt beam="2">  1       21 0.11380782E-01 0.34630965E+03</pdfrwt>
<totfact> 0.14729209E+05</totfact>
</mgrwt>
</event>
<event>
 8    1  0.9175398E-006  0.2813924E+03  0.7546771E-02  0.1094931E+00
         21   -1    0    0  504  503  0.00000000000E+00  0.00000000000E+00  0.30165751903E+03  0.30165751903E+03  0.00000000000E+00 0. -1.
         21   -1    0    0  503  504 -0.00000000000E+00 -0.00000000000E+00 -0.65622163814E+02  0.65622163814E+02  0.00000000000E+00 0. -1.
         25    2    1    2    0    0 -0.38730968982E+02  0.49763204996E+02  0.99848210984E+02  0.17196317089E+03  0.12500080950E+03 0.  0.
         25    2    1    2    0    0  0.38730968982E+02 -0.49763204996E+02  0.13618714424E+03  0.19531651196E+03  0.12500054823E+03 0.  0.
          5    1    3    3  501    0 -0.67563696528E+00  0.21674268300E+02  0.11875418702E+03  0.12080926010E+03  0.47000000000E+01 0.  1.
         -5    1    3    3    0  501 -0.38055332017E+02  0.28088936696E+02 -0.18905976033E+02  0.51153910793E+02  0.47000000000E+01 0.  1.
          5    1    4    4  502    0  0.63507690055E+02  0.12749081700E+02  0.98802628975E+02  0.11823626886E+03  0.47000000000E+01 0. -1.
         -5    1    4    4    0  502 -0.24776721073E+02 -0.62512286696E+02  0.37384515260E+02  0.77080243100E+02  0.47000000000E+01 0. -1.
<mgrwt>
<rscale>  0 0.28139239E+03</rscale>
<asrwt>0</asrwt>
<pdfrwt beam="1">  1       21 0.46408848E-01 0.28139239E+03</pdfrwt>
<pdfrwt beam="2">  1       21 0.10095718E-01 0.28139239E+03</pdfrwt>
<totfact> 0.34777500E+05</totfact>
</mgrwt>
</event>
<event>
 8    1  0.9175398E-006  0.3536274E+03  0.7546771E-02  0.1061136E+00
         21   -1    0    0  504  503  0.00000000000E+00  0.00000000000E+00  0.13595961453E+03  0.13595961453E+03  0.00000000000E+00 0. -1.
         21   -1    0    0  503  504 -0.00000000000E+00 -0.00000000000E+00 -0.22994387802E+03  0.22994387802E+03  0.00000000000E+00 0. -1.
         25    2    1    2    0    0  0.63313869215E+01 -0.63227815360E+02  0.64452030264E+02  0.15432516016E+03  0.12499739100E+03 0.  0.
         25    2    1    2    0    0 -0.63313869215E+01  0.63227815360E+02 -0.15843629375E+03  0.21157833239E+03  0.12500195384E+03 0.  0.
          5    1    3    3  501    0  0.18223346087E+02 -0.58506343851E+02 -0.23146143696E+02  0.65672799403E+02  0.47000000000E+01 0.  1.
         -5    1    3    3    0  501 -0.11891959165E+02 -0.47214715091E+01  0.87598173961E+02  0.88652360754E+02  0.47000000000E+01 0.  1.
          5    1    4    4  502    0  0.61227539864E+01 -0.79996714802E+01 -0.13494908721E+03  0.13540616308E+03  0.47000000000E+01 0. -1.
         -5    1    4    4    0  502 -0.12454140908E+02  0.71227486840E+02 -0.23487206541E+02  0.76172169317E+02  0.47000000000E+01 0. -1.
<mgrwt>
<rscale>  0 0.35362738E+03</rscale>
<asrwt>0</asrwt>
<pdfrwt beam="1">  1       21 0.20916864E-01 0.35362738E+03</pdfrwt>
<pdfrwt beam="2">  1       21 0.35375981E-01 0.35362738E+03</pdfrwt>
<totfact> 0.15661762E+05</totfact>
</mgrwt>
</event>
<event>
 8    1  0.9175398E-006  0.2553962E+03  0.7546771E-02  0.1109941E+00
         21   -1    0    0  504  503  0.00000000000E+00  0.00000000000E+00  0.99694312488E+03  0.99694312488E+03  0.00000000000E+00 0. -1.
         21   -1    0    0  503  504 -0.00000000000E+00 -0.00000000000E+00 -0.16356801950E+02  0.16356801950E+02  0.00000000000E+00 0. -1.
         25    2    1    2    0    0  0.21754489151E+02 -0.13231508861E+02  0.46621313589E+03  0.48334835970E+03  0.12499047215E+03 0.  0.
         25    2    1    2    0    0 -0.21754489151E+02  0.13231508861E+02  0.51437318704E+03  0.52995156712E+03  0.12498222804E+03 0.  0.
          5    1    3    3  501    0 -0.26031228800E+02 -0.34437362270E+02  0.61729348975E+02  0.75472904528E+02  0.47000000000E+01 0. -1.
         -5    1    3    3    0  501  0.47785717951E+02  0.21205853409E+02  0.40448378691E+03  0.40787545518E+03  0.47000000000E+01 0. -1.
          5    1    4    4  502    0 -0.33592945696E+01  0.15883738952E+02  0.51001107695E+03  0.51029106071E+03  0.47000000000E+01 0.  1.
         -5    1    4    4    0  502 -0.18395194582E+02 -0.26522300901E+01  0.43621100864E+01  0.19660506417E+02  0.47000000000E+01 0.  1.
<mgrwt>
<rscale>  0 0.25539617E+03</rscale>
<asrwt>0</asrwt>
<pdfrwt beam="1">  1       21 0.15337582E+00 0.25539617E+03</pdfrwt>
<pdfrwt beam="2">  1       21 0.25164319E-02 0.25539617E+03</pdfrwt>
<totfact> 0.23283291E+05</totfact>
</mgrwt>
</event>
<event>
 8    1  0.9175398E-006  0.2762642E+03  0.7546771E-02  0.1097747E+00
         21   -1    0    0  504  503  0.00000000000E+00  0.00000000000E+00  0.50664456564E+02  0.50664456564E+02  0.00000000000E+00 0. -1.
         21   -1    0    0  503  504 -0.00000000000E+00 -0.00000000000E+00 -0.37660476764E+03  0.37660476764E+03  0.00000000000E+00 0. -1.
         25    2    1    2    0    0 -0.83779701065E+01  0.23634985364E+02 -0.80739496619E+02  0.15090339852E+03  0.12499666578E+03 0.  0.
         25    2    1    2    0    0  0.83779701065E+01 -0.23634985364E+02 -0.24520081446E+03  0.27636582568E+03  0.12500330907E+03 0.  0.
          5    1    3    3  501    0 -0.26442856901E+02  0.22797881815E+02  0.25209439661E+02  0.43319440721E+02  0.47000000000E+01 0.  1.
         -5    1    3    3    0  501  0.18064886794E+02  0.83710354901E+00 -0.10594893628E+03  0.10758395780E+03  0.47000000000E+01 0.  1.
          5    1    4    4  502    0 -0.20852012352E+02 -0.60448918267E+02 -0.70081085905E+02  0.94985929171E+02  0.47000000000E+01 0.  1.
         -5    1    4    4    0  502  0.29229982459E+02  0.36813932903E+02 -0.17511972855E+03  0.18137989651E+03  0.47000000000E+01 0.  1.
<mgrwt>
<rscale>  0 0.27626419E+03</rscale>
<asrwt>0</asrwt>
<pdfrwt beam="1">  1       21 0.77945320E-02 0.27626419E+03</pdfrwt>
<pdfrwt beam="2">  1       21 0.57939193E-01 0.27626419E+03</pdfrwt>
<totfact> 0.34380538E+05</totfact>
</mgrwt>
</event>
<event>
 8    1  0.9175398E-006  0.3188048E+03  0.7546771E-02  0.1076201E+00
         21   -1    0    0  504  503  0.00000000000E+00  0.00000000000E+00  0.26594131606E+03  0.26594131606E+03  0.00000000000E+00 0.  1.
         21   -1    0    0  503  504 -0.00000000000E+00 -0.00000000000E+00 -0.95544115988E+02  0.95544115988E+02  0.00000000000E+00 0.  1.
         25    2    1    2    0    0 -0.68964271801E+02 -0.61028754121E+02  0.44228577188E+02  0.16142482562E+03  0.12498490977E+03 0.  0.
         25    2    1    2    0    0  0.68964271801E+02  0.61028754121E+02  0.12616862288E+03  0.20006060643E+03  0.12500058092E+03 0.  0.
          5    1    3    3  501    0 -0.10187112299E+03 -0.23294971147E+02  0.24729317473E+02  0.10748958332E+03  0.47000000000E+01 0. -1.
         -5    1    3    3    0  501  0.32906851184E+02 -0.37733782974E+02  0.19499259714E+02  0.53935242298E+02  0.47000000000E+01 0. -1.
          5    1    4    4  502    0  0.85482939703E+02  0.44914799912E+02  0.14192536432E+03  0.17172527848E+03  0.47000000000E+01 0.  1.
         -5    1    4    4    0  502 -0.16518667901E+02  0.16113954209E+02 -0.15756741436E+02  0.28335327953E+02  0.47000000000E+01 0.  1.
<mgrwt>
<rscale>  0 0.31880482E+03</rscale>
<asrwt>0</asrwt>
<pdfrwt beam="1">  1       21 0.40914048E-01 0.31880482E+03</pdfrwt>
<pdfrwt beam="2">  1       21 0.14699095E-01 0.31880482E+03</pdfrwt>
<totfact> 0.22692135E+05</totfact>
</mgrwt>
</event>
<event>
 8    1  0.9175398E-006  0.2560322E+03  0.7546771E-02  0.1109551E+00
         21   -1    0    0  504  503  0.00000000000E+00  0.00000000000E+00  0.78872539561E+02  0.78872539561E+02  0.00000000000E+00 0. -1.
         21   -1    0    0  503  504 -0.00000000000E+00 -0.00000000000E+00 -0.20777982933E+03  0.20777982933E+03  0.00000000000E+00 0. -1.
         25    2    1    2    0    0  0.19655958452E+02  0.16769035336E+02 -0.53561539548E+02  0.13843234119E+03  0.12500846900E+03 0.  0.
         25    2    1    2    0    0 -0.19655958452E+02 -0.16769035336E+02 -0.75345750217E+02  0.14822002769E+03  0.12499854913E+03 0.  0.
          5    1    3    3  501    0  0.53800667863E+02 -0.13743222244E+02  0.13267008453E+02  0.57284304425E+02  0.47000000000E+01 0.  1.
         -5    1    3    3    0  501 -0.34144709411E+02  0.30512257581E+02 -0.66828548000E+02  0.81148036768E+02  0.47000000000E+01 0.  1.
          5    1    4    4  502    0  0.30517612600E+02  0.22249956280E+02  0.12169407878E+02  0.39957098511E+02  0.47000000000E+01 0.  1.
         -5    1    4    4    0  502 -0.50173571052E+02 -0.39018991617E+02 -0.87515158095E+02  0.10826292918E+03  0.47000000000E+01 0.  1.
<mgrwt>
<rscale>  0 0.25603221E+03</rscale>
<asrwt>0</asrwt>
<pdfrwt beam="1">  1       21 0.12134237E-01 0.25603221E+03</pdfrwt>
<pdfrwt beam="2">  1       21 0.31966127E-01 0.25603221E+03</pdfrwt>
<totfact> 0.53498804E+05</totfact>
</mgrwt>
</event>
<event>
 8    1  0.9175398E-006  0.3009796E+03  0.7546771E-02  0.1084752E+00
         21   -1    0    0  504  503  0.00000000000E+00  0.00000000000E+00  0.70120750688E+02  0.70120750688E+02  0.00000000000E+00 0.  1.
         21   -1    0    0  503  504 -0.00000000000E+00 -0.00000000000E+00 -0.32297409007E+03  0.32297409007E+03  0.00000000000E+00 0.  1.
         25    2    1    2    0    0 -0.71935282823E+00  0.83671900115E+02 -0.12045643802E+03  0.19270830943E+03  0.12500093890E+03 0.  0.
         25    2    1    2    0    0  0.71935282823E+00 -0.83671900115E+02 -0.13239690136E+03  0.20038653132E+03  0.12499727241E+03 0.  0.
          5    1    3    3  501    0  0.47322972468E+01  0.39314552857E+02 -0.13861789619E+03  0.14423952249E+03  0.47000000000E+01 0.  1.
         -5    1    3    3    0  501 -0.54516500750E+01  0.44357347258E+02  0.18161458174E+02  0.48468786939E+02  0.47000000000E+01 0.  1.
          5    1    4    4  502    0  0.37788590989E+02 -0.58042010222E+02 -0.10332306849E+02  0.70183325116E+02  0.47000000000E+01 0. -1.
         -5    1    4    4    0  502 -0.37069238161E+02 -0.25629889894E+02 -0.12206459451E+03  0.13020320621E+03  0.47000000000E+01 0. -1.
<mgrwt>
<rscale>  0 0.30097964E+03</rscale>
<asrwt>0</asrwt>
<pdfrwt beam="1">  1       21 0.10787808E-01 0.30097964E+03</pdfrwt>
<pdfrwt beam="2">  1       21 0.49688321E-01 0.30097964E+03</pdfrwt>
<totfact> 0.26668924E+05</totfact>
</mgrwt>
</event>
<event>
 8    1  0.9175398E-006  0.3048345E+03  0.7546771E-02  0.1082849E+00
         21   -1    0    0  504  503  0.00000000000E+00  0.00000000000E+00  0.74443696151E+02  0.74443696151E+02  0.00000000000E+00 0.  1.
         21   -1    0    0  503  504 -0.00000000000E+00 -0.00000000000E+00 -0.31206166835E+03  0.31206166835E+03  0.00000000000E+00 0.  1.
         25    2    1    2    0    0  0.18029629293E+02  0.74813229439E+02 -0.17085291372E+03  0.22524767174E+03  0.12499483457E+03 0.  0.
         25    2    1    2    0    0 -0.18029629293E+02 -0.74813229439E+02 -0.66765058486E+02  0.16125769276E+03  0.12499753441E+03 0.  0.
          5    1    3    3  501    0 -0.33275547186E+02  0.15091848754E+02  0.25094517252E+00  0.36839909240E+02  0.47000000000E+01 0.  1.
         -5    1    3    3    0  501  0.51305176479E+02  0.59721380685E+02 -0.17110385889E+03  0.18840776250E+03  0.47000000000E+01 0.  1.
          5    1    4    4  502    0 -0.11862097839E+02 -0.10291037950E+03 -0.78270476021E+02  0.12992156476E+03  0.47000000000E+01 0.  1.
         -5    1    4    4    0  502 -0.61675314541E+01  0.28097150057E+02  0.11505417535E+02  0.31336128003E+02  0.47000000000E+01 0.  1.
<mgrwt>
<rscale>  0 0.30483454E+03</rscale>
<asrwt>0</asrwt>
<pdfrwt beam="1">  1       21 0.11452876E-01 0.30483454E+03</pdfrwt>
<pdfrwt beam="2">  1       21 0.48009488E-01 0.30483454E+03</pdfrwt>
<totfact> 0.25723084E+05</totfact>
</mgrwt>
</event>
<event>
 8    1  0.9175398E-006  0.2591350E+03  0.7546771E-02  0.1107664E+00
         21   -1    0    0  504  503  0.00000000000E+00  0.00000000000E+00  0.22201172449E+02  0.22201172449E+02  0.00000000000E+00 0.  1.
         21   -1    0    0  503  504 -0.00000000000E+00 -0.00000000000E+00 -0.75616421996E+03  0.75616421996E+03  0.00000000000E+00 0.  1.
         25    2    1    2    0    0  0.68083311510E+01  0.28404982627E+02 -0.31401486149E+03  0.33923594389E+03  0.12498998351E+03 0.  0.
         25    2    1    2    0    0 -0.68083311510E+01 -0.28404982627E+02 -0.41994818602E+03  0.43912944851E+03  0.12499998882E+03 0.  0.
          5    1    3    3  501    0 -0.54320394044E+02 -0.10526848705E+02 -0.14554882216E+03  0.15578212152E+03  0.47000000000E+01 0. -1.
         -5    1    3    3    0  501  0.61128725195E+02  0.38931831332E+02 -0.16846603933E+03  0.18345382237E+03  0.47000000000E+01 0. -1.
          5    1    4    4  502    0 -0.69453364049E+01  0.17577626508E+02 -0.37207224399E+03  0.37258160904E+03  0.47000000000E+01 0.  1.
         -5    1    4    4    0  502  0.13700525397E+00 -0.45982609134E+02 -0.47875942029E+02  0.66547839472E+02  0.47000000000E+01 0.  1.
<mgrwt>
<rscale>  0 0.25913496E+03</rscale>
<asrwt>0</asrwt>
<pdfrwt beam="1">  1       21 0.34155648E-02 0.25913496E+03</pdfrwt>
<pdfrwt beam="2">  1       21 0.11633296E+00 0.25913496E+03</pdfrwt>
<totfact> 0.28500048E+05</totfact>
</mgrwt>
</event>
<event>
 8    1  0.9175398E-006  0.3950925E+03  0.7546771E-02  0.1045492E+00
         21   -1    0    0  504  503  0.00000000000E+00  0.00000000000E+00  0.32837669097E+02  0.32837669097E+02  0.00000000000E+00 0.  1.
         21   -1    0    0  503  504 -0.00000000000E+00 -0.00000000000E+00 -0.11884069790E+04  0.11884069790E+04  0.00000000000E+00 0.  1.
         25    2    1    2    0    0 -0.14492732338E+01  0.11184966863E+03 -0.90042878795E+03  0.91591570585E+03  0.12496851322E+03 0.  0.
         25    2    1    2    0    0  0.14492732338E+01 -0.11184966863E+03 -0.25514052192E+03  0.30532894221E+03  0.12496650855E+03 0.  0.
          5    1    3    3  501    0  0.31592394251E+02  0.57697219917E+02 -0.16426592211E+03  0.17700969388E+03  0.47000000000E+01 0. -1.
         -5    1    3    3    0  501 -0.33041667485E+02  0.54152448711E+02 -0.73616286584E+03  0.73890601197E+03  0.47000000000E+01 0. -1.
          5    1    4    4  502    0  0.54343890371E+02 -0.22354965423E+02 -0.12879678328E+03  0.14164640582E+03  0.47000000000E+01 0.  1.
         -5    1    4    4    0  502 -0.52894617137E+02 -0.89494703204E+02 -0.12634373864E+03  0.16368253638E+03  0.47000000000E+01 0.  1.
<mgrwt>
<rscale>  0 0.39509247E+03</rscale>
<asrwt>0</asrwt>
<pdfrwt beam="1">  1       21 0.50519499E-02 0.39509247E+03</pdfrwt>
<pdfrwt beam="2">  1       21 0.18283181E+00 0.39509247E+03</pdfrwt>
<totfact> 0.41995403E+04</totfact>
</mgrwt>
</event>
<event>
 8    1  0.9175398E-006  0.2979857E+03  0.7546771E-02  0.1086252E+00
         21   -1    0    0  504  503  0.00000000000E+00  0.00000000000E+00  0.20432716437E+03  0.20432716437E+03  0.00000000000E+00 0.  1.
         21   -1    0    0  503  504 -0.00000000000E+00 -0.00000000000E+00 -0.10864376239E+03  0.10864376239E+03  0.00000000000E+00 0.  1.
         25    2    1    2    0    0 -0.34527025364E+02  0.52092554673E+02  0.10208994843E+03  0.17307255144E+03  0.12500400297E+03 0.  0.
         25    2    1    2    0    0  0.34527025364E+02 -0.52092554673E+02 -0.64065464396E+01  0.13989837532E+03  0.12499904739E+03 0.  0.
          5    1    3    3  501    0 -0.22877493239E+02 -0.39786195127E+02  0.24951856432E+02  0.52450034881E+02  0.47000000000E+01 0.  1.
         -5    1    3    3    0  501 -0.11649532125E+02  0.91878749800E+02  0.77138091994E+02  0.12062251655E+03  0.47000000000E+01 0.  1.
          5    1    4    4  502    0  0.61777455902E+02 -0.71632510773E+02  0.20195949998E+02  0.96838200384E+02  0.47000000000E+01 0. -1.
         -5    1    4    4    0  502 -0.27250430537E+02  0.19539956100E+02 -0.26602496437E+02  0.43060174937E+02  0.47000000000E+01 0. -1.
<mgrwt>
<rscale>  0 0.29798572E+03</rscale>
<asrwt>0</asrwt>
<pdfrwt beam="1">  1       21 0.31434948E-01 0.29798572E+03</pdfrwt>
<pdfrwt beam="2">  1       21 0.16714425E-01 0.29798572E+03</pdfrwt>
<totfact> 0.30556504E+05</totfact>
</mgrwt>
</event>
<event>
 8    1  0.9175398E-006  0.3833259E+03  0.7546771E-02  0.1049711E+00
         21   -1    0    0  504  503  0.00000000000E+00  0.00000000000E+00  0.13270748967E+04  0.13270748967E+04  0.00000000000E+00 0.  1.
         21   -1    0    0  503  504 -0.00000000000E+00 -0.00000000000E+00 -0.27680946399E+02  0.27680946399E+02  0.00000000000E+00 0.  1.
         25    2    1    2    0    0 -0.65936358490E+02  0.10863321199E+03  0.40079298853E+03  0.43864568230E+03  0.12500494719E+03 0.  0.
         25    2    1    2    0    0  0.65936358490E+02 -0.10863321199E+03  0.89860096174E+03  0.91611016077E+03  0.12500144046E+03 0.  0.
          5    1    3    3  501    0  0.12070700575E+02  0.84335382367E+02  0.12792592692E+03  0.15377025496E+03  0.47000000000E+01 0. -1.
         -5    1    3    3    0  501 -0.78007059065E+02  0.24297829625E+02  0.27286706161E+03  0.28487542734E+03  0.47000000000E+01 0. -1.
          5    1    4    4  502    0 -0.14976607386E+02 -0.47851228781E+02  0.10941491333E+03  0.12044813043E+03  0.47000000000E+01 0.  1.
         -5    1    4    4    0  502  0.80912965876E+02 -0.60781983211E+02  0.78918604841E+03  0.79566203034E+03  0.47000000000E+01 0.  1.
<mgrwt>
<rscale>  0 0.38332591E+03</rscale>
<asrwt>0</asrwt>
<pdfrwt beam="1">  1       21 0.20416532E+00 0.38332591E+03</pdfrwt>
<pdfrwt beam="2">  1       21 0.42586082E-02 0.38332591E+03</pdfrwt>
<totfact> 0.40572918E+04</totfact>
</mgrwt>
</event>
<event>
 8    1  0.9175398E-006  0.2609072E+03  0.7546771E-02  0.1106599E+00
         21   -1    0    0  504  503  0.00000000000E+00  0.00000000000E+00  0.62115362901E+02  0.62115362901E+02  0.00000000000E+00 0.  1.
         21   -1    0    0  503  504 -0.00000000000E+00 -0.00000000000E+00 -0.27397626916E+03  0.27397626916E+03  0.00000000000E+00 0.  1.
         25    2    1    2    0    0 -0.42981570945E+00  0.10121383734E+02 -0.59638460596E+02  0.13886285888E+03  0.12499408163E+03 0.  0.
         25    2    1    2    0    0  0.42981570945E+00 -0.10121383734E+02 -0.15222244567E+03  0.19722877319E+03  0.12499955543E+03 0.  0.
          5    1    3    3  501    0 -0.13761846437E+02  0.63136378467E+02 -0.11357465241E+02  0.65777448415E+02  0.47000000000E+01 0.  1.
         -5    1    3    3    0  501  0.13332030728E+02 -0.53014994733E+02 -0.48280995355E+02  0.73085410461E+02  0.47000000000E+01 0.  1.
          5    1    4    4  502    0 -0.26464169695E+02  0.50611744097E+02 -0.85790669159E+02  0.10316990759E+03  0.47000000000E+01 0. -1.
         -5    1    4    4    0  502  0.26893985405E+02 -0.60733127831E+02 -0.66431776508E+02  0.94058865595E+02  0.47000000000E+01 0. -1.
<mgrwt>
<rscale>  0 0.26090715E+03</rscale>
<asrwt>0</asrwt>
<pdfrwt beam="1">  1       21 0.95562098E-02 0.26090715E+03</pdfrwt>
<pdfrwt beam="2">  1       21 0.42150195E-01 0.26090715E+03</pdfrwt>
<totfact> 0.46961364E+05</totfact>
</mgrwt>
</event>
<event>
 8    1  0.9175398E-006  0.3124392E+03  0.7546771E-02  0.1079183E+00
         21   -1    0    0  504  503  0.00000000000E+00  0.00000000000E+00  0.38372604646E+02  0.38372604646E+02  0.00000000000E+00 0.  1.
         21   -1    0    0  503  504 -0.00000000000E+00 -0.00000000000E+00 -0.63598913303E+03  0.63598913303E+03  0.00000000000E+00 0.  1.
         25    2    1    2    0    0  0.93192691041E+02 -0.83162082126E+01 -0.31057739927E+03  0.34761944959E+03  0.12500769501E+03 0.  0.
         25    2    1    2    0    0 -0.93192691041E+02  0.83162082126E+01 -0.28703912911E+03  0.32674228808E+03  0.12496009043E+03 0.  0.
          5    1    3    3  501    0  0.99361996793E+02 -0.45121676862E+02 -0.16975612973E+03  0.20186135269E+03  0.47000000000E+01 0. -1.
         -5    1    3    3    0  501 -0.61693057524E+01  0.36805468650E+02 -0.14082126954E+03  0.14575809690E+03  0.47000000000E+01 0. -1.
          5    1    4    4  502    0 -0.38452720366E+02  0.42881770471E+02 -0.37477929289E+02  0.68877740425E+02  0.47000000000E+01 0. -1.
         -5    1    4    4    0  502 -0.54739970675E+02 -0.34565562258E+02 -0.24956119982E+03  0.25786454766E+03  0.47000000000E+01 0. -1.
<mgrwt>
<rscale>  0 0.31243918E+03</rscale>
<asrwt>0</asrwt>
<pdfrwt beam="1">  1       21 0.59034773E-02 0.31243918E+03</pdfrwt>
<pdfrwt beam="2">  1       21 0.97844487E-01 0.31243918E+03</pdfrwt>
<totfact> 0.16891394E+05</totfact>
</mgrwt>
</event>
<event>
 8    1  0.9175398E-006  0.3895435E+03  0.7546771E-02  0.1047462E+00
         21   -1    0    0  504  503  0.00000000000E+00  0.00000000000E+00  0.19250687863E+03  0.19250687863E+03  0.00000000000E+00 0.  1.
         21   -1    0    0  503  504 -0.00000000000E+00 -0.00000000000E+00 -0.19706323835E+03  0.19706323835E+03  0.00000000000E+00 0.  1.
         25    2    1    2    0    0  0.18378168249E+02 -0.11752659542E+03  0.88062873072E+02  0.19371200038E+03  0.12497604481E+03 0.  0.
         25    2    1    2    0    0 -0.18378168249E+02  0.11752659542E+03 -0.92619232795E+02  0.19585811661E+03  0.12502728446E+03 0.  0.
          5    1    3    3  501    0  0.41744704436E+02 -0.13579349269E+03  0.77371642121E+02  0.16183619499E+03  0.47000000000E+01 0.  1.
         -5    1    3    3    0  501 -0.23366536188E+02  0.18266897274E+02  0.10691230951E+02  0.31875805381E+02  0.47000000000E+01 0.  1.
          5    1    4    4  502    0 -0.11577555731E+02  0.75557236331E+01 -0.83978995390E+02  0.85239019369E+02  0.47000000000E+01 0. -1.
         -5    1    4    4    0  502 -0.68006125181E+01  0.10997087178E+03 -0.86402374047E+01  0.11061909724E+03  0.47000000000E+01 0. -1.
<mgrwt>
<rscale>  0 0.38954347E+03</rscale>
<asrwt>0</asrwt>
<pdfrwt beam="1">  1       21 0.29616443E-01 0.38954347E+03</pdfrwt>
<pdfrwt beam="2">  1       21 0.30317421E-01 0.38954347E+03</pdfrwt>
<totfact> 0.10786279E+05</totfact>
</mgrwt>
</event>
<event>
 8    1  0.9175398E-006  0.3047527E+03  0.7546771E-02  0.1082889E+00
         21   -1    0    0  504  503  0.00000000000E+00  0.00000000000E+00  0.34405385897E+02  0.34405385897E+02  0.00000000000E+00 0.  1.
         21   -1    0    0  503  504 -0.00000000000E+00 -0.00000000000E+00 -0.67485205140E+03  0.67485205140E+03  0.00000000000E+00 0.  1.
         25    2    1    2    0    0 -0.57152451253E+02 -0.58231245835E+02 -0.39127504503E+03  0.41879510989E+03  0.12504360251E+03 0.  0.
         25    2    1    2    0    0  0.57152451253E+02  0.58231245835E+02 -0.24917162047E+03  0.29046232741E+03  0.12499834606E+03 0.  0.
          5    1    3    3  501    0  0.28254089231E+02 -0.42135306778E+01 -0.20307490414E+03  0.20512814066E+03  0.47000000000E+01 0. -1.
         -5    1    3    3    0  501 -0.85406540484E+02 -0.54017715157E+02 -0.18820014089E+03  0.21366696923E+03  0.47000000000E+01 0. -1.
          5    1    4    4  502    0  0.79003080842E+02 -0.51727685773E+01 -0.16205171075E+03  0.18041920983E+03  0.47000000000E+01 0.  1.
         -5    1    4    4    0  502 -0.21850629589E+02  0.63404014412E+02 -0.87119909725E+02  0.11004311758E+03  0.47000000000E+01 0.  1.
<mgrwt>
<rscale>  0 0.30475266E+03</rscale>
<asrwt>0</asrwt>
<pdfrwt beam="1">  1       21 0.52931361E-02 0.30475266E+03</pdfrwt>
<pdfrwt beam="2">  1       21 0.10382340E+00 0.30475266E+03</pdfrwt>
<totfact> 0.17702362E+05</totfact>
</mgrwt>
</event>
<event>
 8    1  0.9175398E-006  0.2584491E+03  0.7546771E-02  0.1108079E+00
         21   -1    0    0  504  503  0.00000000000E+00  0.00000000000E+00  0.51230597811E+03  0.51230597811E+03  0.00000000000E+00 0.  1.
         21   -1    0    0  503  504 -0.00000000000E+00 -0.00000000000E+00 -0.32595722354E+02  0.32595722354E+02  0.00000000000E+00 0.  1.
         25    2    1    2    0    0 -0.10235931231E+02  0.22972832068E+02  0.19559515639E+03  0.23348706239E+03  0.12500487110E+03 0.  0.
         25    2    1    2    0    0  0.10235931231E+02 -0.22972832068E+02  0.28411509937E+03  0.31141463807E+03  0.12500064727E+03 0.  0.
          5    1    3    3  501    0 -0.15307493032E+02 -0.50765474094E+02  0.88563856182E+02  0.10333005044E+03  0.47000000000E+01 0. -1.
         -5    1    3    3    0  501  0.50715618007E+01  0.73738306162E+02  0.10703130021E+03  0.13015701195E+03  0.47000000000E+01 0. -1.
          5    1    4    4  502    0 -0.39110704060E+02  0.24117858939E+02  0.52535305149E+02  0.69952602375E+02  0.47000000000E+01 0.  1.
         -5    1    4    4    0  502  0.49346635291E+02 -0.47090691006E+02  0.23157979422E+03  0.24146203570E+03  0.47000000000E+01 0.  1.
<mgrwt>
<rscale>  0 0.25844909E+03</rscale>
<asrwt>0</asrwt>
<pdfrwt beam="1">  1       21 0.78816298E-01 0.25844909E+03</pdfrwt>
<pdfrwt beam="2">  1       21 0.50147269E-02 0.25844909E+03</pdfrwt>
<totfact> 0.37460773E+05</totfact>
</mgrwt>
</event>
<event>
 8    1  0.9175398E-006  0.3338262E+03  0.7546771E-02  0.1069456E+00
         21   -1    0    0  504  503  0.00000000000E+00  0.00000000000E+00  0.18056804079E+03  0.18056804079E+03  0.00000000000E+00 0.  1.
         21   -1    0    0  503  504 -0.00000000000E+00 -0.00000000000E+00 -0.15429073020E+03  0.15429073020E+03  0.00000000000E+00 0.  1.
         25    2    1    2    0    0 -0.47526083837E+02 -0.94636510257E+02  0.45160293121E+02  0.16993858540E+03  0.12499949206E+03 0.  0.
         25    2    1    2    0    0  0.47526083837E+02  0.94636510257E+02 -0.18882982531E+02  0.16492018559E+03  0.12500921114E+03 0.  0.
          5    1    3    3  501    0  0.39824628647E+02 -0.48110051635E+02  0.43487043619E+01  0.62781998573E+02  0.47000000000E+01 0. -1.
         -5    1    3    3    0  501 -0.87350712484E+02 -0.46526458622E+02  0.40811588759E+02  0.10715658683E+03  0.47000000000E+01 0. -1.
          5    1    4    4  502    0  0.38946209675E+02 -0.54077775036E+01 -0.46106199894E+02  0.60777651931E+02  0.47000000000E+01 0. -1.
         -5    1    4    4    0  502  0.85798741617E+01  0.10004428776E+03  0.27223217363E+02  0.10414253366E+03  0.47000000000E+01 0. -1.
<mgrwt>
<rscale>  0 0.33382615E+03</rscale>
<asrwt>0</asrwt>
<pdfrwt beam="1">  1       21 0.27779698E-01 0.33382615E+03</pdfrwt>
<pdfrwt beam="2">  1       21 0.23737036E-01 0.33382615E+03</pdfrwt>
<totfact> 0.19953323E+05</totfact>
</mgrwt>
</event>
<event>
 8    1  0.9175398E-006  0.4175956E+03  0.7546771E-02  0.1037852E+00
         21   -1    0    0  504  503  0.00000000000E+00  0.00000000000E+00  0.49920020440E+02  0.49920020440E+02  0.00000000000E+00 0. -1.
         21   -1    0    0  503  504 -0.00000000000E+00 -0.00000000000E+00 -0.87332725477E+03  0.87332725477E+03  0.00000000000E+00 0. -1.
         25    2    1    2    0    0 -0.97279698263E+02 -0.90296710063E+02 -0.63670276977E+03  0.66229295651E+03  0.12499883066E+03 0.  0.
         25    2    1    2    0    0  0.97279698263E+02  0.90296710063E+02 -0.18670446455E+03  0.26095431870E+03  0.12498705461E+03 0.  0.
          5    1    3    3  501    0 -0.34984207148E+02  0.21335935866E+02 -0.69276386645E+02  0.80625211043E+02  0.47000000000E+01 0.  1.
         -5    1    3    3    0  501 -0.62295491115E+02 -0.11163264593E+03 -0.56742638313E+03  0.58166774547E+03  0.47000000000E+01 0.  1.
          5    1    4    4  502    0  0.13758172343E+02  0.84707357526E+02 -0.46826680344E+02  0.97874673524E+02  0.47000000000E+01 0. -1.
         -5    1    4    4    0  502  0.83521525920E+02  0.55893525368E+01 -0.13987778421E+03  0.16307964517E+03  0.47000000000E+01 0. -1.
<mgrwt>
<rscale>  0 0.41759557E+03</rscale>
<asrwt>0</asrwt>
<pdfrwt beam="1">  1       21 0.76800035E-02 0.41759557E+03</pdfrwt>
<pdfrwt beam="2">  1       21 0.13435803E+00 0.41759557E+03</pdfrwt>
<totfact> 0.47027159E+04</totfact>
</mgrwt>
</event>
<event>
 8    1  0.9175398E-006  0.3100287E+03  0.7546771E-02  0.1080332E+00
         21   -1    0    0  504  503  0.00000000000E+00  0.00000000000E+00  0.12133363657E+03  0.12133363657E+03  0.00000000000E+00 0.  1.
         21   -1    0    0  503  504 -0.00000000000E+00 -0.00000000000E+00 -0.19804445340E+03  0.19804445340E+03  0.00000000000E+00 0.  1.
         25    2    1    2    0    0 -0.51325266971E+02 -0.52142324270E+02 -0.95231549069E+02  0.17336237767E+03  0.12502944071E+03 0.  0.
         25    2    1    2    0    0  0.51325266971E+02  0.52142324270E+02  0.18520732231E+02  0.14601571230E+03  0.12499786281E+03 0.  0.
          5    1    3    3  501    0  0.87211593747E+01 -0.78496900610E+02 -0.52204756679E+02  0.94790551460E+02  0.47000000000E+01 0. -1.
         -5    1    3    3    0  501 -0.60046426346E+02  0.26354576340E+02 -0.43026792390E+02  0.78571826212E+02  0.47000000000E+01 0. -1.
          5    1    4    4  502    0 -0.13662928847E+02  0.55662389662E+02  0.47528354823E+02  0.74605708627E+02  0.47000000000E+01 0.  1.
         -5    1    4    4    0  502  0.64988195818E+02 -0.35200653923E+01 -0.29007622592E+02  0.71410003672E+02  0.47000000000E+01 0. -1.
<mgrwt>
<rscale>  0 0.31002873E+03</rscale>
<asrwt>0</asrwt>
<pdfrwt beam="1">  1       21 0.18666713E-01 0.31002873E+03</pdfrwt>
<pdfrwt beam="2">  1       21 0.30468377E-01 0.31002873E+03</pdfrwt>
<totfact> 0.26388571E+05</totfact>
</mgrwt>
</event>
<event>
 8    1  0.9175398E-006  0.4978799E+03  0.7546771E-02  0.1014334E+00
         21   -1    0    0  504  503  0.00000000000E+00  0.00000000000E+00  0.41919506530E+03  0.41919506530E+03  0.00000000000E+00 0.  1.
         21   -1    0    0  503  504 -0.00000000000E+00 -0.00000000000E+00 -0.14783354344E+03  0.14783354344E+03  0.00000000000E+00 0.  1.
         25    2    1    2    0    0  0.67534092252E+02  0.13946309486E+03  0.30588949499E+03  0.36497072235E+03  0.12499774632E+03 0.  0.
         25    2    1    2    0    0 -0.67534092252E+02 -0.13946309486E+03 -0.34527973122E+02  0.20205788639E+03  0.12499760029E+03 0.  0.
          5    1    3    3  501    0  0.87413038893E+02  0.14748269827E+03  0.23613606772E+03  0.29184673741E+03  0.47000000000E+01 0.  1.
         -5    1    3    3    0  501 -0.19878946641E+02 -0.80196034097E+01  0.69753427264E+02  0.73123984940E+02  0.47000000000E+01 0.  1.
          5    1    4    4  502    0 -0.18346480303E+02  0.19905605907E+02 -0.21142839538E+02  0.34668950803E+02  0.47000000000E+01 0. -1.
         -5    1    4    4    0  502 -0.49187611949E+02 -0.15936870077E+03 -0.13385133584E+02  0.16738893558E+03  0.47000000000E+01 0. -1.
<mgrwt>
<rscale>  0 0.49787987E+03</rscale>
<asrwt>0</asrwt>
<pdfrwt beam="1">  1       21 0.64491548E-01 0.49787987E+03</pdfrwt>
<pdfrwt beam="2">  1       21 0.22743622E-01 0.49787987E+03</pdfrwt>
<totfact> 0.36383059E+04</totfact>
</mgrwt>
</event>
<event>
 8    1  0.9175398E-006  0.2960224E+03  0.7546771E-02  0.1087246E+00
         21   -1    0    0  504  503  0.00000000000E+00  0.00000000000E+00  0.21916596949E+02  0.21916596949E+02  0.00000000000E+00 0. -1.
         21   -1    0    0  503  504 -0.00000000000E+00 -0.00000000000E+00 -0.99957659617E+03  0.99957659617E+03  0.00000000000E+00 0. -1.
         25    2    1    2    0    0 -0.41922454146E+02 -0.62070273731E+02 -0.57820561976E+03  0.59628818399E+03  0.12501059395E+03 0.  0.
         25    2    1    2    0    0  0.41922454146E+02  0.62070273731E+02 -0.39945437946E+03  0.42520500913E+03  0.12500114990E+03 0.  0.
          5    1    3    3  501    0 -0.53948283664E+02  0.23601034920E+02 -0.23941897332E+03  0.24659878537E+03  0.47000000000E+01 0. -1.
         -5    1    3    3    0  501  0.12025829518E+02 -0.85671308651E+02 -0.33878664644E+03  0.34968939862E+03  0.47000000000E+01 0. -1.
          5    1    4    4  502    0  0.47301485785E+02  0.63771622070E+02 -0.40698653834E+03  0.41468588441E+03  0.47000000000E+01 0. -1.
         -5    1    4    4    0  502 -0.53790316384E+01 -0.17013483385E+01  0.75321588784E+01  0.10519124721E+02  0.47000000000E+01 0. -1.
<mgrwt>
<rscale>  0 0.29602241E+03</rscale>
<asrwt>0</asrwt>
<pdfrwt beam="1">  1       21 0.33717844E-02 0.29602241E+03</pdfrwt>
<pdfrwt beam="2">  1       21 0.15378100E+00 0.29602241E+03</pdfrwt>
<totfact> 0.14016491E+05</totfact>
</mgrwt>
</event>
<event>
 8    1  0.9175398E-006  0.3230098E+03  0.7546771E-02  0.1074272E+00
         21   -1    0    0  504  503  0.00000000000E+00  0.00000000000E+00  0.71034340627E+02  0.71034340627E+02  0.00000000000E+00 0. -1.
         21   -1    0    0  503  504 -0.00000000000E+00 -0.00000000000E+00 -0.36720041349E+03  0.36720041349E+03  0.00000000000E+00 0. -1.
         25    2    1    2    0    0 -0.45474140138E+02 -0.59010760053E+02 -0.24312860858E+03  0.28336149469E+03  0.12502819338E+03 0.  0.
         25    2    1    2    0    0  0.45474140138E+02  0.59010760053E+02 -0.53037464284E+02  0.15487325943E+03  0.12499034621E+03 0.  0.
          5    1    3    3  501    0 -0.11161410292E+02  0.25499140169E+02 -0.54647921031E+01  0.28753037784E+02  0.47000000000E+01 0.  1.
         -5    1    3    3    0  501 -0.34312729846E+02 -0.84509900222E+02 -0.23766381648E+03  0.25460845690E+03  0.47000000000E+01 0.  1.
          5    1    4    4  502    0 -0.34724900003E+02  0.43143670345E+02  0.29746401875E+01  0.55660879038E+02  0.47000000000E+01 0.  1.
         -5    1    4    4    0  502  0.80199040141E+02  0.15867089708E+02 -0.56012104472E+02  0.99212380390E+02  0.47000000000E+01 0.  1.
<mgrwt>
<rscale>  0 0.32300984E+03</rscale>
<asrwt>0</asrwt>
<pdfrwt beam="1">  1       21 0.10928360E-01 0.32300984E+03</pdfrwt>
<pdfrwt beam="2">  1       21 0.56492373E-01 0.32300984E+03</pdfrwt>
<totfact> 0.19736924E+05</totfact>
</mgrwt>
</event>
<event>
 8    1  0.9175398E-006  0.2561511E+03  0.7546771E-02  0.1109478E+00
         21   -1    0    0  504  503  0.00000000000E+00  0.00000000000E+00  0.58752130123E+03  0.58752130123E+03  0.00000000000E+00 0.  1.
         21   -1    0    0  503  504 -0.00000000000E+00 -0.00000000000E+00 -0.27919578427E+02  0.27919578427E+02  0.00000000000E+00 0.  1.
         25    2    1    2    0    0 -0.83624349947E+01  0.23985907158E+02  0.25247244239E+03  0.28286475532E+03  0.12499952628E+03 0.  0.
         25    2    1    2    0    0  0.83624349947E+01 -0.23985907158E+02  0.30712928041E+03  0.33257612434E+03  0.12503291381E+03 0.  0.
          5    1    3    3  501    0  0.13145714367E+02  0.72038480300E+02  0.16636566061E+03  0.18182952313E+03  0.47000000000E+01 0.  1.
         -5    1    3    3    0  501 -0.21508149362E+02 -0.48052573142E+02  0.86106781780E+02  0.10103523219E+03  0.47000000000E+01 0.  1.
          5    1    4    4  502    0 -0.43361474082E+02 -0.11671735329E+02  0.40488722528E+02  0.60645473797E+02  0.47000000000E+01 0. -1.
         -5    1    4    4    0  502  0.51723909076E+02 -0.12314171830E+02  0.26664055788E+03  0.27193065054E+03  0.47000000000E+01 0. -1.
<mgrwt>
<rscale>  0 0.25615110E+03</rscale>
<asrwt>0</asrwt>
<pdfrwt beam="1">  1       21 0.90387883E-01 0.25615110E+03</pdfrwt>
<pdfrwt beam="2">  1       21 0.42953202E-02 0.25615110E+03</pdfrwt>
<totfact> 0.35571773E+05</totfact>
</mgrwt>
</event>
<event>
 8    1  0.9175398E-006  0.2985018E+03  0.7546771E-02  0.1085992E+00
         21   -1    0    0  504  503  0.00000000000E+00  0.00000000000E+00  0.12738827722E+03  0.12738827722E+03  0.00000000000E+00 0.  1.
         21   -1    0    0  503  504 -0.00000000000E+00 -0.00000000000E+00 -0.17486568672E+03  0.17486568672E+03  0.00000000000E+00 0.  1.
         25    2    1    2    0    0 -0.66760599584E+01 -0.62627534971E+02 -0.76210300526E+02  0.15937722052E+03  0.12500524230E+03 0.  0.
         25    2    1    2    0    0  0.66760599584E+01  0.62627534971E+02  0.28732891029E+02  0.14287674342E+03  0.12498562665E+03 0.  0.
          5    1    3    3  501    0  0.56808341369E+02 -0.42261348537E+02 -0.53209506665E+02  0.88693578284E+02  0.47000000000E+01 0.  1.
         -5    1    3    3    0  501 -0.63484401327E+02 -0.20366186434E+02 -0.23000793861E+02  0.70683642238E+02  0.47000000000E+01 0.  1.
          5    1    4    4  502    0 -0.28251031574E+02 -0.23458533941E+02 -0.15180282248E+02  0.40011930331E+02  0.47000000000E+01 0.  1.
         -5    1    4    4    0  502  0.34927091533E+02  0.86086068913E+02  0.43913173277E+02  0.10286481309E+03  0.47000000000E+01 0.  1.
<mgrwt>
<rscale>  0 0.29850185E+03</rscale>
<asrwt>0</asrwt>
<pdfrwt beam="1">  1       21 0.19598196E-01 0.29850185E+03</pdfrwt>
<pdfrwt beam="2">  1       21 0.26902413E-01 0.29850185E+03</pdfrwt>
<totfact> 0.30800758E+05</totfact>
</mgrwt>
</event>
<event>
 8    1  0.9175398E-006  0.3252180E+03  0.7546771E-02  0.1073273E+00
         21   -1    0    0  504  503  0.00000000000E+00  0.00000000000E+00  0.78473162280E+02  0.78473162280E+02  0.00000000000E+00 0. -1.
         21   -1    0    0  503  504 -0.00000000000E+00 -0.00000000000E+00 -0.33695202808E+03  0.33695202808E+03  0.00000000000E+00 0. -1.
         25    2    1    2    0    0  0.61682147131E+02 -0.49974476332E+02 -0.21507708650E+03  0.26111772823E+03  0.12498871670E+03 0.  0.
         25    2    1    2    0    0 -0.61682147131E+02  0.49974476332E+02 -0.43401779298E+02  0.15430746213E+03  0.12499977145E+03 0.  0.
          5    1    3    3  501    0  0.23151079110E+01 -0.16406236120E+02  0.13913613217E+02  0.22140527117E+02  0.47000000000E+01 0. -1.
         -5    1    3    3    0  501  0.59367039220E+02 -0.33568240212E+02 -0.22899069972E+03  0.23897720112E+03  0.47000000000E+01 0. -1.
          5    1    4    4  502    0 -0.18849694184E+02 -0.36306970083E+02  0.12248203041E+02  0.42960627617E+02  0.47000000000E+01 0.  1.
         -5    1    4    4    0  502 -0.42832452947E+02  0.86281446415E+02 -0.55649982339E+02  0.11134683451E+03  0.47000000000E+01 0.  1.
<mgrwt>
<rscale>  0 0.32521803E+03</rscale>
<asrwt>0</asrwt>
<pdfrwt beam="1">  1       21 0.12072794E-01 0.32521803E+03</pdfrwt>
<pdfrwt beam="2">  1       21 0.51838773E-01 0.32521803E+03</pdfrwt>
<totfact> 0.19807634E+05</totfact>
</mgrwt>
</event>
<event>
 8    1  0.9175398E-006  0.3057683E+03  0.7546771E-02  0.1082392E+00
         21   -1    0    0  504  503  0.00000000000E+00  0.00000000000E+00  0.42222725402E+03  0.42222725402E+03  0.00000000000E+00 0.  1.
         21   -1    0    0  503  504 -0.00000000000E+00 -0.00000000000E+00 -0.55357783816E+02  0.55357783816E+02  0.00000000000E+00 0.  1.
         25    2    1    2    0    0 -0.87837737516E+02 -0.38388308695E+01  0.17675496583E+03  0.23366050179E+03  0.12499882959E+03 0.  0.
         25    2    1    2    0    0  0.87837737516E+02  0.38388308695E+01  0.19011450437E+03  0.24392453604E+03  0.12500179901E+03 0.  0.
          5    1    3    3  501    0 -0.69304881904E+02 -0.49728066820E+02  0.15968121102E+03  0.18109728446E+03  0.47000000000E+01 0.  1.
         -5    1    3    3    0  501 -0.18532855612E+02  0.45889235950E+02  0.17073754812E+02  0.52563217335E+02  0.47000000000E+01 0.  1.
          5    1    4    4  502    0  0.34189959787E+02 -0.44310339997E+02  0.20885798396E+02  0.59922167480E+02  0.47000000000E+01 0. -1.
         -5    1    4    4    0  502  0.53647777729E+02  0.48149170866E+02  0.16922870598E+03  0.18400236856E+03  0.47000000000E+01 0. -1.
<mgrwt>
<rscale>  0 0.30576831E+03</rscale>
<asrwt>0</asrwt>
<pdfrwt beam="1">  1       21 0.64958037E-01 0.30576831E+03</pdfrwt>
<pdfrwt beam="2">  1       21 0.85165824E-02 0.30576831E+03</pdfrwt>
<totfact> 0.22792449E+05</totfact>
</mgrwt>
</event>
<event>
 8    1  0.9175398E-006  0.3497000E+03  0.7546771E-02  0.1062738E+00
         21   -1    0    0  504  503  0.00000000000E+00  0.00000000000E+00  0.18585666465E+03  0.18585666465E+03  0.00000000000E+00 0.  1.
         21   -1    0    0  503  504 -0.00000000000E+00 -0.00000000000E+00 -0.16449520830E+03  0.16449520830E+03  0.00000000000E+00 0.  1.
         25    2    1    2    0    0  0.20520078541E+01 -0.61717333918E+02  0.11640027795E+03  0.18161966187E+03  0.12499374716E+03 0.  0.
         25    2    1    2    0    0 -0.20520078541E+01  0.61717333918E+02 -0.95038821595E+02  0.16873221107E+03  0.12499976561E+03 0.  0.
          5    1    3    3  501    0  0.17466689398E+02 -0.94834198871E+02  0.58152503887E+02  0.11270498757E+03  0.47000000000E+01 0. -1.
         -5    1    3    3    0  501 -0.15414681544E+02  0.33116864953E+02  0.58247774060E+02  0.68914674304E+02  0.47000000000E+01 0. -1.
          5    1    4    4  502    0 -0.34832703283E+02  0.61306706740E+02 -0.27946280485E+01  0.70722906156E+02  0.47000000000E+01 0.  1.
         -5    1    4    4    0  502  0.32780695429E+02  0.41062717828E+00 -0.92244193547E+02  0.98009304918E+02  0.47000000000E+01 0.  1.
<mgrwt>
<rscale>  0 0.34970005E+03</rscale>
<asrwt>0</asrwt>
<pdfrwt beam="1">  1       21 0.28593333E-01 0.34970005E+03</pdfrwt>
<pdfrwt beam="2">  1       21 0.25306955E-01 0.34970005E+03</pdfrwt>
<totfact> 0.16608640E+05</totfact>
</mgrwt>
</event>
<event>
 8    1  0.9175398E-006  0.3422400E+03  0.7546771E-02  0.1065846E+00
         21   -1    0    0  504  503  0.00000000000E+00  0.00000000000E+00  0.57908280127E+03  0.57908280127E+03  0.00000000000E+00 0. -1.
         21   -1    0    0  503  504 -0.00000000000E+00 -0.00000000000E+00 -0.50566253923E+02  0.50566253923E+02  0.00000000000E+00 0. -1.
         25    2    1    2    0    0 -0.12399711767E+02  0.54017106100E+02  0.45353371392E+03  0.47370248094E+03  0.12501843938E+03 0.  0.
         25    2    1    2    0    0  0.12399711767E+02 -0.54017106100E+02  0.74982833427E+02  0.15594657425E+03  0.12500123243E+03 0.  0.
          5    1    3    3  501    0  0.25501201348E+02 -0.14156300146E+02  0.26847102155E+02  0.39919531537E+02  0.47000000000E+01 0.  1.
         -5    1    3    3    0  501 -0.37900913115E+02  0.68173406246E+02  0.42668661177E+03  0.43378294941E+03  0.47000000000E+01 0.  1.
          5    1    4    4  502    0 -0.33770148589E+02 -0.58958509130E+02  0.84279441042E+02  0.10835886174E+03  0.47000000000E+01 0.  1.
         -5    1    4    4    0  502  0.46169860356E+02  0.49414030299E+01 -0.92966076148E+01  0.47587712514E+02  0.47000000000E+01 0.  1.
<mgrwt>
<rscale>  0 0.34223996E+03</rscale>
<asrwt>0</asrwt>
<pdfrwt beam="1">  1       21 0.89089657E-01 0.34223996E+03</pdfrwt>
<pdfrwt beam="2">  1       21 0.77794241E-02 0.34223996E+03</pdfrwt>
<totfact> 0.12939366E+05</totfact>
</mgrwt>
</event>
<event>
 8    1  0.9175398E-006  0.2921086E+03  0.7546771E-02  0.1089253E+00
         21   -1    0    0  504  503  0.00000000000E+00  0.00000000000E+00  0.21067980491E+03  0.21067980491E+03  0.00000000000E+00 0. -1.
         21   -1    0    0  503  504 -0.00000000000E+00 -0.00000000000E+00 -0.10125249574E+03  0.10125249574E+03  0.00000000000E+00 0. -1.
         25    2    1    2    0    0 -0.55355088328E+02 -0.38896125219E+02  0.18840990492E+02  0.14337929383E+03  0.12500217844E+03 0.  0.
         25    2    1    2    0    0  0.55355088328E+02  0.38896125219E+02  0.90586318677E+02  0.16855300682E+03  0.12500856217E+03 0.  0.
          5    1    3    3  501    0 -0.27746649422E+01  0.43400809463E+02 -0.33277015419E+00  0.43743911160E+02  0.47000000000E+01 0.  1.
         -5    1    3    3    0  501 -0.52580423385E+02 -0.82296934682E+02  0.19173760646E+02  0.99635382665E+02  0.47000000000E+01 0.  1.
          5    1    4    4  502    0  0.80021365315E+02  0.23207941481E+02  0.11667528705E+02  0.84262973367E+02  0.47000000000E+01 0. -1.
         -5    1    4    4    0  502 -0.24666276987E+02  0.15688183738E+02  0.78918789972E+02  0.84290033456E+02  0.47000000000E+01 0. -1.
<mgrwt>
<rscale>  0 0.29210858E+03</rscale>
<asrwt>0</asrwt>
<pdfrwt beam="1">  1       21 0.32412278E-01 0.29210858E+03</pdfrwt>
<pdfrwt beam="2">  1       21 0.15577307E-01 0.29210858E+03</pdfrwt>
<totfact> 0.32796468E+05</totfact>
</mgrwt>
</event>
<event>
 8    1  0.9175398E-006  0.3870436E+03  0.7546771E-02  0.1048361E+00
         21   -1    0    0  504  503  0.00000000000E+00  0.00000000000E+00  0.30798333814E+03  0.30798333814E+03  0.00000000000E+00 0.  1.
         21   -1    0    0  503  504 -0.00000000000E+00 -0.00000000000E+00 -0.12159970171E+03  0.12159970171E+03  0.00000000000E+00 0.  1.
         25    2    1    2    0    0 -0.30141224690E+02 -0.75994193229E+01 -0.67118074753E+02  0.14523400150E+03  0.12498733789E+03 0.  0.
         25    2    1    2    0    0  0.30141224690E+02  0.75994193229E+01  0.25350171118E+03  0.28434903834E+03  0.12500005374E+03 0.  0.
          5    1    3    3  501    0  0.49089723460E+01 -0.58919126887E+02 -0.89479889486E+01  0.59980980559E+02  0.47000000000E+01 0. -1.
         -5    1    3    3    0  501 -0.35050197035E+02  0.51319707564E+02 -0.58170085805E+02  0.85253020939E+02  0.47000000000E+01 0. -1.
          5    1    4    4  502    0  0.12921796755E+02 -0.26957418598E+02  0.24186555271E+03  0.24375132992E+03  0.47000000000E+01 0. -1.
         -5    1    4    4    0  502  0.17219427934E+02  0.34556837921E+02  0.11636158474E+02  0.40597708427E+02  0.47000000000E+01 0. -1.
<mgrwt>
<rscale>  0 0.38704357E+03</rscale>
<asrwt>0</asrwt>
<pdfrwt beam="1">  1       21 0.47382052E-01 0.38704357E+03</pdfrwt>
<pdfrwt beam="2">  1       21 0.18707647E-01 0.38704357E+03</pdfrwt>
<totfact> 0.10528944E+05</totfact>
</mgrwt>
</event>
<event>
 8    1  0.9175398E-006  0.3319616E+03  0.7546771E-02  0.1070272E+00
         21   -1    0    0  504  503  0.00000000000E+00  0.00000000000E+00  0.96748183506E+02  0.96748183506E+02  0.00000000000E+00 0. -1.
         21   -1    0    0  503  504 -0.00000000000E+00 -0.00000000000E+00 -0.28475594022E+03  0.28475594022E+03  0.00000000000E+00 0. -1.
         25    2    1    2    0    0  0.50875198320E+02 -0.93300649146E+02 -0.65115912256E+02  0.17651420888E+03  0.12499554781E+03 0.  0.
         25    2    1    2    0    0 -0.50875198320E+02  0.93300649146E+02 -0.12289184446E+03  0.20498991485E+03  0.12500065127E+03 0.  0.
          5    1    3    3  501    0 -0.35715519673E+02 -0.62025456236E+02 -0.24740539721E+02  0.75874500806E+02  0.47000000000E+01 0. -1.
         -5    1    3    3    0  501  0.86590717993E+02 -0.31275192910E+02 -0.40375372535E+02  0.10063970807E+03  0.47000000000E+01 0. -1.
          5    1    4    4  502    0 -0.61003938910E+02  0.36491308105E+02 -0.23660800452E+01  0.71279621663E+02  0.47000000000E+01 0. -1.
         -5    1    4    4    0  502  0.10128740590E+02  0.56809341042E+02 -0.12052576441E+03  0.13371029318E+03  0.47000000000E+01 0. -1.
<mgrwt>
<rscale>  0 0.33196156E+03</rscale>
<asrwt>0</asrwt>
<pdfrwt beam="1">  1       21 0.14884336E-01 0.33196156E+03</pdfrwt>
<pdfrwt beam="2">  1       21 0.43808606E-01 0.33196156E+03</pdfrwt>
<totfact> 0.19207946E+05</totfact>
</mgrwt>
</event>
<event>
 8    1  0.9175398E-006  0.3363398E+03  0.7546771E-02  0.1068366E+00
         21   -1    0    0  504  503  0.00000000000E+00  0.00000000000E+00  0.56964650278E+02  0.56964650278E+02  0.00000000000E+00 0. -1.
         21   -1    0    0  503  504 -0.00000000000E+00 -0.00000000000E+00 -0.49646784686E+03  0.49646784686E+03  0.00000000000E+00 0. -1.
         25    2    1    2    0    0  0.46112822815E+02  0.91166245825E+02 -0.14224700633E+03  0.21516646041E+03  0.12499887227E+03 0.  0.
         25    2    1    2    0    0 -0.46112822815E+02 -0.91166245825E+02 -0.29725619025E+03  0.33826603673E+03  0.12499996862E+03 0.  0.
          5    1    3    3  501    0  0.36154725345E+02  0.86811182632E+02 -0.16473876060E+03  0.18974797716E+03  0.47000000000E+01 0. -1.
         -5    1    3    3    0  501  0.99580974705E+01  0.43550631931E+01  0.22491754265E+02  0.25418483247E+02  0.47000000000E+01 0. -1.
          5    1    4    4  502    0  0.78710634985E+00 -0.15698446315E+02 -0.21946519822E+03  0.22007754084E+03  0.47000000000E+01 0.  1.
         -5    1    4    4    0  502 -0.46899929165E+02 -0.75467799510E+02 -0.77790992029E+02  0.11818849588E+03  0.47000000000E+01 0.  1.
<mgrwt>
<rscale>  0 0.33633981E+03</rscale>
<asrwt>0</asrwt>
<pdfrwt beam="1">  1       21 0.87637923E-02 0.33633981E+03</pdfrwt>
<pdfrwt beam="2">  1       21 0.76379669E-01 0.33633981E+03</pdfrwt>
<totfact> 0.14979671E+05</totfact>
</mgrwt>
</event>
<event>
 8    1  0.9175398E-006  0.2766490E+03  0.7546771E-02  0.1097533E+00
         21   -1    0    0  504  503  0.00000000000E+00  0.00000000000E+00  0.47622234037E+03  0.47622234037E+03  0.00000000000E+00 0.  1.
         21   -1    0    0  503  504 -0.00000000000E+00 -0.00000000000E+00 -0.40178007009E+02  0.40178007009E+02  0.00000000000E+00 0.  1.
         25    2    1    2    0    0 -0.23211560426E+02  0.54439907817E+02  0.21307710091E+03  0.25402256163E+03  0.12499252291E+03 0.  0.
         25    2    1    2    0    0  0.23211560426E+02 -0.54439907817E+02  0.22296723245E+03  0.26237778575E+03  0.12500094243E+03 0.  0.
          5    1    3    3  501    0 -0.12247547620E+02  0.80987570957E+01  0.20489743172E+03  0.20547661622E+03  0.47000000000E+01 0. -1.
         -5    1    3    3    0  501 -0.10964012806E+02  0.46341150722E+02  0.81796691905E+01  0.48545945403E+02  0.47000000000E+01 0. -1.
          5    1    4    4  502    0  0.48837902785E+02  0.94722123505E+01  0.32041366266E+02  0.59359941943E+02  0.47000000000E+01 0. -1.
         -5    1    4    4    0  502 -0.25626342359E+02 -0.63912120168E+02  0.19092586618E+03  0.20301784381E+03  0.47000000000E+01 0. -1.
<mgrwt>
<rscale>  0 0.27664898E+03</rscale>
<asrwt>0</asrwt>
<pdfrwt beam="1">  1       21 0.73264971E-01 0.27664898E+03</pdfrwt>
<pdfrwt beam="2">  1       21 0.61812322E-02 0.27664898E+03</pdfrwt>
<totfact> 0.30725583E+05</totfact>
</mgrwt>
</event>
<event>
 8    1  0.9175398E-006  0.2652318E+03  0.7546771E-02  0.1104040E+00
         21   -1    0    0  504  503  0.00000000000E+00  0.00000000000E+00  0.39488939399E+02  0.39488939399E+02  0.00000000000E+00 0. -1.
         21   -1    0    0  503  504 -0.00000000000E+00 -0.00000000000E+00 -0.44536449494E+03  0.44536449494E+03  0.00000000000E+00 0. -1.
         25    2    1    2    0    0 -0.39918003622E+02  0.96279454749E+01 -0.17256531678E+03  0.21700159548E+03  0.12499903815E+03 0.  0.
         25    2    1    2    0    0  0.39918003622E+02 -0.96279454749E+01 -0.23331023876E+03  0.26785183886E+03  0.12499918288E+03 0.  0.
          5    1    3    3  501    0 -0.28775978538E+02 -0.56427729945E+02 -0.96590340755E+02  0.11560246353E+03  0.47000000000E+01 0. -1.
         -5    1    3    3    0  501 -0.11142025084E+02  0.66055675420E+02 -0.75974976023E+02  0.10139913195E+03  0.47000000000E+01 0. -1.
          5    1    4    4  502    0 -0.14942295471E+02  0.16288611680E+02 -0.19420398461E+03  0.19551436955E+03  0.47000000000E+01 0.  1.
         -5    1    4    4    0  502  0.54860299093E+02 -0.25916557155E+02 -0.39106254153E+02  0.72337469304E+02  0.47000000000E+01 0.  1.
<mgrwt>
<rscale>  0 0.26523176E+03</rscale>
<asrwt>0</asrwt>
<pdfrwt beam="1">  1       21 0.60752214E-02 0.26523176E+03</pdfrwt>
<pdfrwt beam="2">  1       21 0.68517615E-01 0.26523176E+03</pdfrwt>
<totfact> 0.36846731E+05</totfact>
</mgrwt>
</event>
<event>
 8    1  0.9175398E-006  0.3487667E+03  0.7546771E-02  0.1063122E+00
         21   -1    0    0  504  503  0.00000000000E+00  0.00000000000E+00  0.53979102542E+03  0.53979102542E+03  0.00000000000E+00 0.  1.
         21   -1    0    0  503  504 -0.00000000000E+00 -0.00000000000E+00 -0.56335795228E+02  0.56335795228E+02  0.00000000000E+00 0.  1.
         25    2    1    2    0    0  0.35269307569E+02 -0.10692892723E+03  0.32017969592E+03  0.36168819308E+03  0.12500236716E+03 0.  0.
         25    2    1    2    0    0 -0.35269307569E+02  0.10692892723E+03  0.16327553427E+03  0.23443862757E+03  0.12499940188E+03 0.  0.
          5    1    3    3  501    0  0.77475533801E+02 -0.47754222150E+02  0.13682228962E+03  0.16439389589E+03  0.47000000000E+01 0. -1.
         -5    1    3    3    0  501 -0.42206226232E+02 -0.59174705083E+02  0.18335740631E+03  0.19729429719E+03  0.47000000000E+01 0. -1.
          5    1    4    4  502    0 -0.79970103928E+02  0.55492719188E+02  0.11530108468E+03  0.15096718032E+03  0.47000000000E+01 0. -1.
         -5    1    4    4    0  502  0.44700796359E+02  0.51436208045E+02  0.47974449594E+02  0.83471447256E+02  0.47000000000E+01 0. -1.
<mgrwt>
<rscale>  0 0.34876672E+03</rscale>
<asrwt>0</asrwt>
<pdfrwt beam="1">  1       21 0.83044770E-01 0.34876672E+03</pdfrwt>
<pdfrwt beam="2">  1       21 0.86670458E-02 0.34876672E+03</pdfrwt>
<totfact> 0.12574509E+05</totfact>
</mgrwt>
</event>
<event>
 8    1  0.9175398E-006  0.2621865E+03  0.7546771E-02  0.1105837E+00
         21   -1    0    0  504  503  0.00000000000E+00  0.00000000000E+00  0.20634287774E+02  0.20634287774E+02  0.00000000000E+00 0. -1.
         21   -1    0    0  503  504 -0.00000000000E+00 -0.00000000000E+00 -0.83285814066E+03  0.83285814066E+03  0.00000000000E+00 0. -1.
         25    2    1    2    0    0  0.28562058210E+02  0.12830258934E+00 -0.31728914864E+03  0.34221817094E+03  0.12500026018E+03 0.  0.
         25    2    1    2    0    0 -0.28562058210E+02 -0.12830258934E+00 -0.49493470424E+03  0.51127425749E+03  0.12500078912E+03 0.  0.
          5    1    3    3  501    0 -0.42082144493E+02  0.16709058315E+02 -0.62924874131E+02  0.77664208612E+02  0.47000000000E+01 0. -1.
         -5    1    3    3    0  501  0.70644202703E+02 -0.16580755726E+02 -0.25436427451E+03  0.26455396233E+03  0.47000000000E+01 0. -1.
          5    1    4    4  502    0 -0.30584749000E+02 -0.16702847627E+02 -0.49250478884E+03  0.49375851286E+03  0.47000000000E+01 0. -1.
         -5    1    4    4    0  502  0.20226907901E+01  0.16574545038E+02 -0.24299154039E+01  0.17515744635E+02  0.47000000000E+01 0. -1.
<mgrwt>
<rscale>  0 0.26218646E+03</rscale>
<asrwt>0</asrwt>
<pdfrwt beam="1">  1       21 0.31745056E-02 0.26218646E+03</pdfrwt>
<pdfrwt beam="2">  1       21 0.12813203E+00 0.26218646E+03</pdfrwt>
<totfact> 0.25252177E+05</totfact>
</mgrwt>
</event>
<event>
 8    1  0.9175398E-006  0.3543401E+03  0.7546771E-02  0.1060848E+00
         21   -1    0    0  504  503  0.00000000000E+00  0.00000000000E+00  0.53845255911E+02  0.53845255911E+02  0.00000000000E+00 0. -1.
         21   -1    0    0  503  504 -0.00000000000E+00 -0.00000000000E+00 -0.58295238841E+03  0.58295238841E+03  0.00000000000E+00 0. -1.
         25    2    1    2    0    0 -0.21201126262E+02 -0.12200293101E+03 -0.30157262982E+03  0.34916555243E+03  0.12504530787E+03 0.  0.
         25    2    1    2    0    0  0.21201126262E+02  0.12200293101E+03 -0.22753450269E+03  0.28763209189E+03  0.12500426970E+03 0.  0.
          5    1    3    3  501    0  0.36058807588E+02  0.48640763362E+01 -0.60414354094E+02  0.70681546558E+02  0.47000000000E+01 0.  1.
         -5    1    3    3    0  501 -0.57259933850E+02 -0.12686700735E+03 -0.24115827572E+03  0.27848400587E+03  0.47000000000E+01 0.  1.
          5    1    4    4  502    0  0.27437499111E+02  0.34084820598E+01  0.30592319815E+01  0.28211398543E+02  0.47000000000E+01 0. -1.
         -5    1    4    4    0  502 -0.62363728490E+01  0.11859444895E+03 -0.23059373467E+03  0.25942069335E+03  0.47000000000E+01 0. -1.
<mgrwt>
<rscale>  0 0.35434007E+03</rscale>
<asrwt>0</asrwt>
<pdfrwt beam="1">  1       21 0.82838847E-02 0.35434007E+03</pdfrwt>
<pdfrwt beam="2">  1       21 0.89684991E-01 0.35434007E+03</pdfrwt>
<totfact> 0.11369576E+05</totfact>
</mgrwt>
</event>
<event>
 8    1  0.9175398E-006  0.3397515E+03  0.7546771E-02  0.1066902E+00
         21   -1    0    0  504  503  0.00000000000E+00  0.00000000000E+00  0.21345784047E+03  0.21345784047E+03  0.00000000000E+00 0.  1.
         21   -1    0    0  503  504 -0.00000000000E+00 -0.00000000000E+00 -0.13519188807E+03  0.13519188807E+03  0.00000000000E+00 0.  1.
         25    2    1    2    0    0 -0.60527671488E+02  0.66461774921E+02  0.11278575209E+03  0.19086010145E+03  0.12500474355E+03 0.  0.
         25    2    1    2    0    0  0.60527671488E+02 -0.66461774921E+02 -0.34519799687E+02  0.15778962709E+03  0.12500073322E+03 0.  0.
          5    1    3    3  501    0  0.38705096173E+02  0.16644874568E+02  0.37754265657E+02  0.56768044659E+02  0.47000000000E+01 0.  1.
         -5    1    3    3    0  501 -0.99232767660E+02  0.49816900352E+02  0.75031486430E+02  0.13409205679E+03  0.47000000000E+01 0.  1.
          5    1    4    4  502    0 -0.13847825428E+02  0.29194885951E+02 -0.56109106387E+01  0.33131193051E+02  0.47000000000E+01 0. -1.
         -5    1    4    4    0  502  0.74375496915E+02 -0.95656660872E+02 -0.28908889048E+02  0.12465843404E+03  0.47000000000E+01 0. -1.
<mgrwt>
<rscale>  0 0.33975149E+03</rscale>
<asrwt>0</asrwt>
<pdfrwt beam="1">  1       21 0.32839668E-01 0.33975149E+03</pdfrwt>
<pdfrwt beam="2">  1       21 0.20798752E-01 0.33975149E+03</pdfrwt>
<totfact> 0.18431424E+05</totfact>
</mgrwt>
</event>
<event>
 8    1  0.9175398E-006  0.2972202E+03  0.7546771E-02  0.1086639E+00
         21   -1    0    0  504  503  0.00000000000E+00  0.00000000000E+00  0.66951087419E+02  0.66951087419E+02  0.00000000000E+00 0. -1.
         21   -1    0    0  503  504 -0.00000000000E+00 -0.00000000000E+00 -0.32986713972E+03  0.32986713972E+03  0.00000000000E+00 0. -1.
         25    2    1    2    0    0 -0.21467874800E+01  0.79163821245E+02 -0.11314478670E+03  0.18627516242E+03  0.12500069635E+03 0.  0.
         25    2    1    2    0    0  0.21467874800E+01 -0.79163821245E+02 -0.14977126560E+03  0.21054306472E+03  0.12500172322E+03 0.  0.
          5    1    3    3  501    0 -0.77508408256E+00  0.29151128575E+01 -0.10964728411E+03  0.10978941456E+03  0.47000000000E+01 0. -1.
         -5    1    3    3    0  501 -0.13717033974E+01  0.76248708388E+02 -0.34975025893E+01  0.76485747858E+02  0.47000000000E+01 0. -1.
          5    1    4    4  502    0  0.23972776010E+02 -0.62890910409E+02 -0.16551972140E+03  0.17874235305E+03  0.47000000000E+01 0.  1.
         -5    1    4    4    0  502 -0.21825988530E+02 -0.16272910836E+02  0.15748455797E+02  0.31800711665E+02  0.47000000000E+01 0.  1.
<mgrwt>
<rscale>  0 0.29722021E+03</rscale>
<asrwt>0</asrwt>
<pdfrwt beam="1">  1       21 0.10300167E-01 0.29722021E+03</pdfrwt>
<pdfrwt beam="2">  1       21 0.50748791E-01 0.29722021E+03</pdfrwt>
<totfact> 0.27730981E+05</totfact>
</mgrwt>
</event>
<event>
 8    1  0.9175398E-006  0.3285285E+03  0.7546771E-02  0.1071790E+00
         21   -1    0    0  504  503  0.00000000000E+00  0.00000000000E+00  0.19192481399E+03  0.19192481399E+03  0.00000000000E+00 0.  1.
         21   -1    0    0  503  504 -0.00000000000E+00 -0.00000000000E+00 -0.14059016554E+03  0.14059016554E+03  0.00000000000E+00 0.  1.
         25    2    1    2    0    0 -0.59267791917E+02 -0.62345242573E+02 -0.38009062721E+02  0.15642706650E+03  0.12500055142E+03 0.  0.
         25    2    1    2    0    0  0.59267791917E+02  0.62345242573E+02  0.89343711174E+02  0.17608791302E+03  0.12500021583E+03 0.  0.
          5    1    3    3  501    0 -0.88240865790E+02 -0.22644748903E+02 -0.52141376325E+02  0.10507163353E+03  0.47000000000E+01 0. -1.
         -5    1    3    3    0  501  0.28973073874E+02 -0.39700493670E+02  0.14132313604E+02  0.51355432966E+02  0.47000000000E+01 0. -1.
          5    1    4    4  502    0  0.70723037547E+02 -0.15536128163E+02  0.48509463034E+02  0.87283316401E+02  0.47000000000E+01 0.  1.
         -5    1    4    4    0  502 -0.11455245631E+02  0.77881370736E+02  0.40834248140E+02  0.88804596623E+02  0.47000000000E+01 0.  1.
<mgrwt>
<rscale>  0 0.32852849E+03</rscale>
<asrwt>0</asrwt>
<pdfrwt beam="1">  1       21 0.29526894E-01 0.32852849E+03</pdfrwt>
<pdfrwt beam="2">  1       21 0.21629256E-01 0.32852849E+03</pdfrwt>
<totfact> 0.21172034E+05</totfact>
</mgrwt>
</event>
<event>
 8    1  0.9175398E-006  0.2840081E+03  0.7546771E-02  0.1093520E+00
         21   -1    0    0  504  503  0.00000000000E+00  0.00000000000E+00  0.51992028277E+02  0.51992028277E+02  0.00000000000E+00 0. -1.
         21   -1    0    0  503  504 -0.00000000000E+00 -0.00000000000E+00 -0.38785073114E+03  0.38785073114E+03  0.00000000000E+00 0. -1.
         25    2    1    2    0    0  0.56549440997E+02 -0.52383830431E+01 -0.11179838337E+03  0.17705606381E+03  0.12499876509E+03 0.  0.
         25    2    1    2    0    0 -0.56549440997E+02  0.52383830431E+01 -0.22406031950E+03  0.26278669561E+03  0.12501416192E+03 0.  0.
          5    1    3    3  501    0  0.47583862225E+02 -0.33410856809E+02  0.30095999108E+01  0.58409391270E+02  0.47000000000E+01 0.  1.
         -5    1    3    3    0  501  0.89655787728E+01  0.28172473766E+02 -0.11480798328E+03  0.11864667254E+03  0.47000000000E+01 0.  1.
          5    1    4    4  502    0 -0.77034601110E+02  0.44717245575E+02 -0.17486224914E+03  0.19629788077E+03  0.47000000000E+01 0. -1.
         -5    1    4    4    0  502  0.20485160113E+02 -0.39478862532E+02 -0.49198070360E+02  0.66488814840E+02  0.47000000000E+01 0. -1.
<mgrwt>
<rscale>  0 0.28400807E+03</rscale>
<asrwt>0</asrwt>
<pdfrwt beam="1">  1       21 0.79987732E-02 0.28400807E+03</pdfrwt>
<pdfrwt beam="2">  1       21 0.59669346E-01 0.28400807E+03</pdfrwt>
<totfact> 0.30783054E+05</totfact>
</mgrwt>
</event>
<event>
 8    1  0.9175398E-006  0.3842866E+03  0.7546771E-02  0.1049361E+00
         21   -1    0    0  504  503  0.00000000000E+00  0.00000000000E+00  0.60571579726E+03  0.60571579726E+03  0.00000000000E+00 0. -1.
         21   -1    0    0  503  504 -0.00000000000E+00 -0.00000000000E+00 -0.60951105233E+02  0.60951105233E+02  0.00000000000E+00 0. -1.
         25    2    1    2    0    0 -0.76111407412E+02  0.94575506756E+02  0.41286183934E+03  0.44812639401E+03  0.12499957522E+03 0.  0.
         25    2    1    2    0    0  0.76111407412E+02 -0.94575506756E+02  0.13190285268E+03  0.21854050848E+03  0.12499647389E+03 0.  0.
          5    1    3    3  501    0 -0.25262438692E+02  0.11600293740E+03  0.27635976698E+03  0.30081835565E+03  0.47000000000E+01 0. -1.
         -5    1    3    3    0  501 -0.50848968719E+02 -0.21427430648E+02  0.13650207236E+03  0.14730803835E+03  0.47000000000E+01 0. -1.
          5    1    4    4  502    0  0.13389943756E+02 -0.46504042988E+02 -0.15662614922E+02  0.51081543773E+02  0.47000000000E+01 0. -1.
         -5    1    4    4    0  502  0.62721463656E+02 -0.48071463768E+02  0.14756546760E+03  0.16745896471E+03  0.47000000000E+01 0. -1.
<mgrwt>
<rscale>  0 0.38428660E+03</rscale>
<asrwt>0</asrwt>
<pdfrwt beam="1">  1       21 0.93187042E-01 0.38428660E+03</pdfrwt>
<pdfrwt beam="2">  1       21 0.93770935E-02 0.38428660E+03</pdfrwt>
<totfact> 0.82731498E+04</totfact>
</mgrwt>
</event>
<event>
 8    1  0.9175398E-006  0.3002391E+03  0.7546771E-02  0.1085121E+00
         21   -1    0    0  504  503  0.00000000000E+00  0.00000000000E+00  0.11312205323E+04  0.11312205323E+04  0.00000000000E+00 0.  1.
         21   -1    0    0  503  504 -0.00000000000E+00 -0.00000000000E+00 -0.19921743107E+02  0.19921743107E+02  0.00000000000E+00 0.  1.
         25    2    1    2    0    0  0.72603562221E+02 -0.29117130851E+02  0.44775950868E+03  0.47141548335E+03  0.12499958307E+03 0.  0.
         25    2    1    2    0    0 -0.72603562221E+02  0.29117130851E+02  0.66353928052E+03  0.67972679207E+03  0.12500020203E+03 0.  0.
          5    1    3    3  501    0  0.17990272359E+02  0.16096895920E+02  0.34837642795E+03  0.34924344734E+03  0.47000000000E+01 0. -1.
         -5    1    3    3    0  501  0.54613289862E+02 -0.45214026771E+02  0.99383080729E+02  0.12217203600E+03  0.47000000000E+01 0. -1.
          5    1    4    4  502    0 -0.97977049987E+02 -0.41971844827E+01  0.54838448250E+03  0.55710389456E+03  0.47000000000E+01 0. -1.
         -5    1    4    4    0  502  0.25373487767E+02  0.33314315334E+02  0.11515479802E+03  0.12262289751E+03  0.47000000000E+01 0. -1.
<mgrwt>
<rscale>  0 0.30023914E+03</rscale>
<asrwt>0</asrwt>
<pdfrwt beam="1">  1       21 0.17403388E+00 0.30023914E+03</pdfrwt>
<pdfrwt beam="2">  1       21 0.30648844E-02 0.30023914E+03</pdfrwt>
<totfact> 0.11665332E+05</totfact>
</mgrwt>
</event>
<event>
 8    1  0.9175398E-006  0.4276722E+03  0.7546771E-02  0.1034598E+00
         21   -1    0    0  504  503  0.00000000000E+00  0.00000000000E+00  0.16537415330E+03  0.16537415330E+03  0.00000000000E+00 0.  1.
         21   -1    0    0  503  504 -0.00000000000E+00 -0.00000000000E+00 -0.27649951090E+03  0.27649951090E+03  0.00000000000E+00 0.  1.
         25    2    1    2    0    0 -0.69174668700E+01 -0.50385857091E+02  0.11581276194E+03  0.17783979084E+03  0.12501123723E+03 0.  0.
         25    2    1    2    0    0  0.69174668700E+01  0.50385857091E+02 -0.22693811954E+03  0.26403387336E+03  0.12500556082E+03 0.  0.
          5    1    3    3  501    0  0.37620633802E+01 -0.81544182862E+02  0.11903506353E+03  0.14441275300E+03  0.47000000000E+01 0.  1.
         -5    1    3    3    0  501 -0.10679530250E+02  0.31158325771E+02 -0.32223015886E+01  0.33427037840E+02  0.47000000000E+01 0.  1.
          5    1    4    4  502    0 -0.11862803931E+02 -0.12496942228E+02  0.83526478130E+01  0.19716906645E+02  0.47000000000E+01 0. -1.
         -5    1    4    4    0  502  0.18780270801E+02  0.62882799318E+02 -0.23529076736E+03  0.24431696672E+03  0.47000000000E+01 0. -1.
<mgrwt>
<rscale>  0 0.42767218E+03</rscale>
<asrwt>0</asrwt>
<pdfrwt beam="1">  1       21 0.25442178E-01 0.42767218E+03</pdfrwt>
<pdfrwt beam="2">  1       21 0.42538386E-01 0.42767218E+03</pdfrwt>
<totfact> 0.72561071E+04</totfact>
</mgrwt>
</event>
<event>
 8    1  0.9175398E-006  0.3097927E+03  0.7546771E-02  0.1080445E+00
         21   -1    0    0  504  503  0.00000000000E+00  0.00000000000E+00  0.10890219185E+03  0.10890219185E+03  0.00000000000E+00 0. -1.
         21   -1    0    0  503  504 -0.00000000000E+00 -0.00000000000E+00 -0.22031591942E+03  0.22031591942E+03  0.00000000000E+00 0. -1.
         25    2    1    2    0    0  0.35600407068E+02 -0.43939901149E+02 -0.13211069989E+03  0.19046885617E+03  0.12500817673E+03 0.  0.
         25    2    1    2    0    0 -0.35600407068E+02  0.43939901149E+02  0.20696972328E+02  0.13874925510E+03  0.12499954892E+03 0.  0.
          5    1    3    3  501    0 -0.14124665268E+02 -0.70623084860E+02 -0.40478307964E+02  0.82750889419E+02  0.47000000000E+01 0. -1.
         -5    1    3    3    0  501  0.49725072336E+02  0.26683183711E+02 -0.91632391927E+02  0.10771796676E+03  0.47000000000E+01 0. -1.
          5    1    4    4  502    0 -0.72141772652E+02 -0.17022539340E+01  0.31890616363E+02  0.79034387717E+02  0.47000000000E+01 0.  1.
         -5    1    4    4    0  502  0.36541365584E+02  0.45642155083E+02 -0.11193644034E+02  0.59714867379E+02  0.47000000000E+01 0.  1.
<mgrwt>
<rscale>  0 0.30979275E+03</rscale>
<asrwt>0</asrwt>
<pdfrwt beam="1">  1       21 0.16754184E-01 0.30979275E+03</pdfrwt>
<pdfrwt beam="2">  1       21 0.33894756E-01 0.30979275E+03</pdfrwt>
<totfact> 0.26127020E+05</totfact>
</mgrwt>
</event>
<event>
 8    1  0.9175398E-006  0.3186741E+03  0.7546771E-02  0.1076261E+00
         21   -1    0    0  504  503  0.00000000000E+00  0.00000000000E+00  0.48927513317E+02  0.48927513317E+02  0.00000000000E+00 0.  1.
         21   -1    0    0  503  504 -0.00000000000E+00 -0.00000000000E+00 -0.51889610814E+03  0.51889610814E+03  0.00000000000E+00 0.  1.
         25    2    1    2    0    0  0.68868072972E+02  0.35556874154E+02 -0.34419038121E+03  0.37429898491E+03  0.12500243524E+03 0.  0.
         25    2    1    2    0    0 -0.68868072972E+02 -0.35556874154E+02 -0.12577821361E+03  0.19352463654E+03  0.12499809260E+03 0.  0.
          5    1    3    3  501    0  0.99662756072E+02  0.12143541189E+02 -0.18644132619E+03  0.21180790507E+03  0.47000000000E+01 0.  1.
         -5    1    3    3    0  501 -0.30794683100E+02  0.23413332965E+02 -0.15774905502E+03  0.16249107984E+03  0.47000000000E+01 0.  1.
          5    1    4    4  502    0 -0.95014636076E+02 -0.30854738240E+02 -0.47478120290E+02  0.11070708129E+03  0.47000000000E+01 0.  1.
         -5    1    4    4    0  502  0.26146563104E+02 -0.47021359140E+01 -0.78300093322E+02  0.82817555256E+02  0.47000000000E+01 0.  1.
<mgrwt>
<rscale>  0 0.31867410E+03</rscale>
<asrwt>0</asrwt>
<pdfrwt beam="1">  1       21 0.75273094E-02 0.31867410E+03</pdfrwt>
<pdfrwt beam="2">  1       21 0.79830174E-01 0.31867410E+03</pdfrwt>
<totfact> 0.17779730E+05</totfact>
</mgrwt>
</event>
<event>
 8    1  0.9175398E-006  0.3145483E+03  0.7546771E-02  0.1078186E+00
         21   -1    0    0  504  503  0.00000000000E+00  0.00000000000E+00  0.55849740481E+02  0.55849740481E+02  0.00000000000E+00 0. -1.
         21   -1    0    0  503  504 -0.00000000000E+00 -0.00000000000E+00 -0.44288757432E+03  0.44288757432E+03  0.00000000000E+00 0. -1.
         25    2    1    2    0    0  0.41262907369E+02  0.92785834132E+01 -0.32921749923E+03  0.35467779275E+03  0.12499382080E+03 0.  0.
         25    2    1    2    0    0 -0.41262907369E+02 -0.92785834132E+01 -0.57820334604E+02  0.14405952205E+03  0.12498493975E+03 0.  0.
          5    1    3    3  501    0  0.58024338985E+02 -0.43085030758E+02 -0.14063846089E+03  0.15819105687E+03  0.47000000000E+01 0.  1.
         -5    1    3    3    0  501 -0.16761431616E+02  0.52363614171E+02 -0.18857903834E+03  0.19648673589E+03  0.47000000000E+01 0.  1.
          5    1    4    4  502    0  0.24616797565E+02 -0.98416658219E+01 -0.71681357696E+02  0.76571222725E+02  0.47000000000E+01 0.  1.
         -5    1    4    4    0  502 -0.65879704935E+02  0.56308240874E+00  0.13861023091E+02  0.67488299321E+02  0.47000000000E+01 0.  1.
<mgrwt>
<rscale>  0 0.31454829E+03</rscale>
<asrwt>0</asrwt>
<pdfrwt beam="1">  1       21 0.85922680E-02 0.31454829E+03</pdfrwt>
<pdfrwt beam="2">  1       21 0.68136548E-01 0.31454829E+03</pdfrwt>
<totfact> 0.20150193E+05</totfact>
</mgrwt>
</event>
<event>
 8    1  0.9175398E-006  0.2653872E+03  0.7546771E-02  0.1103949E+00
         21   -1    0    0  504  503  0.00000000000E+00  0.00000000000E+00  0.53756358694E+03  0.53756358694E+03  0.00000000000E+00 0.  1.
         21   -1    0    0  503  504 -0.00000000000E+00 -0.00000000000E+00 -0.32754444843E+02  0.32754444843E+02  0.00000000000E+00 0.  1.
         25    2    1    2    0    0 -0.44033133447E+02  0.38568471328E+01  0.24033907384E+03  0.27448642673E+03  0.12500454364E+03 0.  0.
         25    2    1    2    0    0  0.44033133447E+02 -0.38568471328E+01  0.26447006826E+03  0.29583160506E+03  0.12497251472E+03 0.  0.
          5    1    3    3  501    0  0.51874927387E+01 -0.50031769750E+02  0.14985644155E+03  0.15814275557E+03  0.47000000000E+01 0.  1.
         -5    1    3    3    0  501 -0.49220626186E+02  0.53888616883E+02  0.90482632297E+02  0.11634367116E+03  0.47000000000E+01 0.  1.
          5    1    4    4  502    0 -0.94604137868E+01  0.21582207609E+01  0.23310220522E+03  0.23335142045E+03  0.47000000000E+01 0.  1.
         -5    1    4    4    0  502  0.53493547234E+02 -0.60150678937E+01  0.31367863033E+02  0.62480184609E+02  0.47000000000E+01 0.  1.
<mgrwt>
<rscale>  0 0.26538724E+03</rscale>
<asrwt>0</asrwt>
<pdfrwt beam="1">  1       21 0.82702084E-01 0.26538724E+03</pdfrwt>
<pdfrwt beam="2">  1       21 0.50391457E-02 0.26538724E+03</pdfrwt>
<totfact> 0.33234356E+05</totfact>
</mgrwt>
</event>
<event>
 8    1  0.9175398E-006  0.2704250E+03  0.7546771E-02  0.1101037E+00
         21   -1    0    0  504  503  0.00000000000E+00  0.00000000000E+00  0.18589085552E+03  0.18589085552E+03  0.00000000000E+00 0. -1.
         21   -1    0    0  503  504 -0.00000000000E+00 -0.00000000000E+00 -0.98350308862E+02  0.98350308862E+02  0.00000000000E+00 0. -1.
         25    2    1    2    0    0  0.26517625973E+02  0.20590107339E+02  0.84956390048E+02  0.15480345368E+03  0.12497753419E+03 0.  0.
         25    2    1    2    0    0 -0.26517625973E+02 -0.20590107339E+02  0.25841566116E+01  0.12943771071E+03  0.12498122291E+03 0.  0.
          5    1    3    3  501    0  0.71148650672E+02  0.24743538874E+02  0.24410005590E+02  0.79324092061E+02  0.47000000000E+01 0. -1.
         -5    1    3    3    0  501 -0.44631024699E+02 -0.41534315352E+01  0.60546384459E+02  0.75479361617E+02  0.47000000000E+01 0. -1.
          5    1    4    4  502    0  0.14435190467E+02  0.17242832880E+02  0.50687646447E+02  0.55650853649E+02  0.47000000000E+01 0. -1.
         -5    1    4    4    0  502 -0.40952816440E+02 -0.37832940219E+02 -0.48103489836E+02  0.73786857057E+02  0.47000000000E+01 0. -1.
<mgrwt>
<rscale>  0 0.27042502E+03</rscale>
<asrwt>0</asrwt>
<pdfrwt beam="1">  1       21 0.28598593E-01 0.27042502E+03</pdfrwt>
<pdfrwt beam="2">  1       21 0.15130817E-01 0.27042502E+03</pdfrwt>
<totfact> 0.44453258E+05</totfact>
</mgrwt>
</event>
<event>
 8    1  0.9175398E-006  0.3493394E+03  0.7546771E-02  0.1062887E+00
         21   -1    0    0  504  503  0.00000000000E+00  0.00000000000E+00  0.30524958196E+03  0.30524958196E+03  0.00000000000E+00 0.  1.
         21   -1    0    0  503  504 -0.00000000000E+00 -0.00000000000E+00 -0.99949349160E+02  0.99949349160E+02  0.00000000000E+00 0.  1.
         25    2    1    2    0    0  0.83222473015E+02  0.76302473466E+02  0.49033823977E+02  0.17543503046E+03  0.12500034619E+03 0.  0.
         25    2    1    2    0    0 -0.83222473015E+02 -0.76302473466E+02  0.15626640882E+03  0.22976390066E+03  0.12499684815E+03 0.  0.
          5    1    3    3  501    0  0.11516344288E+03  0.70381822618E+02  0.33611581583E+02  0.13916913432E+03  0.47000000000E+01 0. -1.
         -5    1    3    3    0  501 -0.31940969865E+02  0.59206508476E+01  0.15422242395E+02  0.36265896140E+02  0.47000000000E+01 0. -1.
          5    1    4    4  502    0 -0.10574625207E+03 -0.92181316522E+02  0.13348652469E+03  0.19370185135E+03  0.47000000000E+01 0. -1.
         -5    1    4    4    0  502  0.22523779051E+02  0.15878843056E+02  0.22779884136E+02  0.36062049315E+02  0.47000000000E+01 0. -1.
<mgrwt>
<rscale>  0 0.34933936E+03</rscale>
<asrwt>0</asrwt>
<pdfrwt beam="1">  1       21 0.46961474E-01 0.34933936E+03</pdfrwt>
<pdfrwt beam="2">  1       21 0.15376823E-01 0.34933936E+03</pdfrwt>
<totfact> 0.15592186E+05</totfact>
</mgrwt>
</event>
<event>
 8    1  0.9175398E-006  0.3207885E+03  0.7546771E-02  0.1075287E+00
         21   -1    0    0  504  503  0.00000000000E+00  0.00000000000E+00  0.52098143591E+03  0.52098143591E+03  0.00000000000E+00 0.  1.
         21   -1    0    0  503  504 -0.00000000000E+00 -0.00000000000E+00 -0.49380488801E+02  0.49380488801E+02  0.00000000000E+00 0.  1.
         25    2    1    2    0    0  0.94970094942E+01 -0.68802960744E+02  0.10658233438E+03  0.17833091986E+03  0.12497232645E+03 0.  0.
         25    2    1    2    0    0 -0.94970094942E+01  0.68802960744E+02  0.36501861272E+03  0.39203100485E+03  0.12500272209E+03 0.  0.
          5    1    3    3  501    0 -0.50367292189E+02 -0.63482623600E+02  0.73820463892E+02  0.10971990936E+03  0.47000000000E+01 0. -1.
         -5    1    3    3    0  501  0.59864301683E+02 -0.53203371444E+01  0.32761870491E+02  0.68611010497E+02  0.47000000000E+01 0. -1.
          5    1    4    4  502    0 -0.50350109136E+02  0.11893648394E+02  0.26366202080E+03  0.26873098738E+03  0.47000000000E+01 0. -1.
         -5    1    4    4    0  502  0.40853099642E+02  0.56909312351E+02  0.10135659192E+03  0.12330001747E+03  0.47000000000E+01 0. -1.
<mgrwt>
<rscale>  0 0.32078852E+03</rscale>
<asrwt>0</asrwt>
<pdfrwt beam="1">  1       21 0.80150986E-01 0.32078852E+03</pdfrwt>
<pdfrwt beam="2">  1       21 0.75969987E-02 0.32078852E+03</pdfrwt>
<totfact> 0.17326140E+05</totfact>
</mgrwt>
</event>
<event>
 8    1  0.9175398E-006  0.2975384E+03  0.7546771E-02  0.1086478E+00
         21   -1    0    0  504  503  0.00000000000E+00  0.00000000000E+00  0.59819108525E+03  0.59819108525E+03  0.00000000000E+00 0.  1.
         21   -1    0    0  503  504 -0.00000000000E+00 -0.00000000000E+00 -0.36998663684E+02  0.36998663684E+02  0.00000000000E+00 0.  1.
         25    2    1    2    0    0 -0.73671331449E+02 -0.26938695437E+01  0.35051780724E+03  0.37937098314E+03  0.12499955058E+03 0.  0.
         25    2    1    2    0    0  0.73671331449E+02  0.26938695437E+01  0.21067461432E+03  0.25581876579E+03  0.12499890320E+03 0.  0.
          5    1    3    3  501    0 -0.10355015948E+03 -0.26041119831E+02  0.26170606654E+03  0.28268875237E+03  0.47000000000E+01 0.  1.
         -5    1    3    3    0  501  0.29878828034E+02  0.23347250288E+02  0.88811740701E+02  0.96682230772E+02  0.47000000000E+01 0.  1.
          5    1    4    4  502    0  0.25895517087E+02 -0.37076706444E+02  0.18128143531E+03  0.18689651884E+03  0.47000000000E+01 0. -1.
         -5    1    4    4    0  502  0.47775814362E+02  0.39770575988E+02  0.29393179010E+02  0.68922246950E+02  0.47000000000E+01 0. -1.
<mgrwt>
<rscale>  0 0.29753837E+03</rscale>
<asrwt>0</asrwt>
<pdfrwt beam="1">  1       21 0.92029391E-01 0.29753837E+03</pdfrwt>
<pdfrwt beam="2">  1       21 0.56921025E-02 0.29753837E+03</pdfrwt>
<totfact> 0.20877416E+05</totfact>
</mgrwt>
</event>
<event>
 8    1  0.9175398E-006  0.3773953E+03  0.7546771E-02  0.1051901E+00
         21   -1    0    0  504  503  0.00000000000E+00  0.00000000000E+00  0.31351833500E+03  0.31351833500E+03  0.00000000000E+00 0.  1.
         21   -1    0    0  503  504 -0.00000000000E+00 -0.00000000000E+00 -0.11357165876E+03  0.11357165876E+03  0.00000000000E+00 0.  1.
         25    2    1    2    0    0 -0.12347265913E+03  0.63075996521E+02  0.68821313802E+02  0.19896112419E+03  0.12500030726E+03 0.  0.
         25    2    1    2    0    0  0.12347265913E+03 -0.63075996521E+02  0.13112536244E+03  0.22812886957E+03  0.12499936628E+03 0.  0.
          5    1    3    3  501    0 -0.12755310414E+03  0.90615832527E+02  0.68129273259E+02  0.17071822209E+03  0.47000000000E+01 0. -1.
         -5    1    3    3    0  501  0.40804450107E+01 -0.27539836006E+02  0.69204054291E+00  0.28242902096E+02  0.47000000000E+01 0. -1.
          5    1    4    4  502    0  0.11882903204E+03 -0.24101484400E+02  0.38306362617E+02  0.12724263367E+03  0.47000000000E+01 0. -1.
         -5    1    4    4    0  502  0.46436270868E+01 -0.38974512121E+02  0.92818999820E+02  0.10088623591E+03  0.47000000000E+01 0. -1.
<mgrwt>
<rscale>  0 0.37739527E+03</rscale>
<asrwt>0</asrwt>
<pdfrwt beam="1">  1       21 0.48233590E-01 0.37739527E+03</pdfrwt>
<pdfrwt beam="2">  1       21 0.17472563E-01 0.37739527E+03</pdfrwt>
<totfact> 0.11553085E+05</totfact>
</mgrwt>
</event>
<event>
 8    1  0.9175398E-006  0.3703507E+03  0.7546771E-02  0.1054559E+00
         21   -1    0    0  504  503  0.00000000000E+00  0.00000000000E+00  0.26035658843E+03  0.26035658843E+03  0.00000000000E+00 0.  1.
         21   -1    0    0  503  504 -0.00000000000E+00 -0.00000000000E+00 -0.13170366796E+03  0.13170366796E+03  0.00000000000E+00 0.  1.
         25    2    1    2    0    0 -0.10395150946E+03 -0.38375910874E+02 -0.20279159888E+02  0.16826827415E+03  0.12499736360E+03 0.  0.
         25    2    1    2    0    0  0.10395150946E+03  0.38375910874E+02  0.14893208035E+03  0.22379198224E+03  0.12499383946E+03 0.  0.
          5    1    3    3  501    0 -0.10178131780E+03 -0.68588577958E+02 -0.42976821408E+02  0.13012658013E+03  0.47000000000E+01 0.  1.
         -5    1    3    3    0  501 -0.21701916617E+01  0.30212667085E+02  0.22697661520E+02  0.38141694020E+02  0.47000000000E+01 0.  1.
          5    1    4    4  502    0  0.86773781889E+02  0.43527227301E+02  0.27577247960E+02  0.10102922025E+03  0.47000000000E+01 0. -1.
         -5    1    4    4    0  502  0.17177727570E+02 -0.51513164274E+01  0.12135483239E+03  0.12276276198E+03  0.47000000000E+01 0. -1.
<mgrwt>
<rscale>  0 0.37035074E+03</rscale>
<asrwt>0</asrwt>
<pdfrwt beam="1">  1       21 0.40054860E-01 0.37035074E+03</pdfrwt>
<pdfrwt beam="2">  1       21 0.20262103E-01 0.37035074E+03</pdfrwt>
<totfact> 0.12879431E+05</totfact>
</mgrwt>
</event>
<event>
 8    1  0.9175398E-006  0.3752795E+03  0.7546771E-02  0.1052692E+00
         21   -1    0    0  504  503  0.00000000000E+00  0.00000000000E+00  0.64832960969E+02  0.64832960969E+02  0.00000000000E+00 0.  1.
         21   -1    0    0  503  504 -0.00000000000E+00 -0.00000000000E+00 -0.54306764692E+03  0.54306764692E+03  0.00000000000E+00 0.  1.
         25    2    1    2    0    0 -0.77776035390E+02  0.44045923174E+02 -0.41354452374E+03  0.44117064648E+03  0.12499324451E+03 0.  0.
         25    2    1    2    0    0  0.77776035390E+02 -0.44045923174E+02 -0.64690162211E+02  0.16672996141E+03  0.12499963166E+03 0.  0.
          5    1    3    3  501    0 -0.52910255303E+02  0.87838674474E+02 -0.29222806364E+03  0.30973288335E+03  0.47000000000E+01 0.  1.
         -5    1    3    3    0  501 -0.24865780086E+02 -0.43792751300E+02 -0.12131646010E+03  0.13143776314E+03  0.47000000000E+01 0.  1.
          5    1    4    4  502    0  0.10399288220E+03 -0.15570858134E+02 -0.19506953341E+02  0.10704943904E+03  0.47000000000E+01 0.  1.
         -5    1    4    4    0  502 -0.26216846810E+02 -0.28475065040E+02 -0.45183208870E+02  0.59680522362E+02  0.47000000000E+01 0.  1.
<mgrwt>
<rscale>  0 0.37527954E+03</rscale>
<asrwt>0</asrwt>
<pdfrwt beam="1">  1       21 0.99743019E-02 0.37527954E+03</pdfrwt>
<pdfrwt beam="2">  1       21 0.83548867E-01 0.37527954E+03</pdfrwt>
<totfact> 0.95934501E+04</totfact>
</mgrwt>
</event>
<event>
 8    1  0.9175398E-006  0.2548630E+03  0.7546771E-02  0.1110270E+00
         21   -1    0    0  504  503  0.00000000000E+00  0.00000000000E+00  0.96743080805E+03  0.96743080805E+03  0.00000000000E+00 0.  1.
         21   -1    0    0  503  504 -0.00000000000E+00 -0.00000000000E+00 -0.16785474502E+02  0.16785474502E+02  0.00000000000E+00 0.  1.
         25    2    1    2    0    0  0.54277455575E+01  0.19474706648E+02  0.42013506412E+03  0.43880191834E+03  0.12499970725E+03 0.  0.
         25    2    1    2    0    0 -0.54277455575E+01 -0.19474706648E+02  0.53051026943E+03  0.54541436422E+03  0.12500783217E+03 0.  0.
          5    1    3    3  501    0  0.16324267424E+02  0.56009500353E+02  0.96262584224E+02  0.11265931368E+03  0.47000000000E+01 0.  1.
         -5    1    3    3    0  501 -0.10896521866E+02 -0.36534793705E+02  0.32387247989E+03  0.32614260466E+03  0.47000000000E+01 0.  1.
          5    1    4    4  502    0 -0.56115358874E+02 -0.45906564377E+01  0.13473638471E+03  0.14610267278E+03  0.47000000000E+01 0.  1.
         -5    1    4    4    0  502  0.50687613316E+02 -0.14884050210E+02  0.39577388472E+03  0.39931169144E+03  0.47000000000E+01 0.  1.
<mgrwt>
<rscale>  0 0.25486298E+03</rscale>
<asrwt>0</asrwt>
<pdfrwt beam="1">  1       21 0.14883546E+00 0.25486298E+03</pdfrwt>
<pdfrwt beam="2">  1       21 0.25823815E-02 0.25486298E+03</pdfrwt>
<totfact> 0.24173425E+05</totfact>
</mgrwt>
</event>
<event>
 8    1  0.9175398E-006  0.3639326E+03  0.7546771E-02  0.1057037E+00
         21   -1    0    0  504  503  0.00000000000E+00  0.00000000000E+00  0.53564123007E+03  0.53564123007E+03  0.00000000000E+00 0.  1.
         21   -1    0    0  503  504 -0.00000000000E+00 -0.00000000000E+00 -0.61816987850E+02  0.61816987850E+02  0.00000000000E+00 0.  1.
         25    2    1    2    0    0 -0.12416551458E+03  0.13197506687E+02  0.16541739777E+03  0.24203449054E+03  0.12500611957E+03 0.  0.
         25    2    1    2    0    0  0.12416551458E+03 -0.13197506687E+02  0.30840684445E+03  0.35542372738E+03  0.12497997875E+03 0.  0.
          5    1    3    3  501    0  0.16323273049E+02  0.23039374897E+02  0.59619889019E+01  0.29238627709E+02  0.47000000000E+01 0. -1.
         -5    1    3    3    0  501 -0.14048878763E+03 -0.98418682103E+01  0.15945540887E+03  0.21279586283E+03  0.47000000000E+01 0. -1.
          5    1    4    4  502    0  0.10294452745E+03  0.71899758360E+01  0.30879999444E+03  0.32562063517E+03  0.47000000000E+01 0.  1.
         -5    1    4    4    0  502  0.21220987129E+02 -0.20387482523E+02 -0.39314998872E+00  0.29803092210E+02  0.47000000000E+01 0.  1.
<mgrwt>
<rscale>  0 0.36393256E+03</rscale>
<asrwt>0</asrwt>
<pdfrwt beam="1">  1       21 0.82406340E-01 0.36393256E+03</pdfrwt>
<pdfrwt beam="2">  1       21 0.95103062E-02 0.36393256E+03</pdfrwt>
<totfact> 0.10813809E+05</totfact>
</mgrwt>
</event>
<event>
 8    1  0.9175398E-006  0.2983991E+03  0.7546771E-02  0.1086044E+00
         21   -1    0    0  504  503  0.00000000000E+00  0.00000000000E+00  0.55009477988E+02  0.55009477988E+02  0.00000000000E+00 0.  1.
         21   -1    0    0  503  504 -0.00000000000E+00 -0.00000000000E+00 -0.40466677456E+03  0.40466677456E+03  0.00000000000E+00 0.  1.
         25    2    1    2    0    0  0.16692961221E+02 -0.55147314253E+02 -0.86116589897E+02  0.16235836927E+03  0.12499716714E+03 0.  0.
         25    2    1    2    0    0 -0.16692961221E+02  0.55147314253E+02 -0.26354070667E+03  0.29731788327E+03  0.12499735364E+03 0.  0.
          5    1    3    3  501    0 -0.22288700041E+02 -0.82026573847E+02 -0.75087573747E+02  0.11351378197E+03  0.47000000000E+01 0.  1.
         -5    1    3    3    0  501  0.38981661262E+02  0.26879259595E+02 -0.11029016150E+02  0.48844587298E+02  0.47000000000E+01 0.  1.
          5    1    4    4  502    0  0.20748696287E+02 -0.10073389448E+01 -0.20989961937E+03  0.21097740007E+03  0.47000000000E+01 0. -1.
         -5    1    4    4    0  502 -0.37441657508E+02  0.56154653197E+02 -0.53641087304E+02  0.86340483203E+02  0.47000000000E+01 0. -1.
<mgrwt>
<rscale>  0 0.29839912E+03</rscale>
<asrwt>0</asrwt>
<pdfrwt beam="1">  1       21 0.84629966E-02 0.29839912E+03</pdfrwt>
<pdfrwt beam="2">  1       21 0.62256427E-01 0.29839912E+03</pdfrwt>
<totfact> 0.25338312E+05</totfact>
</mgrwt>
</event>
<event>
 8    1  0.9175398E-006  0.2804668E+03  0.7546771E-02  0.1095434E+00
         21   -1    0    0  504  503  0.00000000000E+00  0.00000000000E+00  0.42564818157E+02  0.42564818157E+02  0.00000000000E+00 0.  1.
         21   -1    0    0  503  504 -0.00000000000E+00 -0.00000000000E+00 -0.46201084445E+03  0.46201084445E+03  0.00000000000E+00 0.  1.
         25    2    1    2    0    0 -0.24617565530E+01  0.52264486210E+02 -0.27469714762E+03  0.30628867478E+03  0.12496636597E+03 0.  0.
         25    2    1    2    0    0  0.24617565530E+01 -0.52264486210E+02 -0.14474887867E+03  0.19828698783E+03  0.12501141908E+03 0.  0.
          5    1    3    3  501    0  0.53551085569E+02  0.60851080767E+01 -0.17292477033E+03  0.18118999283E+03  0.47000000000E+01 0.  1.
         -5    1    3    3    0  501 -0.56012842122E+02  0.46179378133E+02 -0.10177237729E+03  0.12509868196E+03  0.47000000000E+01 0.  1.
          5    1    4    4  502    0 -0.60441655077E+02 -0.34108904688E+02 -0.67668014831E+02  0.97044635496E+02  0.47000000000E+01 0.  1.
         -5    1    4    4    0  502  0.62903411630E+02 -0.18155581522E+02 -0.77080863841E+02  0.10124235233E+03  0.47000000000E+01 0.  1.
<mgrwt>
<rscale>  0 0.28046681E+03</rscale>
<asrwt>0</asrwt>
<pdfrwt beam="1">  1       21 0.65484336E-02 0.28046681E+03</pdfrwt>
<pdfrwt beam="2">  1       21 0.71078591E-01 0.28046681E+03</pdfrwt>
<totfact> 0.29729473E+05</totfact>
</mgrwt>
</event>
<event>
 8    1  0.9175398E-006  0.3014235E+03  0.7546771E-02  0.1084531E+00
         21   -1    0    0  504  503  0.00000000000E+00  0.00000000000E+00  0.14482276251E+02  0.14482276251E+02  0.00000000000E+00 0.  1.
         21   -1    0    0  503  504 -0.00000000000E+00 -0.00000000000E+00 -0.15684024315E+04  0.15684024315E+04  0.00000000000E+00 0.  1.
         25    2    1    2    0    0  0.25150208229E+02 -0.70369316203E+02 -0.57411795264E+03  0.59231807588E+03  0.12507959798E+03 0.  0.
         25    2    1    2    0    0 -0.25150208229E+02  0.70369316203E+02 -0.97980220264E+03  0.99056663191E+03  0.12500208921E+03 0.  0.
          5    1    3    3  501    0  0.25969146358E+02 -0.17481780550E+02 -0.50074824179E+03  0.50174784591E+03  0.47000000000E+01 0. -1.
         -5    1    3    3    0  501 -0.81893812837E+00 -0.52887535653E+02 -0.73369710848E+02  0.90570229971E+02  0.47000000000E+01 0. -1.
          5    1    4    4  502    0 -0.46529794526E+02  0.47719678996E+02 -0.92459079641E+03  0.92700184485E+03  0.47000000000E+01 0. -1.
         -5    1    4    4    0  502  0.21379586297E+02  0.22649637207E+02 -0.55211406230E+02  0.63564787058E+02  0.47000000000E+01 0. -1.
<mgrwt>
<rscale>  0 0.30142354E+03</rscale>
<asrwt>0</asrwt>
<pdfrwt beam="1">  1       21 0.22280440E-02 0.30142354E+03</pdfrwt>
<pdfrwt beam="2">  1       21 0.24129252E+00 0.30142354E+03</pdfrwt>
<totfact> 0.72546904E+04</totfact>
</mgrwt>
</event>
<event>
 8    1  0.9175398E-006  0.2604359E+03  0.7546771E-02  0.1106882E+00
         21   -1    0    0  504  503  0.00000000000E+00  0.00000000000E+00  0.95834634150E+02  0.95834634150E+02  0.00000000000E+00 0. -1.
         21   -1    0    0  503  504 -0.00000000000E+00 -0.00000000000E+00 -0.17693727167E+03  0.17693727167E+03  0.00000000000E+00 0. -1.
         25    2    1    2    0    0  0.90023095771E+01 -0.12721828332E+02 -0.59647707454E+01  0.12611023421E+03  0.12500130475E+03 0.  0.
         25    2    1    2    0    0 -0.90023095771E+01  0.12721828332E+02 -0.75137866772E+02  0.14666167160E+03  0.12498424061E+03 0.  0.
          5    1    3    3  501    0  0.49955097258E+02 -0.42983081487E+02 -0.26255482627E+02  0.71094988601E+02  0.47000000000E+01 0. -1.
         -5    1    3    3    0  501 -0.40952787681E+02  0.30261253155E+02  0.20290711882E+02  0.55015245614E+02  0.47000000000E+01 0. -1.
          5    1    4    4  502    0 -0.57235503092E+02  0.35256047755E+02 -0.20988733029E+02  0.70579803284E+02  0.47000000000E+01 0.  1.
         -5    1    4    4    0  502  0.48233193515E+02 -0.22534219423E+02 -0.54149133743E+02  0.76081868318E+02  0.47000000000E+01 0.  1.
<mgrwt>
<rscale>  0 0.26043593E+03</rscale>
<asrwt>0</asrwt>
<pdfrwt beam="1">  1       21 0.14743790E-01 0.26043593E+03</pdfrwt>
<pdfrwt beam="2">  1       21 0.27221118E-01 0.26043593E+03</pdfrwt>
<totfact> 0.51410597E+05</totfact>
</mgrwt>
</event>
<event>
 8    1  0.9175398E-006  0.2867944E+03  0.7546771E-02  0.1092035E+00
         21   -1    0    0  504  503  0.00000000000E+00  0.00000000000E+00  0.30277847659E+03  0.30277847659E+03  0.00000000000E+00 0. -1.
         21   -1    0    0  503  504 -0.00000000000E+00 -0.00000000000E+00 -0.67913539747E+02  0.67913539747E+02  0.00000000000E+00 0. -1.
         25    2    1    2    0    0  0.64920726038E+02  0.15375647779E+02  0.14596486502E+03  0.20342364442E+03  0.12499730428E+03 0.  0.
         25    2    1    2    0    0 -0.64920726038E+02 -0.15375647779E+02  0.88900071829E+02  0.16726837192E+03  0.12499749701E+03 0.  0.
          5    1    3    3  501    0  0.31130068625E+01 -0.47484106688E+01  0.13750893310E+03  0.13770633573E+03  0.47000000000E+01 0. -1.
         -5    1    3    3    0  501  0.61807719175E+02  0.20124058448E+02  0.84559319147E+01  0.65717308698E+02  0.47000000000E+01 0. -1.
          5    1    4    4  502    0 -0.89764215865E+02  0.51571271718E+01  0.21733486703E+02  0.92620974162E+02  0.47000000000E+01 0. -1.
         -5    1    4    4    0  502  0.24843489827E+02 -0.20532774951E+02  0.67166585126E+02  0.74647397754E+02  0.47000000000E+01 0. -1.
<mgrwt>
<rscale>  0 0.28679441E+03</rscale>
<asrwt>0</asrwt>
<pdfrwt beam="1">  1       21 0.46581303E-01 0.28679441E+03</pdfrwt>
<pdfrwt beam="2">  1       21 0.10448237E-01 0.28679441E+03</pdfrwt>
<totfact> 0.32424026E+05</totfact>
</mgrwt>
</event>
<event>
 8    1  0.9175398E-006  0.2927154E+03  0.7546771E-02  0.1088940E+00
         21   -1    0    0  504  503  0.00000000000E+00  0.00000000000E+00  0.10203876660E+04  0.10203876660E+04  0.00000000000E+00 0. -1.
         21   -1    0    0  503  504 -0.00000000000E+00 -0.00000000000E+00 -0.20992583320E+02  0.20992583320E+02  0.00000000000E+00 0. -1.
         25    2    1    2    0    0 -0.90151446738E+01  0.52077289974E+02  0.30477483004E+03  0.33362581123E+03  0.12500067171E+03 0.  0.
         25    2    1    2    0    0  0.90151446738E+01 -0.52077289974E+02  0.69462025266E+03  0.70775443811E+03  0.12500292914E+03 0.  0.
          5    1    3    3  501    0 -0.22910917300E+02 -0.37442619310E+02  0.82878909727E+02  0.93903479967E+02  0.47000000000E+01 0. -1.
         -5    1    3    3    0  501  0.13895772626E+02  0.89519909285E+02  0.22189592031E+03  0.23972233126E+03  0.47000000000E+01 0. -1.
          5    1    4    4  502    0  0.30122865985E+02 -0.69415496619E+01  0.37914892128E+02  0.49144696682E+02  0.47000000000E+01 0.  1.
         -5    1    4    4    0  502 -0.21107721312E+02 -0.45135740313E+02  0.65670536053E+03  0.65860974143E+03  0.47000000000E+01 0.  1.
<mgrwt>
<rscale>  0 0.29271538E+03</rscale>
<asrwt>0</asrwt>
<pdfrwt beam="1">  1       21 0.15698268E+00 0.29271538E+03</pdfrwt>
<pdfrwt beam="2">  1       21 0.32296290E-02 0.29271538E+03</pdfrwt>
<totfact> 0.14262805E+05</totfact>
</mgrwt>
</event>
<event>
 8    1  0.9175398E-006  0.3419406E+03  0.7546771E-02  0.1065972E+00
         21   -1    0    0  504  503  0.00000000000E+00  0.00000000000E+00  0.31132342498E+02  0.31132342498E+02  0.00000000000E+00 0.  1.
         21   -1    0    0  503  504 -0.00000000000E+00 -0.00000000000E+00 -0.93892224472E+03  0.93892224472E+03  0.00000000000E+00 0.  1.
         25    2    1    2    0    0 -0.78564705992E+01 -0.87204536377E+02 -0.67253085601E+03  0.68962904962E+03  0.12499647395E+03 0.  0.
         25    2    1    2    0    0  0.78564705992E+01  0.87204536377E+02 -0.23525904621E+03  0.28042553760E+03  0.12500123206E+03 0.  0.
          5    1    3    3  501    0 -0.39619976876E+02 -0.78243100639E+02 -0.62741823286E+03  0.63353567721E+03  0.47000000000E+01 0.  1.
         -5    1    3    3    0  501  0.31763506277E+02 -0.89614357378E+01 -0.45112623141E+02  0.56093372408E+02  0.47000000000E+01 0.  1.
          5    1    4    4  502    0  0.45391666538E+02  0.62371257577E+02 -0.55729380513E+02  0.95280800874E+02  0.47000000000E+01 0.  1.
         -5    1    4    4    0  502 -0.37535195939E+02  0.24833278800E+02 -0.17952966570E+03  0.18514473672E+03  0.47000000000E+01 0.  1.
<mgrwt>
<rscale>  0 0.34194063E+03</rscale>
<asrwt>0</asrwt>
<pdfrwt beam="1">  1       21 0.47895912E-02 0.34194063E+03</pdfrwt>
<pdfrwt beam="2">  1       21 0.14444958E+00 0.34194063E+03</pdfrwt>
<totfact> 0.90140138E+04</totfact>
</mgrwt>
</event>
<event>
 8    1  0.9175398E-006  0.2905300E+03  0.7546771E-02  0.1090073E+00
         21   -1    0    0  504  503  0.00000000000E+00  0.00000000000E+00  0.97130217661E+02  0.97130217661E+02  0.00000000000E+00 0. -1.
         21   -1    0    0  503  504 -0.00000000000E+00 -0.00000000000E+00 -0.21725391128E+03  0.21725391128E+03  0.00000000000E+00 0. -1.
         25    2    1    2    0    0  0.52834051176E+02 -0.27355241032E+02 -0.10768605198E+03  0.17538823599E+03  0.12500000543E+03 0.  0.
         25    2    1    2    0    0 -0.52834051176E+02  0.27355241032E+02 -0.12437641639E+02  0.13899589295E+03  0.12500166860E+03 0.  0.
          5    1    3    3  501    0 -0.26145544950E+02  0.24113235054E+01 -0.83212720764E+02  0.87383355959E+02  0.47000000000E+01 0. -1.
         -5    1    3    3    0  501  0.78979596126E+02 -0.29766564537E+02 -0.24473331219E+02  0.88004880032E+02  0.47000000000E+01 0. -1.
          5    1    4    4  502    0 -0.79665930010E+02  0.20527327099E+02  0.30351451298E+02  0.87814191097E+02  0.47000000000E+01 0.  1.
         -5    1    4    4    0  502  0.26831878834E+02  0.68279139328E+01 -0.42789092937E+02  0.51181701855E+02  0.47000000000E+01 0.  1.
<mgrwt>
<rscale>  0 0.29053000E+03</rscale>
<asrwt>0</asrwt>
<pdfrwt beam="1">  1       21 0.14943110E-01 0.29053000E+03</pdfrwt>
<pdfrwt beam="2">  1       21 0.33423679E-01 0.29053000E+03</pdfrwt>
<totfact> 0.33314638E+05</totfact>
</mgrwt>
</event>
<event>
 8    1  0.9175398E-006  0.3400056E+03  0.7546771E-02  0.1066794E+00
         21   -1    0    0  504  503  0.00000000000E+00  0.00000000000E+00  0.27974344887E+02  0.27974344887E+02  0.00000000000E+00 0.  1.
         21   -1    0    0  503  504 -0.00000000000E+00 -0.00000000000E+00 -0.10331236600E+04  0.10331236600E+04  0.00000000000E+00 0.  1.
         25    2    1    2    0    0 -0.10467861194E+03  0.59482838251E+01 -0.65169678026E+03  0.67180872907E+03  0.12500112467E+03 0.  0.
         25    2    1    2    0    0  0.10467861194E+03 -0.59482838251E+01 -0.35345253486E+03  0.38928927583E+03  0.12499780797E+03 0.  0.
          5    1    3    3  501    0 -0.91003581531E+02 -0.49841568840E+01 -0.64655766912E+03  0.65296661719E+03  0.47000000000E+01 0.  1.
         -5    1    3    3    0  501 -0.13675030410E+02  0.10932440709E+02 -0.51391111419E+01  0.18842111874E+02  0.47000000000E+01 0.  1.
          5    1    4    4  502    0  0.85374281926E+02 -0.22431717077E+02 -0.95821074883E+02  0.13036762764E+03  0.47000000000E+01 0.  1.
         -5    1    4    4    0  502  0.19304330015E+02  0.16483433252E+02 -0.25763145998E+03  0.25892164819E+03  0.47000000000E+01 0.  1.
<mgrwt>
<rscale>  0 0.34000563E+03</rscale>
<asrwt>0</asrwt>
<pdfrwt beam="1">  1       21 0.43037462E-02 0.34000563E+03</pdfrwt>
<pdfrwt beam="2">  1       21 0.15894207E+00 0.34000563E+03</pdfrwt>
<totfact> 0.83623399E+04</totfact>
</mgrwt>
</event>
<event>
 8    1  0.9175398E-006  0.3505762E+03  0.7546771E-02  0.1062379E+00
         21   -1    0    0  504  503  0.00000000000E+00  0.00000000000E+00  0.41234730299E+03  0.41234730299E+03  0.00000000000E+00 0.  1.
         21   -1    0    0  503  504 -0.00000000000E+00 -0.00000000000E+00 -0.74514675864E+02  0.74514675864E+02  0.00000000000E+00 0.  1.
         25    2    1    2    0    0  0.92015126941E+02 -0.24826515905E+02  0.61186576498E+02  0.16867711080E+03  0.12500012435E+03 0.  0.
         25    2    1    2    0    0 -0.92015126941E+02  0.24826515905E+02  0.27664605063E+03  0.31818486805E+03  0.12500173379E+03 0.  0.
          5    1    3    3  501    0  0.54415155322E+02 -0.39881415609E+02  0.94374371604E+02  0.11610404151E+03  0.47000000000E+01 0.  1.
         -5    1    3    3    0  501  0.37599971619E+02  0.15054899703E+02 -0.33187795106E+02  0.52573069292E+02  0.47000000000E+01 0.  1.
          5    1    4    4  502    0 -0.88666088398E+02 -0.36192761091E+02  0.16666431450E+03  0.19227759858E+03  0.47000000000E+01 0.  1.
         -5    1    4    4    0  502 -0.33490385429E+01  0.61019276996E+02  0.10998173613E+03  0.12590726947E+03  0.47000000000E+01 0.  1.
<mgrwt>
<rscale>  0 0.35057624E+03</rscale>
<asrwt>0</asrwt>
<pdfrwt beam="1">  1       21 0.63438045E-01 0.35057624E+03</pdfrwt>
<pdfrwt beam="2">  1       21 0.11463797E-01 0.35057624E+03</pdfrwt>
<totfact> 0.13984398E+05</totfact>
</mgrwt>
</event>
<event>
 8    1  0.9175398E-006  0.6295124E+03  0.7546771E-02  0.9846001E-01
         21   -1    0    0  504  503  0.00000000000E+00  0.00000000000E+00  0.84054652619E+02  0.84054652619E+02  0.00000000000E+00 0.  1.
         21   -1    0    0  503  504 -0.00000000000E+00 -0.00000000000E+00 -0.11786552198E+04  0.11786552198E+04  0.00000000000E+00 0.  1.
         25    2    1    2    0    0 -0.27556882349E+03 -0.68802517320E+02 -0.44165773320E+03  0.53977708246E+03  0.12500313026E+03 0.  0.
         25    2    1    2    0    0  0.27556882349E+03  0.68802517320E+02 -0.65294283402E+03  0.72293279001E+03  0.12500204598E+03 0.  0.
          5    1    3    3  501    0 -0.28468231015E+03 -0.59792114917E+02 -0.43769241220E+03  0.52556241534E+03  0.47000000000E+01 0.  1.
         -5    1    3    3    0  501  0.91134866612E+01 -0.90104024032E+01 -0.39653210057E+01  0.14214667118E+02  0.47000000000E+01 0.  1.
          5    1    4    4  502    0  0.17914343799E+03  0.25635863523E+02 -0.26569457559E+03  0.32150469106E+03  0.47000000000E+01 0.  1.
         -5    1    4    4    0  502  0.96425385497E+02  0.43166653797E+02 -0.38724825843E+03  0.40142809895E+03  0.47000000000E+01 0.  1.
<mgrwt>
<rscale>  0 0.62951237E+03</rscale>
<asrwt>0</asrwt>
<pdfrwt beam="1">  1       21 0.12931486E-01 0.62951237E+03</pdfrwt>
<pdfrwt beam="2">  1       21 0.18133156E+00 0.62951237E+03</pdfrwt>
<totfact> 0.75660083E+03</totfact>
</mgrwt>
</event>
<event>
 8    1  0.9175398E-006  0.5932301E+03  0.7546771E-02  0.9919552E-01
         21   -1    0    0  504  503  0.00000000000E+00  0.00000000000E+00  0.24642182934E+03  0.24642182934E+03  0.00000000000E+00 0. -1.
         21   -1    0    0  503  504 -0.00000000000E+00 -0.00000000000E+00 -0.35703204890E+03  0.35703204890E+03  0.00000000000E+00 0. -1.
         25    2    1    2    0    0 -0.83951138718E+02 -0.91265157588E+02  0.18753243561E+03  0.25720085848E+03  0.12492695672E+03 0.  0.
         25    2    1    2    0    0  0.83951138718E+02  0.91265157588E+02 -0.29814265517E+03  0.34625301976E+03  0.12499995271E+03 0.  0.
          5    1    3    3  501    0 -0.79321116281E+02 -0.95567856442E+02  0.76613580477E+02  0.14600268965E+03  0.47000000000E+01 0.  1.
         -5    1    3    3    0  501 -0.46300224369E+01  0.43026988545E+01  0.11091885514E+03  0.11119816882E+03  0.47000000000E+01 0.  1.
          5    1    4    4  502    0 -0.21248958777E+02  0.31823266729E+01 -0.50001140365E+01  0.22555189925E+02  0.47000000000E+01 0.  1.
         -5    1    4    4    0  502  0.10520009750E+03  0.88082830915E+02 -0.29314254113E+03  0.32369782983E+03  0.47000000000E+01 0.  1.
<mgrwt>
<rscale>  0 0.59323011E+03</rscale>
<asrwt>0</asrwt>
<pdfrwt beam="1">  1       21 0.37911051E-01 0.59323011E+03</pdfrwt>
<pdfrwt beam="2">  1       21 0.54928007E-01 0.59323011E+03</pdfrwt>
<totfact> 0.18361811E+04</totfact>
</mgrwt>
</event>
<event>
 8    1  0.9175398E-006  0.4291016E+03  0.7546771E-02  0.1034144E+00
         21   -1    0    0  504  503  0.00000000000E+00  0.00000000000E+00  0.14738542303E+03  0.14738542303E+03  0.00000000000E+00 0. -1.
         21   -1    0    0  503  504 -0.00000000000E+00 -0.00000000000E+00 -0.31232423197E+03  0.31232423197E+03  0.00000000000E+00 0. -1.
         25    2    1    2    0    0  0.88871493905E+02 -0.13204515572E+03 -0.15877513495E+03  0.25723234347E+03  0.12499947788E+03 0.  0.
         25    2    1    2    0    0 -0.88871493905E+02  0.13204515572E+03 -0.61636739892E+01  0.20247731154E+03  0.12500002093E+03 0.  0.
          5    1    3    3  501    0  0.89403798724E+02 -0.49837668836E+02 -0.13875988506E+03  0.17249124083E+03  0.47000000000E+01 0.  1.
         -5    1    3    3    0  501 -0.53230481851E+00 -0.82207486881E+02 -0.20015249890E+02  0.84741102635E+02  0.47000000000E+01 0.  1.
          5    1    4    4  502    0 -0.41077247295E+02  0.10788108611E+03 -0.56696904939E+02  0.12869459202E+03  0.47000000000E+01 0.  1.
         -5    1    4    4    0  502 -0.47794246611E+02  0.24164069608E+02  0.50533230949E+02  0.73782719517E+02  0.47000000000E+01 0.  1.
<mgrwt>
<rscale>  0 0.42910157E+03</rscale>
<asrwt>0</asrwt>
<pdfrwt beam="1">  1       21 0.22674681E-01 0.42910157E+03</pdfrwt>
<pdfrwt beam="2">  1       21 0.48049882E-01 0.42910157E+03</pdfrwt>
<totfact> 0.70241813E+04</totfact>
</mgrwt>
</event>
<event>
 8    1  0.9175398E-006  0.2885207E+03  0.7546771E-02  0.1091124E+00
         21   -1    0    0  504  503  0.00000000000E+00  0.00000000000E+00  0.35000215973E+03  0.35000215973E+03  0.00000000000E+00 0.  1.
         21   -1    0    0  503  504 -0.00000000000E+00 -0.00000000000E+00 -0.59459774988E+02  0.59459774988E+02  0.00000000000E+00 0.  1.
         25    2    1    2    0    0 -0.61095582589E+01  0.39928157528E+02  0.22995757937E+03  0.26481021921E+03  0.12494950750E+03 0.  0.
         25    2    1    2    0    0  0.61095582589E+01 -0.39928157528E+02  0.60584805374E+02  0.14465171551E+03  0.12498806220E+03 0.  0.
          5    1    3    3  501    0 -0.25733363362E+02  0.90071169425E+01  0.22598734673E+03  0.22767455947E+03  0.47000000000E+01 0. -1.
         -5    1    3    3    0  501  0.19623805103E+02  0.30921040585E+02  0.39702326404E+01  0.37135659746E+02  0.47000000000E+01 0. -1.
          5    1    4    4  502    0  0.17298037732E+02 -0.40928067076E+02  0.96708220010E+02  0.10653120952E+03  0.47000000000E+01 0.  1.
         -5    1    4    4    0  502 -0.11188479473E+02  0.99990954867E+00 -0.36123414636E+02  0.38120505991E+02  0.47000000000E+01 0.  1.
<mgrwt>
<rscale>  0 0.28852071E+03</rscale>
<asrwt>0</asrwt>
<pdfrwt beam="1">  1       21 0.53846485E-01 0.28852071E+03</pdfrwt>
<pdfrwt beam="2">  1       21 0.91476578E-02 0.28852071E+03</pdfrwt>
<totfact> 0.30261050E+05</totfact>
</mgrwt>
</event>
<event>
 8    1  0.9175398E-006  0.2771523E+03  0.7546771E-02  0.1097255E+00
         21   -1    0    0  504  503  0.00000000000E+00  0.00000000000E+00  0.94291232406E+02  0.94291232406E+02  0.00000000000E+00 0. -1.
         21   -1    0    0  503  504 -0.00000000000E+00 -0.00000000000E+00 -0.20366001142E+03  0.20366001142E+03  0.00000000000E+00 0. -1.
         25    2    1    2    0    0  0.22149536363E+02 -0.23056390665E+02 -0.37649264361E+00  0.12902662104E+03  0.12500211230E+03 0.  0.
         25    2    1    2    0    0 -0.22149536363E+02  0.23056390665E+02 -0.10899228638E+03  0.16892462279E+03  0.12503603714E+03 0.  0.
          5    1    3    3  501    0  0.44403720929E+02  0.31625008812E+01  0.50470908459E+02  0.67461799893E+02  0.47000000000E+01 0.  1.
         -5    1    3    3    0  501 -0.22254184566E+02 -0.26218891546E+02 -0.50847401102E+02  0.61564821152E+02  0.47000000000E+01 0.  1.
          5    1    4    4  502    0  0.45854548407E+02 -0.13324402925E+02 -0.62334769800E+02  0.78663160685E+02  0.47000000000E+01 0.  1.
         -5    1    4    4    0  502 -0.68004084770E+02  0.36380793590E+02 -0.46657516576E+02  0.90261462101E+02  0.47000000000E+01 0.  1.
<mgrwt>
<rscale>  0 0.27715233E+03</rscale>
<asrwt>0</asrwt>
<pdfrwt beam="1">  1       21 0.14506344E-01 0.27715233E+03</pdfrwt>
<pdfrwt beam="2">  1       21 0.31332309E-01 0.27715233E+03</pdfrwt>
<totfact> 0.40090765E+05</totfact>
</mgrwt>
</event>
<event>
 8    1  0.9175398E-006  0.3405197E+03  0.7546771E-02  0.1066575E+00
         21   -1    0    0  504  503  0.00000000000E+00  0.00000000000E+00  0.27591903261E+03  0.27591903261E+03  0.00000000000E+00 0. -1.
         21   -1    0    0  503  504 -0.00000000000E+00 -0.00000000000E+00 -0.10506128508E+03  0.10506128508E+03  0.00000000000E+00 0. -1.
         25    2    1    2    0    0  0.94847820373E+02 -0.13693203899E+02  0.15770300456E+03  0.22289877957E+03  0.12502006009E+03 0.  0.
         25    2    1    2    0    0 -0.94847820373E+02  0.13693203899E+02  0.13154742970E+02  0.15808153811E+03  0.12503244606E+03 0.  0.
          5    1    3    3  501    0  0.36447531923E+02  0.45519134115E+02  0.11560764077E+03  0.12956708979E+03  0.47000000000E+01 0. -1.
         -5    1    3    3    0  501  0.58400288450E+02 -0.59212338013E+02  0.42095363793E+02  0.93331689779E+02  0.47000000000E+01 0. -1.
          5    1    4    4  502    0 -0.56065134767E+02  0.35980514171E+02  0.62392491488E+02  0.91393707281E+02  0.47000000000E+01 0.  1.
         -5    1    4    4    0  502 -0.38782685606E+02 -0.22287310272E+02 -0.49237748518E+02  0.66687830833E+02  0.47000000000E+01 0.  1.
<mgrwt>
<rscale>  0 0.34051965E+03</rscale>
<asrwt>0</asrwt>
<pdfrwt beam="1">  1       21 0.42449082E-01 0.34051965E+03</pdfrwt>
<pdfrwt beam="2">  1       21 0.16163275E-01 0.34051965E+03</pdfrwt>
<totfact> 0.17573011E+05</totfact>
</mgrwt>
</event>
<event>
 8    1  0.9175398E-006  0.2722654E+03  0.7546771E-02  0.1099990E+00
         21   -1    0    0  504  503  0.00000000000E+00  0.00000000000E+00  0.33608876067E+03  0.33608876067E+03  0.00000000000E+00 0. -1.
         21   -1    0    0  503  504 -0.00000000000E+00 -0.00000000000E+00 -0.55140509807E+02  0.55140509807E+02  0.00000000000E+00 0. -1.
         25    2    1    2    0    0  0.19250883155E+02 -0.42384617455E+02  0.17957343179E+03  0.22369278628E+03  0.12499917171E+03 0.  0.
         25    2    1    2    0    0 -0.19250883155E+02  0.42384617455E+02  0.10137481907E+03  0.16753648419E+03  0.12499826917E+03 0.  0.
          5    1    3    3  501    0 -0.45608335860E+02  0.97452721469E+01  0.89125717439E+02  0.10070041777E+03  0.47000000000E+01 0.  1.
         -5    1    3    3    0  501  0.64859219016E+02 -0.52129889602E+02  0.90447714354E+02  0.12299236852E+03  0.47000000000E+01 0.  1.
          5    1    4    4  502    0  0.40769768142E+02  0.11445170013E+02  0.89073352374E+02  0.98738634861E+02  0.47000000000E+01 0. -1.
         -5    1    4    4    0  502 -0.60020651297E+02  0.30939447443E+02  0.12301466695E+02  0.68797849334E+02  0.47000000000E+01 0. -1.
<mgrwt>
<rscale>  0 0.27226535E+03</rscale>
<asrwt>0</asrwt>
<pdfrwt beam="1">  1       21 0.51705962E-01 0.27226535E+03</pdfrwt>
<pdfrwt beam="2">  1       21 0.84831555E-02 0.27226535E+03</pdfrwt>
<totfact> 0.37802709E+05</totfact>
</mgrwt>
</event>
<event>
 8    1  0.9175398E-006  0.3054516E+03  0.7546771E-02  0.1082547E+00
         21   -1    0    0  504  503  0.00000000000E+00  0.00000000000E+00  0.27652527339E+03  0.27652527339E+03  0.00000000000E+00 0. -1.
         21   -1    0    0  503  504 -0.00000000000E+00 -0.00000000000E+00 -0.84350948131E+02  0.84350948131E+02  0.00000000000E+00 0. -1.
         25    2    1    2    0    0 -0.11136584333E+02 -0.55433711420E+02  0.16839679719E+02  0.13822413357E+03  0.12500166566E+03 0.  0.
         25    2    1    2    0    0  0.11136584333E+02  0.55433711420E+02  0.17533464555E+03  0.22265208795E+03  0.12503917173E+03 0.  0.
          5    1    3    3  501    0  0.73095405827E+01 -0.22595525937E+02  0.69337383834E+02  0.73442153923E+02  0.47000000000E+01 0. -1.
         -5    1    3    3    0  501 -0.18446124916E+02 -0.32838185483E+02 -0.52497704115E+02  0.64781979652E+02  0.47000000000E+01 0. -1.
          5    1    4    4  502    0  0.62048599674E+02  0.53494773913E+02  0.80818719221E+02  0.11517584354E+03  0.47000000000E+01 0.  1.
         -5    1    4    4    0  502 -0.50912015341E+02  0.19389375070E+01  0.94515926324E+02  0.10747624442E+03  0.47000000000E+01 0.  1.
<mgrwt>
<rscale>  0 0.30545159E+03</rscale>
<asrwt>0</asrwt>
<pdfrwt beam="1">  1       21 0.42542349E-01 0.30545159E+03</pdfrwt>
<pdfrwt beam="2">  1       21 0.12977069E-01 0.30545159E+03</pdfrwt>
<totfact> 0.26373738E+05</totfact>
</mgrwt>
</event>
<event>
 8    1  0.9175398E-006  0.2581899E+03  0.7546771E-02  0.1108236E+00
         21   -1    0    0  504  503  0.00000000000E+00  0.00000000000E+00  0.38148066886E+02  0.38148066886E+02  0.00000000000E+00 0.  1.
         21   -1    0    0  503  504 -0.00000000000E+00 -0.00000000000E+00 -0.43686382395E+03  0.43686382395E+03  0.00000000000E+00 0.  1.
         25    2    1    2    0    0 -0.76546282741E+01 -0.22075417936E+02 -0.15844125146E+03  0.20316029122E+03  0.12499822540E+03 0.  0.
         25    2    1    2    0    0  0.76546282741E+01  0.22075417936E+02 -0.24027450561E+03  0.27185159962E+03  0.12500214701E+03 0.  0.
          5    1    3    3  501    0 -0.63950643596E+02  0.13207662204E+01 -0.63652568080E+02  0.90361322826E+02  0.47000000000E+01 0.  1.
         -5    1    3    3    0  501  0.56296015322E+02 -0.23396184157E+02 -0.94788683377E+02  0.11279896839E+03  0.47000000000E+01 0.  1.
          5    1    4    4  502    0 -0.87639762943E+01 -0.44388125532E+02 -0.41535296089E+02  0.61598569707E+02  0.47000000000E+01 0.  1.
         -5    1    4    4    0  502  0.16418604568E+02  0.66463543468E+02 -0.19873920952E+03  0.21025302991E+03  0.47000000000E+01 0.  1.
<mgrwt>
<rscale>  0 0.25818993E+03</rscale>
<asrwt>0</asrwt>
<pdfrwt beam="1">  1       21 0.58689335E-02 0.25818993E+03</pdfrwt>
<pdfrwt beam="2">  1       21 0.67209818E-01 0.25818993E+03</pdfrwt>
<totfact> 0.40867527E+05</totfact>
</mgrwt>
</event>
<event>
 8    1  0.9175398E-006  0.2515445E+03  0.7546771E-02  0.1112333E+00
         21   -1    0    0  504  503  0.00000000000E+00  0.00000000000E+00  0.39123134355E+02  0.39123134355E+02  0.00000000000E+00 0. -1.
         21   -1    0    0  503  504 -0.00000000000E+00 -0.00000000000E+00 -0.40433009123E+03  0.40433009123E+03  0.00000000000E+00 0. -1.
         25    2    1    2    0    0 -0.47955886834E+01  0.10289849036E+02 -0.19711968531E+03  0.23366913394E+03  0.12496485569E+03 0.  0.
         25    2    1    2    0    0  0.47955886834E+01 -0.10289849036E+02 -0.16808727156E+03  0.20978409164E+03  0.12500862202E+03 0.  0.
          5    1    3    3  501    0  0.33397669277E+02 -0.36181466290E+02 -0.14742941682E+03  0.15550570973E+03  0.47000000000E+01 0.  1.
         -5    1    3    3    0  501 -0.38193257961E+02  0.46471315326E+02 -0.49690268494E+02  0.78163424214E+02  0.47000000000E+01 0.  1.
          5    1    4    4  502    0  0.62283505237E+02  0.68772043066E+01 -0.10663283813E+03  0.12377068769E+03  0.47000000000E+01 0.  1.
         -5    1    4    4    0  502 -0.57487916554E+02 -0.17167053343E+02 -0.61454433431E+02  0.86013403947E+02  0.47000000000E+01 0.  1.
<mgrwt>
<rscale>  0 0.25154451E+03</rscale>
<asrwt>0</asrwt>
<pdfrwt beam="1">  1       21 0.60189438E-02 0.25154451E+03</pdfrwt>
<pdfrwt beam="2">  1       21 0.62204628E-01 0.25154451E+03</pdfrwt>
<totfact> 0.46420198E+05</totfact>
</mgrwt>
</event>
<event>
 8    1  0.9175398E-006  0.3488308E+03  0.7546771E-02  0.1063096E+00
         21   -1    0    0  504  503  0.00000000000E+00  0.00000000000E+00  0.68160138952E+03  0.68160138952E+03  0.00000000000E+00 0.  1.
         21   -1    0    0  503  504 -0.00000000000E+00 -0.00000000000E+00 -0.44631259308E+02  0.44631259308E+02  0.00000000000E+00 0.  1.
         25    2    1    2    0    0 -0.23535975006E+02  0.85121128885E+02  0.14430613280E+03  0.21034347463E+03  0.12498227335E+03 0.  0.
         25    2    1    2    0    0  0.23535975006E+02 -0.85121128885E+02  0.49266399741E+03  0.51588917420E+03  0.12499710801E+03 0.  0.
          5    1    3    3  501    0 -0.64015646353E+02  0.86907940726E+02  0.80999484486E+02  0.13503332784E+03  0.47000000000E+01 0.  1.
         -5    1    3    3    0  501  0.40479671347E+02 -0.17868118412E+01  0.63306648315E+02  0.75310146792E+02  0.47000000000E+01 0.  1.
          5    1    4    4  502    0  0.64609782391E+02 -0.61984241131E+02  0.19686248854E+03  0.21631782063E+03  0.47000000000E+01 0.  1.
         -5    1    4    4    0  502 -0.41073807386E+02 -0.23136887754E+02  0.29580150887E+03  0.29957135357E+03  0.47000000000E+01 0.  1.
<mgrwt>
<rscale>  0 0.34883078E+03</rscale>
<asrwt>0</asrwt>
<pdfrwt beam="1">  1       21 0.10486174E+00 0.34883078E+03</pdfrwt>
<pdfrwt beam="2">  1       21 0.68663481E-02 0.34883078E+03</pdfrwt>
<totfact> 0.10886902E+05</totfact>
</mgrwt>
</event>
<event>
 8    1  0.9175398E-006  0.3145773E+03  0.7546771E-02  0.1078172E+00
         21   -1    0    0  504  503  0.00000000000E+00  0.00000000000E+00  0.35205870716E+02  0.35205870716E+02  0.00000000000E+00 0. -1.
         21   -1    0    0  503  504 -0.00000000000E+00 -0.00000000000E+00 -0.70271593461E+03  0.70271593461E+03  0.00000000000E+00 0. -1.
         25    2    1    2    0    0  0.66546714219E+02 -0.54877929008E+02 -0.42973041308E+03  0.45577867324E+03  0.12500367508E+03 0.  0.
         25    2    1    2    0    0 -0.66546714219E+02  0.54877929008E+02 -0.23777965081E+03  0.28214313209E+03  0.12500212950E+03 0.  0.
          5    1    3    3  501    0  0.35642174486E+01  0.28206415923E+02 -0.21616206250E+03  0.21807437449E+03  0.47000000000E+01 0. -1.
         -5    1    3    3    0  501  0.62982496770E+02 -0.83084344931E+02 -0.21356835058E+03  0.23770429875E+03  0.47000000000E+01 0. -1.
          5    1    4    4  502    0 -0.29191061824E+02 -0.25870484102E+02 -0.14730101149E+02  0.41957906501E+02  0.47000000000E+01 0.  1.
         -5    1    4    4    0  502 -0.37355652395E+02  0.80748413111E+02 -0.22304954967E+03  0.24018522559E+03  0.47000000000E+01 0.  1.
<mgrwt>
<rscale>  0 0.31457734E+03</rscale>
<asrwt>0</asrwt>
<pdfrwt beam="1">  1       21 0.54162881E-02 0.31457734E+03</pdfrwt>
<pdfrwt beam="2">  1       21 0.10811014E+00 0.31457734E+03</pdfrwt>
<totfact> 0.15378266E+05</totfact>
</mgrwt>
</event>
<event>
 8    1  0.9175398E-006  0.9325059E+03  0.7546771E-02  0.9385835E-01
         21   -1    0    0  504  503  0.00000000000E+00  0.00000000000E+00  0.32373035787E+03  0.32373035787E+03  0.00000000000E+00 0. -1.
         21   -1    0    0  503  504 -0.00000000000E+00 -0.00000000000E+00 -0.67152123885E+03  0.67152123885E+03  0.00000000000E+00 0. -1.
         25    2    1    2    0    0 -0.21260422881E+03  0.34376665160E+03 -0.38300979491E+03  0.57070267687E+03  0.12501589309E+03 0.  0.
         25    2    1    2    0    0  0.21260422881E+03 -0.34376665160E+03  0.35218913935E+02  0.42454891985E+03  0.12500137835E+03 0.  0.
          5    1    3    3  501    0 -0.21915638235E+03  0.28003758143E+03 -0.29690776056E+03  0.46327839926E+03  0.47000000000E+01 0.  1.
         -5    1    3    3    0  501  0.65521535362E+01  0.63729070172E+02 -0.86102034352E+02  0.10742427761E+03  0.47000000000E+01 0.  1.
          5    1    4    4  502    0  0.17117598048E+03 -0.19532840301E+03  0.64406428370E+02  0.26762787473E+03  0.47000000000E+01 0. -1.
         -5    1    4    4    0  502  0.41428248332E+02 -0.14843824859E+03 -0.29187514435E+02  0.15692104513E+03  0.47000000000E+01 0. -1.
<mgrwt>
<rscale>  0 0.93250589E+03</rscale>
<asrwt>0</asrwt>
<pdfrwt beam="1">  1       21 0.49804672E-01 0.93250589E+03</pdfrwt>
<pdfrwt beam="2">  1       21 0.10331096E+00 0.93250589E+03</pdfrwt>
<totfact> 0.22469340E+03</totfact>
</mgrwt>
</event>
<event>
 8    1  0.9175398E-006  0.3510952E+03  0.7546771E-02  0.1062166E+00
         21   -1    0    0  504  503  0.00000000000E+00  0.00000000000E+00  0.55121511252E+02  0.55121511252E+02  0.00000000000E+00 0.  1.
         21   -1    0    0  503  504 -0.00000000000E+00 -0.00000000000E+00 -0.55907316695E+03  0.55907316695E+03  0.00000000000E+00 0.  1.
         25    2    1    2    0    0 -0.91518529140E+01 -0.30793579147E+01 -0.46693078215E+03  0.48347027146E+03  0.12500363680E+03 0.  0.
         25    2    1    2    0    0  0.91518529140E+01  0.30793579147E+01 -0.37020873547E+02  0.13072440674E+03  0.12500034633E+03 0.  0.
          5    1    3    3  501    0 -0.66906026192E+02  0.23512770990E+01 -0.24229688803E+03  0.25141960304E+03  0.47000000000E+01 0. -1.
         -5    1    3    3    0  501  0.57754173278E+02 -0.54306350137E+01 -0.22463389412E+03  0.23205066842E+03  0.47000000000E+01 0. -1.
          5    1    4    4  502    0  0.36413654190E+02  0.55240816244E+02 -0.19565118389E+02  0.69154796279E+02  0.47000000000E+01 0. -1.
         -5    1    4    4    0  502 -0.27261801277E+02 -0.52161458329E+02 -0.17455755159E+02  0.61569610459E+02  0.47000000000E+01 0. -1.
<mgrwt>
<rscale>  0 0.35109519E+03</rscale>
<asrwt>0</asrwt>
<pdfrwt beam="1">  1       21 0.84802327E-02 0.35109519E+03</pdfrwt>
<pdfrwt beam="2">  1       21 0.86011254E-01 0.35109519E+03</pdfrwt>
<totfact> 0.12039657E+05</totfact>
</mgrwt>
</event>
<event>
 8    1  0.9175398E-006  0.2708707E+03  0.7546771E-02  0.1100782E+00
         21   -1    0    0  504  503  0.00000000000E+00  0.00000000000E+00  0.46244159391E+02  0.46244159391E+02  0.00000000000E+00 0. -1.
         21   -1    0    0  503  504 -0.00000000000E+00 -0.00000000000E+00 -0.39664987077E+03  0.39664987077E+03  0.00000000000E+00 0. -1.
         25    2    1    2    0    0  0.19094316541E+00 -0.51830978393E+02 -0.16610994471E+03  0.21425371729E+03  0.12500261941E+03 0.  0.
         25    2    1    2    0    0 -0.19094316541E+00  0.51830978393E+02 -0.18429576667E+03  0.22864031287E+03  0.12499990511E+03 0.  0.
          5    1    3    3  501    0 -0.53799652753E+02 -0.37984597908E+02 -0.42349744499E+02  0.78439933540E+02  0.47000000000E+01 0.  1.
         -5    1    3    3    0  501  0.53990595919E+02 -0.13846380485E+02 -0.12376020021E+03  0.13581378375E+03  0.47000000000E+01 0.  1.
          5    1    4    4  502    0  0.61581362135E+02  0.29810550765E+02 -0.80238820933E+02  0.10555231634E+03  0.47000000000E+01 0.  1.
         -5    1    4    4    0  502 -0.61772305300E+02  0.22020427628E+02 -0.10405694574E+03  0.12308799654E+03  0.47000000000E+01 0.  1.
<mgrwt>
<rscale>  0 0.27087074E+03</rscale>
<asrwt>0</asrwt>
<pdfrwt beam="1">  1       21 0.71144859E-02 0.27087074E+03</pdfrwt>
<pdfrwt beam="2">  1       21 0.61023059E-01 0.27087074E+03</pdfrwt>
<totfact> 0.36085313E+05</totfact>
</mgrwt>
</event>
<event>
 8    1  0.9175398E-006  0.3017196E+03  0.7546771E-02  0.1084384E+00
         21   -1    0    0  504  503  0.00000000000E+00  0.00000000000E+00  0.61021854876E+02  0.61021854876E+02  0.00000000000E+00 0.  1.
         21   -1    0    0  503  504 -0.00000000000E+00 -0.00000000000E+00 -0.37295948145E+03  0.37295948145E+03  0.00000000000E+00 0.  1.
         25    2    1    2    0    0 -0.50868623067E+02  0.65645858226E+02 -0.13398425901E+03  0.20118065584E+03  0.12499951642E+03 0.  0.
         25    2    1    2    0    0  0.50868623067E+02 -0.65645858226E+02 -0.17795336756E+03  0.23280068048E+03  0.12502703825E+03 0.  0.
          5    1    3    3  501    0 -0.16091984570E+02 -0.24142411734E+02 -0.91000660838E+02  0.95629588960E+02  0.47000000000E+01 0. -1.
         -5    1    3    3    0  501 -0.34776638497E+02  0.89788269960E+02 -0.42983598173E+02  0.10555106688E+03  0.47000000000E+01 0. -1.
          5    1    4    4  502    0  0.83671112072E+02 -0.11804402883E+02 -0.81631747753E+02  0.11758414504E+03  0.47000000000E+01 0.  1.
         -5    1    4    4    0  502 -0.32802489005E+02 -0.53841455343E+02 -0.96321619808E+02  0.11521653545E+03  0.47000000000E+01 0.  1.
<mgrwt>
<rscale>  0 0.30171960E+03</rscale>
<asrwt>0</asrwt>
<pdfrwt beam="1">  1       21 0.93879777E-02 0.30171960E+03</pdfrwt>
<pdfrwt beam="2">  1       21 0.57378381E-01 0.30171960E+03</pdfrwt>
<totfact> 0.25154613E+05</totfact>
</mgrwt>
</event>
<event>
 8    1  0.9175398E-006  0.3744120E+03  0.7546771E-02  0.1053019E+00
         21   -1    0    0  504  503  0.00000000000E+00  0.00000000000E+00  0.49674648661E+02  0.49674648661E+02  0.00000000000E+00 0.  1.
         21   -1    0    0  503  504 -0.00000000000E+00 -0.00000000000E+00 -0.70551249420E+03  0.70551249420E+03  0.00000000000E+00 0.  1.
         25    2    1    2    0    0  0.39491952662E+02  0.17125814941E+02 -0.59527148475E+03  0.60977435442E+03  0.12499485944E+03 0.  0.
         25    2    1    2    0    0 -0.39491952662E+02 -0.17125814941E+02 -0.60566360786E+02  0.14541278844E+03  0.12499474837E+03 0.  0.
          5    1    3    3  501    0 -0.44976905563E+02 -0.19897462542E+01 -0.18844628660E+03  0.19380653771E+03  0.47000000000E+01 0.  1.
         -5    1    3    3    0  501  0.84468858225E+02  0.19115561195E+02 -0.40682519815E+03  0.41596781671E+03  0.47000000000E+01 0.  1.
          5    1    4    4  502    0 -0.72784707390E+02 -0.10025399977E+02  0.24200122168E+01  0.73661853993E+02  0.47000000000E+01 0. -1.
         -5    1    4    4    0  502  0.33292754728E+02 -0.71004149638E+01 -0.62986373003E+02  0.71750934448E+02  0.47000000000E+01 0. -1.
<mgrwt>
<rscale>  0 0.37441199E+03</rscale>
<asrwt>0</asrwt>
<pdfrwt beam="1">  1       21 0.76422541E-02 0.37441199E+03</pdfrwt>
<pdfrwt beam="2">  1       21 0.10854038E+00 0.37441199E+03</pdfrwt>
<totfact> 0.82378202E+04</totfact>
</mgrwt>
</event>
<event>
 8    1  0.9175398E-006  0.5238414E+03  0.7546771E-02  0.1007737E+00
         21   -1    0    0  504  503  0.00000000000E+00  0.00000000000E+00  0.46183260102E+03  0.46183260102E+03  0.00000000000E+00 0. -1.
         21   -1    0    0  503  504 -0.00000000000E+00 -0.00000000000E+00 -0.14854400749E+03  0.14854400749E+03  0.00000000000E+00 0. -1.
         25    2    1    2    0    0  0.97097451460E+01 -0.11767830465E+03  0.38685000069E+03  0.42334336711E+03  0.12499688356E+03 0.  0.
         25    2    1    2    0    0 -0.97097451460E+01  0.11767830465E+03 -0.73561407163E+02  0.18703324141E+03  0.12501076047E+03 0.  0.
          5    1    3    3  501    0  0.51782313317E+02 -0.10808721584E+03  0.21602143842E+03  0.24708623203E+03  0.47000000000E+01 0. -1.
         -5    1    3    3    0  501 -0.42072568171E+02 -0.95910888067E+01  0.17082856227E+03  0.17625713507E+03  0.47000000000E+01 0. -1.
          5    1    4    4  502    0 -0.45125495620E+01  0.97651946296E+02  0.12254620315E+02  0.98633318093E+02  0.47000000000E+01 0.  1.
         -5    1    4    4    0  502 -0.51971955840E+01  0.20026358355E+02 -0.85816027478E+02  0.88399923320E+02  0.47000000000E+01 0.  1.
<mgrwt>
<rscale>  0 0.52384145E+03</rscale>
<asrwt>0</asrwt>
<pdfrwt beam="1">  1       21 0.71051169E-01 0.52384145E+03</pdfrwt>
<pdfrwt beam="2">  1       21 0.22852924E-01 0.52384145E+03</pdfrwt>
<totfact> 0.28845768E+04</totfact>
</mgrwt>
</event>
<event>
 8    1  0.9175398E-006  0.2589426E+03  0.7546771E-02  0.1107780E+00
         21   -1    0    0  504  503  0.00000000000E+00  0.00000000000E+00  0.15798779628E+03  0.15798779628E+03  0.00000000000E+00 0. -1.
         21   -1    0    0  503  504 -0.00000000000E+00 -0.00000000000E+00 -0.10610198921E+03  0.10610198921E+03  0.00000000000E+00 0. -1.
         25    2    1    2    0    0  0.17265105886E+02 -0.22452361795E+02  0.72594601664E+01  0.12837507788E+03  0.12500107371E+03 0.  0.
         25    2    1    2    0    0 -0.17265105886E+02  0.22452361795E+02  0.44626346907E+02  0.13571470761E+03  0.12499911437E+03 0.  0.
          5    1    3    3  501    0 -0.46421195030E+01  0.50531531488E+02  0.10202226263E+02  0.51972688681E+02  0.47000000000E+01 0. -1.
         -5    1    3    3    0  501  0.21907225389E+02 -0.72983893283E+02 -0.29427660965E+01  0.76402389199E+02  0.47000000000E+01 0. -1.
          5    1    4    4  502    0 -0.23180769373E+02  0.77252011073E+01  0.86859840419E+02  0.90353465227E+02  0.47000000000E+01 0. -1.
         -5    1    4    4    0  502  0.59156634871E+01  0.14727160687E+02 -0.42233493512E+02  0.45361242385E+02  0.47000000000E+01 0. -1.
<mgrwt>
<rscale>  0 0.25894261E+03</rscale>
<asrwt>0</asrwt>
<pdfrwt beam="1">  1       21 0.24305815E-01 0.25894261E+03</pdfrwt>
<pdfrwt beam="2">  1       21 0.16323383E-01 0.25894261E+03</pdfrwt>
<totfact> 0.53060122E+05</totfact>
</mgrwt>
</event>
<event>
 8    1  0.9175398E-006  0.3152553E+03  0.7546771E-02  0.1077854E+00
         21   -1    0    0  504  503  0.00000000000E+00  0.00000000000E+00  0.95441414769E+02  0.95441414769E+02  0.00000000000E+00 0.  1.
         21   -1    0    0  503  504 -0.00000000000E+00 -0.00000000000E+00 -0.26033229297E+03  0.26033229297E+03  0.00000000000E+00 0.  1.
         25    2    1    2    0    0  0.42516539553E+02 -0.18193761901E+02 -0.17738341654E+03  0.22187479532E+03  0.12499951691E+03 0.  0.
         25    2    1    2    0    0 -0.42516539553E+02  0.18193761901E+02  0.12492538342E+02  0.13389891241E+03  0.12503673910E+03 0.  0.
          5    1    3    3  501    0 -0.14184545380E+02 -0.49495406131E+01 -0.16021643037E+03  0.16098786861E+03  0.47000000000E+01 0. -1.
         -5    1    3    3    0  501  0.56701084933E+02 -0.13244221288E+02 -0.17166986171E+02  0.60886926711E+02  0.47000000000E+01 0. -1.
          5    1    4    4  502    0  0.27291722237E+02 -0.39486287534E+01  0.45515702740E+02  0.53424703720E+02  0.47000000000E+01 0.  1.
         -5    1    4    4    0  502 -0.69808261790E+02  0.22142390654E+02 -0.33023164398E+02  0.80474208694E+02  0.47000000000E+01 0.  1.
<mgrwt>
<rscale>  0 0.31525534E+03</rscale>
<asrwt>0</asrwt>
<pdfrwt beam="1">  1       21 0.14683295E-01 0.31525534E+03</pdfrwt>
<pdfrwt beam="2">  1       21 0.40051121E-01 0.31525534E+03</pdfrwt>
<totfact> 0.23768790E+05</totfact>
</mgrwt>
</event>
<event>
 8    1  0.9175398E-006  0.3629385E+03  0.7546771E-02  0.1057426E+00
         21   -1    0    0  504  503  0.00000000000E+00  0.00000000000E+00  0.42588613231E+02  0.42588613231E+02  0.00000000000E+00 0.  1.
         21   -1    0    0  503  504 -0.00000000000E+00 -0.00000000000E+00 -0.77323701257E+03  0.77323701257E+03  0.00000000000E+00 0.  1.
         25    2    1    2    0    0 -0.96777633772E+02 -0.37107176762E+02 -0.54725129524E+03  0.57083291021E+03  0.12499351294E+03 0.  0.
         25    2    1    2    0    0  0.96777633772E+02  0.37107176762E+02 -0.18339710410E+03  0.24499271559E+03  0.12507629645E+03 0.  0.
          5    1    3    3  501    0 -0.92761346205E+02 -0.64285855997E+02 -0.51898520348E+03  0.53113564187E+03  0.47000000000E+01 0. -1.
         -5    1    3    3    0  501 -0.40162875666E+01  0.27178679235E+02 -0.28266091758E+02  0.39697268344E+02  0.47000000000E+01 0. -1.
          5    1    4    4  502    0  0.33690349161E+02  0.74643908453E+02 -0.61126413793E+02  0.10229995679E+03  0.47000000000E+01 0. -1.
         -5    1    4    4    0  502  0.63087284611E+02 -0.37536731691E+02 -0.12227069031E+03  0.14269275880E+03  0.47000000000E+01 0. -1.
<mgrwt>
<rscale>  0 0.36293852E+03</rscale>
<asrwt>0</asrwt>
<pdfrwt beam="1">  1       21 0.65520945E-02 0.36293852E+03</pdfrwt>
<pdfrwt beam="2">  1       21 0.11895954E+00 0.36293852E+03</pdfrwt>
<totfact> 0.86176246E+04</totfact>
</mgrwt>
</event>
<event>
 8    1  0.9175398E-006  0.3441354E+03  0.7546771E-02  0.1065048E+00
         21   -1    0    0  504  503  0.00000000000E+00  0.00000000000E+00  0.91697010573E+02  0.91697010573E+02  0.00000000000E+00 0.  1.
         21   -1    0    0  503  504 -0.00000000000E+00 -0.00000000000E+00 -0.32288180317E+03  0.32288180317E+03  0.00000000000E+00 0.  1.
         25    2    1    2    0    0  0.67169949440E+02 -0.83001468669E+02 -0.54353926329E+02  0.17314727492E+03  0.12499833437E+03 0.  0.
         25    2    1    2    0    0 -0.67169949440E+02  0.83001468669E+02 -0.17683086627E+03  0.24143153883E+03  0.12497594474E+03 0.  0.
          5    1    3    3  501    0  0.74201649586E+02 -0.11007712337E+03 -0.57225313182E+02  0.14463638671E+03  0.47000000000E+01 0.  1.
         -5    1    3    3    0  501 -0.70317001460E+01  0.27075654700E+02  0.28713868534E+01  0.28510888216E+02  0.47000000000E+01 0.  1.
          5    1    4    4  502    0 -0.55412998262E+02  0.37297339372E+02 -0.18180651656E+03  0.19374568734E+03  0.47000000000E+01 0.  1.
         -5    1    4    4    0  502 -0.11756951178E+02  0.45704129297E+02  0.49756502884E+01  0.47685851482E+02  0.47000000000E+01 0.  1.
<mgrwt>
<rscale>  0 0.34413542E+03</rscale>
<asrwt>0</asrwt>
<pdfrwt beam="1">  1       21 0.14107232E-01 0.34413542E+03</pdfrwt>
<pdfrwt beam="2">  1       21 0.49674124E-01 0.34413542E+03</pdfrwt>
<totfact> 0.16256239E+05</totfact>
</mgrwt>
</event>
<event>
 8    1  0.9175398E-006  0.2846924E+03  0.7546771E-02  0.1093153E+00
         21   -1    0    0  504  503  0.00000000000E+00  0.00000000000E+00  0.30304179028E+02  0.30304179028E+02  0.00000000000E+00 0.  1.
         21   -1    0    0  503  504 -0.00000000000E+00 -0.00000000000E+00 -0.66863521320E+03  0.66863521320E+03  0.00000000000E+00 0.  1.
         25    2    1    2    0    0  0.48798864750E+01 -0.88536088220E+01 -0.48454327920E+03  0.50050767906E+03  0.12499419067E+03 0.  0.
         25    2    1    2    0    0 -0.48798864750E+01  0.88536088220E+01 -0.15378775498E+03  0.19843171317E+03  0.12498908564E+03 0.  0.
          5    1    3    3  501    0  0.30084325855E+02  0.42288706817E+02 -0.35619481051E+03  0.35998643644E+03  0.47000000000E+01 0. -1.
         -5    1    3    3    0  501 -0.25204439380E+02 -0.51142315639E+02 -0.12834846869E+03  0.14052124262E+03  0.47000000000E+01 0. -1.
          5    1    4    4  502    0  0.17100834695E+02 -0.17060068391E+02 -0.16142329876E+03  0.16328826003E+03  0.47000000000E+01 0.  1.
         -5    1    4    4    0  502 -0.21980721170E+02  0.25913677213E+02  0.76355437822E+01  0.35143453141E+02  0.47000000000E+01 0.  1.
<mgrwt>
<rscale>  0 0.28469240E+03</rscale>
<asrwt>0</asrwt>
<pdfrwt beam="1">  1       21 0.46621816E-02 0.28469240E+03</pdfrwt>
<pdfrwt beam="2">  1       21 0.10286695E+00 0.28469240E+03</pdfrwt>
<totfact> 0.22608052E+05</totfact>
</mgrwt>
</event>
<event>
 8    1  0.9175398E-006  0.3560132E+03  0.7546771E-02  0.1060174E+00
         21   -1    0    0  504  503  0.00000000000E+00  0.00000000000E+00  0.99757420694E+02  0.99757420694E+02  0.00000000000E+00 0. -1.
         21   -1    0    0  503  504 -0.00000000000E+00 -0.00000000000E+00 -0.31763398580E+03  0.31763398580E+03  0.00000000000E+00 0. -1.
         25    2    1    2    0    0 -0.90392377602E+02  0.73366785820E+02 -0.16764110845E+03  0.23933759570E+03  0.12500190512E+03 0.  0.
         25    2    1    2    0    0  0.90392377602E+02 -0.73366785820E+02 -0.50235456659E+02  0.17805381079E+03  0.12500436489E+03 0.  0.
          5    1    3    3  501    0 -0.92343503646E+02  0.10286705536E+03 -0.15217967187E+03  0.20564458728E+03  0.47000000000E+01 0.  1.
         -5    1    3    3    0  501  0.19511260434E+01 -0.29500269542E+02 -0.15461436577E+02  0.33693008428E+02  0.47000000000E+01 0.  1.
          5    1    4    4  502    0  0.10163104495E+02 -0.51701556096E+02  0.31358108887E+02  0.61496020918E+02  0.47000000000E+01 0. -1.
         -5    1    4    4    0  502  0.80229273107E+02 -0.21665229724E+02 -0.81593565546E+02  0.11655778988E+03  0.47000000000E+01 0. -1.
<mgrwt>
<rscale>  0 0.35601319E+03</rscale>
<asrwt>0</asrwt>
<pdfrwt beam="1">  1       21 0.15347295E-01 0.35601319E+03</pdfrwt>
<pdfrwt beam="2">  1       21 0.48866768E-01 0.35601319E+03</pdfrwt>
<totfact> 0.14372339E+05</totfact>
</mgrwt>
</event>
<event>
 8    1  0.9175398E-006  0.3079336E+03  0.7546771E-02  0.1081341E+00
         21   -1    0    0  504  503  0.00000000000E+00  0.00000000000E+00  0.16845805466E+02  0.16845805466E+02  0.00000000000E+00 0.  1.
         21   -1    0    0  503  504 -0.00000000000E+00 -0.00000000000E+00 -0.14072211779E+04  0.14072211779E+04  0.00000000000E+00 0.  1.
         25    2    1    2    0    0  0.24859704289E+02  0.72587207689E+02 -0.91180366361E+03  0.92352475656E+03  0.12500058957E+03 0.  0.
         25    2    1    2    0    0 -0.24859704289E+02 -0.72587207689E+02 -0.47857170879E+03  0.50054222677E+03  0.12499893083E+03 0.  0.
          5    1    3    3  501    0  0.29633952924E+02 -0.22944024792E+02 -0.11635826311E+03  0.12233533763E+03  0.47000000000E+01 0.  1.
         -5    1    3    3    0  501 -0.47742486353E+01  0.95531232481E+02 -0.79544540050E+03  0.80118941893E+03  0.47000000000E+01 0.  1.
          5    1    4    4  502    0  0.23663137221E+02 -0.24563084869E+02 -0.37392690682E+03  0.37550860289E+03  0.47000000000E+01 0. -1.
         -5    1    4    4    0  502 -0.48522841510E+02 -0.48024122820E+02 -0.10464480197E+03  0.12503362388E+03  0.47000000000E+01 0. -1.
<mgrwt>
<rscale>  0 0.30793359E+03</rscale>
<asrwt>0</asrwt>
<pdfrwt beam="1">  1       21 0.25916625E-02 0.30793359E+03</pdfrwt>
<pdfrwt beam="2">  1       21 0.21649556E+00 0.30793359E+03</pdfrwt>
<totfact> 0.80217273E+04</totfact>
</mgrwt>
</event>
<event>
 8    1  0.9175398E-006  0.3258225E+03  0.7546771E-02  0.1073000E+00
         21   -1    0    0  504  503  0.00000000000E+00  0.00000000000E+00  0.49938131964E+03  0.49938131964E+03  0.00000000000E+00 0.  1.
         21   -1    0    0  503  504 -0.00000000000E+00 -0.00000000000E+00 -0.53145926886E+02  0.53145926886E+02  0.00000000000E+00 0.  1.
         25    2    1    2    0    0  0.27648635903E+02  0.51862274314E+01  0.52496618452E+02  0.13846658568E+03  0.12500302548E+03 0.  0.
         25    2    1    2    0    0 -0.27648635903E+02 -0.51862274314E+01  0.39373877430E+03  0.41406066085E+03  0.12499865779E+03 0.  0.
          5    1    3    3  501    0  0.75813473629E+02  0.17172214666E+02  0.26653455029E+02  0.82310779398E+02  0.47000000000E+01 0. -1.
         -5    1    3    3    0  501 -0.48164837726E+02 -0.11985987234E+02  0.25843163423E+02  0.56155806279E+02  0.47000000000E+01 0. -1.
          5    1    4    4  502    0 -0.15513098831E+02  0.47359504024E+02  0.31220585707E+03  0.31619324162E+03  0.47000000000E+01 0. -1.
         -5    1    4    4    0  502 -0.12135537072E+02 -0.52545731455E+02  0.81532917235E+02  0.97867419232E+02  0.47000000000E+01 0. -1.
<mgrwt>
<rscale>  0 0.32582255E+03</rscale>
<asrwt>0</asrwt>
<pdfrwt beam="1">  1       21 0.76827892E-01 0.32582255E+03</pdfrwt>
<pdfrwt beam="2">  1       21 0.81762968E-02 0.32582255E+03</pdfrwt>
<totfact> 0.16750972E+05</totfact>
</mgrwt>
</event>
<event>
 8    1  0.9175398E-006  0.3379731E+03  0.7546771E-02  0.1067662E+00
         21   -1    0    0  504  503  0.00000000000E+00  0.00000000000E+00  0.76423018088E+03  0.76423018088E+03  0.00000000000E+00 0. -1.
         21   -1    0    0  503  504 -0.00000000000E+00 -0.00000000000E+00 -0.37366303669E+02  0.37366303669E+02  0.00000000000E+00 0. -1.
         25    2    1    2    0    0  0.73542598669E+02  0.59838862984E+02  0.51235704681E+03  0.53584009577E+03  0.12500264590E+03 0.  0.
         25    2    1    2    0    0 -0.73542598669E+02 -0.59838862984E+02  0.21450683040E+03  0.26575638878E+03  0.12499629812E+03 0.  0.
          5    1    3    3  501    0  0.71915307209E+02  0.50756446795E+02  0.15483750605E+03  0.17817062491E+03  0.47000000000E+01 0. -1.
         -5    1    3    3    0  501  0.16272914595E+01  0.90824161890E+01  0.35751954076E+03  0.35766947086E+03  0.47000000000E+01 0. -1.
          5    1    4    4  502    0  0.12070891865E+02 -0.68727226586E+02  0.83305546335E+02  0.10877059416E+03  0.47000000000E+01 0. -1.
         -5    1    4    4    0  502 -0.85613490534E+02  0.88883636011E+01  0.13120128407E+03  0.15698579461E+03  0.47000000000E+01 0. -1.
<mgrwt>
<rscale>  0 0.33797312E+03</rscale>
<asrwt>0</asrwt>
<pdfrwt beam="1">  1       21 0.11757386E+00 0.33797312E+03</pdfrwt>
<pdfrwt beam="2">  1       21 0.57486627E-02 0.33797312E+03</pdfrwt>
<totfact> 0.11210565E+05</totfact>
</mgrwt>
</event>
<event>
 8    1  0.9175398E-006  0.3159488E+03  0.7546771E-02  0.1077529E+00
         21   -1    0    0  504  503  0.00000000000E+00  0.00000000000E+00  0.17783021083E+02  0.17783021083E+02  0.00000000000E+00 0. -1.
         21   -1    0    0  503  504 -0.00000000000E+00 -0.00000000000E+00 -0.14033558615E+04  0.14033558615E+04  0.00000000000E+00 0. -1.
         25    2    1    2    0    0 -0.39922324418E+02 -0.77395099670E+02 -0.50479087752E+03  0.52727828001E+03  0.12499904441E+03 0.  0.
         25    2    1    2    0    0  0.39922324418E+02  0.77395099670E+02 -0.88078196290E+03  0.89386060257E+03  0.12500446883E+03 0.  0.
          5    1    3    3  501    0 -0.76385234303E+02 -0.85369498926E+02 -0.37288911745E+03  0.39011669957E+03  0.47000000000E+01 0. -1.
         -5    1    3    3    0  501  0.36462909885E+02  0.79743992563E+01 -0.13190176007E+03  0.13716158044E+03  0.47000000000E+01 0. -1.
          5    1    4    4  502    0  0.64192700156E+02  0.13247943040E+02 -0.64274120502E+03  0.64609175616E+03  0.47000000000E+01 0. -1.
         -5    1    4    4    0  502 -0.24270375738E+02  0.64147156630E+02 -0.23804075788E+03  0.24776884642E+03  0.47000000000E+01 0. -1.
<mgrwt>
<rscale>  0 0.31594877E+03</rscale>
<asrwt>0</asrwt>
<pdfrwt beam="1">  1       21 0.27358489E-02 0.31594877E+03</pdfrwt>
<pdfrwt beam="2">  1       21 0.21590094E+00 0.31594877E+03</pdfrwt>
<totfact> 0.73705631E+04</totfact>
</mgrwt>
</event>
<event>
 8    1  0.9175398E-006  0.2818285E+03  0.7546771E-02  0.1094694E+00
         21   -1    0    0  504  503  0.00000000000E+00  0.00000000000E+00  0.10282666679E+04  0.10282666679E+04  0.00000000000E+00 0. -1.
         21   -1    0    0  503  504 -0.00000000000E+00 -0.00000000000E+00 -0.19310970310E+02  0.19310970310E+02  0.00000000000E+00 0. -1.
         25    2    1    2    0    0 -0.24960976411E+02 -0.39932252141E+02  0.67130691955E+03  0.68446756092E+03  0.12500090647E+03 0.  0.
         25    2    1    2    0    0  0.24960976411E+02  0.39932252141E+02  0.33764877800E+03  0.36311007725E+03  0.12499838322E+03 0.  0.
          5    1    3    3  501    0 -0.72110896443E+02 -0.37236339656E+02  0.32943365964E+03  0.33931571211E+03  0.47000000000E+01 0. -1.
         -5    1    3    3    0  501  0.47149920032E+02 -0.26959124855E+01  0.34187325991E+03  0.34515184882E+03  0.47000000000E+01 0. -1.
          5    1    4    4  502    0  0.38679223402E+02 -0.28170918281E+02  0.60130320285E+02  0.76989793982E+02  0.47000000000E+01 0. -1.
         -5    1    4    4    0  502 -0.13718246991E+02  0.68103170422E+02  0.27751845772E+03  0.28612028327E+03  0.47000000000E+01 0. -1.
<mgrwt>
<rscale>  0 0.28182851E+03</rscale>
<asrwt>0</asrwt>
<pdfrwt beam="1">  1       21 0.15819483E+00 0.28182851E+03</pdfrwt>
<pdfrwt beam="2">  1       21 0.29709193E-02 0.28182851E+03</pdfrwt>
<totfact> 0.16114891E+05</totfact>
</mgrwt>
</event>
<event>
 8    1  0.9175398E-006  0.3046038E+03  0.7546771E-02  0.1082962E+00
         21   -1    0    0  504  503  0.00000000000E+00  0.00000000000E+00  0.61494039613E+03  0.61494039613E+03  0.00000000000E+00 0. -1.
         21   -1    0    0  503  504 -0.00000000000E+00 -0.00000000000E+00 -0.37720507070E+02  0.37720507070E+02  0.00000000000E+00 0. -1.
         25    2    1    2    0    0  0.63818596029E+02 -0.24170449276E+02  0.40427610591E+03  0.42862702709E+03  0.12499973889E+03 0.  0.
         25    2    1    2    0    0 -0.63818596029E+02  0.24170449276E+02  0.17294378314E+03  0.22403387611E+03  0.12499840678E+03 0.  0.
          5    1    3    3  501    0 -0.44916931125E+01  0.43137455912E+02  0.90072583453E+02  0.10008084582E+03  0.47000000000E+01 0. -1.
         -5    1    3    3    0  501  0.68310289142E+02 -0.67307905188E+02  0.31420352246E+03  0.32854618128E+03  0.47000000000E+01 0. -1.
          5    1    4    4  502    0 -0.12662927209E+02 -0.45866096526E+02  0.29016960274E+02  0.55929621128E+02  0.47000000000E+01 0.  1.
         -5    1    4    4    0  502 -0.51155668820E+02  0.70036545802E+02  0.14392682287E+03  0.16810425498E+03  0.47000000000E+01 0.  1.
<mgrwt>
<rscale>  0 0.30460377E+03</rscale>
<asrwt>0</asrwt>
<pdfrwt beam="1">  1       21 0.94606207E-01 0.30460377E+03</pdfrwt>
<pdfrwt beam="2">  1       21 0.58031554E-02 0.30460377E+03</pdfrwt>
<totfact> 0.18885880E+05</totfact>
</mgrwt>
</event>
<event>
 8    1  0.9175398E-006  0.2575047E+03  0.7546771E-02  0.1108652E+00
         21   -1    0    0  504  503  0.00000000000E+00  0.00000000000E+00  0.18543833015E+03  0.18543833015E+03  0.00000000000E+00 0. -1.
         21   -1    0    0  503  504 -0.00000000000E+00 -0.00000000000E+00 -0.89394504538E+02  0.89394504538E+02  0.00000000000E+00 0. -1.
         25    2    1    2    0    0  0.36270342135E+00 -0.26441409537E+02  0.31040021552E+02  0.13148133374E+03  0.12499831396E+03 0.  0.
         25    2    1    2    0    0 -0.36270342135E+00  0.26441409537E+02  0.65003804062E+02  0.14335150095E+03  0.12499951436E+03 0.  0.
          5    1    3    3  501    0  0.18370030127E+02 -0.31527175103E+02  0.74965025083E+02  0.83506082189E+02  0.47000000000E+01 0.  1.
         -5    1    3    3    0  501 -0.18007326706E+02  0.50857655661E+01 -0.43925003531E+02  0.47975251554E+02  0.47000000000E+01 0.  1.
          5    1    4    4  502    0 -0.15381516654E+02 -0.44331165435E+02  0.18392044643E+01  0.47194448364E+02  0.47000000000E+01 0. -1.
         -5    1    4    4    0  502  0.15018813232E+02  0.70772574972E+02  0.63164599597E+02  0.96157052582E+02  0.47000000000E+01 0. -1.
<mgrwt>
<rscale>  0 0.25750470E+03</rscale>
<asrwt>0</asrwt>
<pdfrwt beam="1">  1       21 0.28528974E-01 0.25750470E+03</pdfrwt>
<pdfrwt beam="2">  1       21 0.13753001E-01 0.25750470E+03</pdfrwt>
<totfact> 0.53303828E+05</totfact>
</mgrwt>
</event>
<event>
 8    1  0.9175398E-006  0.4514382E+03  0.7546771E-02  0.1027294E+00
         21   -1    0    0  504  503  0.00000000000E+00  0.00000000000E+00  0.41240241656E+02  0.41240241656E+02  0.00000000000E+00 0. -1.
         21   -1    0    0  503  504 -0.00000000000E+00 -0.00000000000E+00 -0.12354221884E+04  0.12354221884E+04  0.00000000000E+00 0. -1.
         25    2    1    2    0    0 -0.18629589892E+03 -0.23003384106E+02 -0.62378168207E+03  0.66329676923E+03  0.12499479807E+03 0.  0.
         25    2    1    2    0    0  0.18629589892E+03  0.23003384106E+02 -0.57040026462E+03  0.61336566078E+03  0.12500261719E+03 0.  0.
          5    1    3    3  501    0 -0.15523680601E+03 -0.52529068351E+02 -0.35438233111E+03  0.39046983951E+03  0.47000000000E+01 0. -1.
         -5    1    3    3    0  501 -0.31059092915E+02  0.29525684244E+02 -0.26939935097E+03  0.27282692973E+03  0.47000000000E+01 0. -1.
          5    1    4    4  502    0  0.16549813074E+03  0.61793081089E+02 -0.49888624194E+03  0.52926136128E+03  0.47000000000E+01 0.  1.
         -5    1    4    4    0  502  0.20797768179E+02 -0.38789696983E+02 -0.71514022680E+02  0.84104299492E+02  0.47000000000E+01 0.  1.
<mgrwt>
<rscale>  0 0.45143819E+03</rscale>
<asrwt>0</asrwt>
<pdfrwt beam="1">  1       21 0.63446530E-02 0.45143819E+03</pdfrwt>
<pdfrwt beam="2">  1       21 0.19006494E+00 0.45143819E+03</pdfrwt>
<totfact> 0.24776290E+04</totfact>
</mgrwt>
</event>
<event>
 8    1  0.9175398E-006  0.3208889E+03  0.7546771E-02  0.1075241E+00
         21   -1    0    0  504  503  0.00000000000E+00  0.00000000000E+00  0.69480668784E+02  0.69480668784E+02  0.00000000000E+00 0.  1.
         21   -1    0    0  503  504 -0.00000000000E+00 -0.00000000000E+00 -0.37049761774E+03  0.37049761774E+03  0.00000000000E+00 0.  1.
         25    2    1    2    0    0 -0.58902343702E+02 -0.24612341461E+02 -0.25708658786E+03  0.29290657308E+03  0.12500197380E+03 0.  0.
         25    2    1    2    0    0  0.58902343702E+02  0.24612341461E+02 -0.43930361102E+02  0.14707171344E+03  0.12499983529E+03 0.  0.
          5    1    3    3  501    0 -0.61934629678E+02 -0.49377847136E+02 -0.25542155463E+03  0.26746276509E+03  0.47000000000E+01 0.  1.
         -5    1    3    3    0  501  0.30322859761E+01  0.24765505675E+02 -0.16650332298E+01  0.25443807994E+02  0.47000000000E+01 0.  1.
          5    1    4    4  502    0  0.64874156444E+02 -0.32960240234E+02 -0.50398739536E+02  0.88640603323E+02  0.47000000000E+01 0.  1.
         -5    1    4    4    0  502 -0.59718127418E+01  0.57572581694E+02  0.64683784339E+01  0.58431110121E+02  0.47000000000E+01 0.  1.
<mgrwt>
<rscale>  0 0.32088890E+03</rscale>
<asrwt>0</asrwt>
<pdfrwt beam="1">  1       21 0.10689334E-01 0.32088890E+03</pdfrwt>
<pdfrwt beam="2">  1       21 0.56999634E-01 0.32088890E+03</pdfrwt>
<totfact> 0.20154401E+05</totfact>
</mgrwt>
</event>
<event>
 8    1  0.9175398E-006  0.3097222E+03  0.7546771E-02  0.1080479E+00
         21   -1    0    0  504  503  0.00000000000E+00  0.00000000000E+00  0.15751137852E+04  0.15751137852E+04  0.00000000000E+00 0. -1.
         21   -1    0    0  503  504 -0.00000000000E+00 -0.00000000000E+00 -0.15225545960E+02  0.15225545960E+02  0.00000000000E+00 0. -1.
         25    2    1    2    0    0 -0.28503949169E+02  0.86470563969E+02  0.82100315300E+03  0.83544131324E+03  0.12500550815E+03 0.  0.
         25    2    1    2    0    0  0.28503949169E+02 -0.86470563969E+02  0.73888508621E+03  0.75489801789E+03  0.12502085127E+03 0.  0.
          5    1    3    3  501    0  0.15060828426E+02 -0.24895031748E+02  0.26925575892E+03  0.27086407084E+03  0.47000000000E+01 0. -1.
         -5    1    3    3    0  501 -0.43564777596E+02  0.11136559572E+03  0.55174739408E+03  0.56457724240E+03  0.47000000000E+01 0. -1.
          5    1    4    4  502    0  0.63480453901E+02 -0.96264887234E+02  0.61406349401E+03  0.62481418136E+03  0.47000000000E+01 0.  1.
         -5    1    4    4    0  502 -0.34976504732E+02  0.97943232652E+01  0.12482159219E+03  0.13008383654E+03  0.47000000000E+01 0.  1.
<mgrwt>
<rscale>  0 0.30972225E+03</rscale>
<asrwt>0</asrwt>
<pdfrwt beam="1">  1       21 0.24232507E+00 0.30972225E+03</pdfrwt>
<pdfrwt beam="2">  1       21 0.23423929E-02 0.30972225E+03</pdfrwt>
<totfact> 0.65580498E+04</totfact>
</mgrwt>
</event>
<event>
 8    1  0.9175398E-006  0.2667574E+03  0.7546771E-02  0.1103150E+00
         21   -1    0    0  504  503  0.00000000000E+00  0.00000000000E+00  0.23818077413E+02  0.23818077413E+02  0.00000000000E+00 0. -1.
         21   -1    0    0  503  504 -0.00000000000E+00 -0.00000000000E+00 -0.74690675503E+03  0.74690675503E+03  0.00000000000E+00 0. -1.
         25    2    1    2    0    0  0.31099303586E+02  0.82455354710E+01 -0.26442782658E+03  0.29424800460E+03  0.12499862879E+03 0.  0.
         25    2    1    2    0    0 -0.31099303586E+02 -0.82455354710E+01 -0.45866085103E+03  0.47647682784E+03  0.12500094265E+03 0.  0.
          5    1    3    3  501    0  0.76025317126E+02  0.22513694843E+02 -0.19110518431E+03  0.20695409338E+03  0.47000000000E+01 0. -1.
         -5    1    3    3    0  501 -0.44926013541E+02 -0.14268159372E+02 -0.73322642275E+02  0.87293911212E+02  0.47000000000E+01 0. -1.
          5    1    4    4  502    0  0.41680456591E+01  0.70635901707E+01  0.53435149113E+01  0.10858639985E+02  0.47000000000E+01 0. -1.
         -5    1    4    4    0  502 -0.35267349245E+02 -0.15309125642E+02 -0.46400436594E+03  0.46561818786E+03  0.47000000000E+01 0. -1.
<mgrwt>
<rscale>  0 0.26675744E+03</rscale>
<asrwt>0</asrwt>
<pdfrwt beam="1">  1       21 0.36643196E-02 0.26675744E+03</pdfrwt>
<pdfrwt beam="2">  1       21 0.11490873E+00 0.26675744E+03</pdfrwt>
<totfact> 0.26055805E+05</totfact>
</mgrwt>
</event>
<event>
 8    1  0.9175398E-006  0.2657439E+03  0.7546771E-02  0.1103740E+00
         21   -1    0    0  504  503  0.00000000000E+00  0.00000000000E+00  0.42044415773E+03  0.42044415773E+03  0.00000000000E+00 0. -1.
         21   -1    0    0  503  504 -0.00000000000E+00 -0.00000000000E+00 -0.41991205516E+02  0.41991205516E+02  0.00000000000E+00 0. -1.
         25    2    1    2    0    0  0.35839795613E+01 -0.34197605168E+02  0.13854123614E+03  0.18973545882E+03  0.12499419633E+03 0.  0.
         25    2    1    2    0    0 -0.35839795613E+01  0.34197605168E+02  0.23991171607E+03  0.27269990442E+03  0.12500114101E+03 0.  0.
          5    1    3    3  501    0 -0.21130923031E+02  0.38958389432E+02  0.83966405888E+02  0.95061660689E+02  0.47000000000E+01 0. -1.
         -5    1    3    3    0  501  0.24714902592E+02 -0.73155994600E+02  0.54574830249E+02  0.94673798132E+02  0.47000000000E+01 0. -1.
          5    1    4    4  502    0 -0.77630021421E+01 -0.34234902830E+02  0.17369172949E+03  0.17726590103E+03  0.47000000000E+01 0.  1.
         -5    1    4    4    0  502  0.41790225808E+01  0.68432507998E+02  0.66219986582E+02  0.95434003392E+02  0.47000000000E+01 0.  1.
<mgrwt>
<rscale>  0 0.26574391E+03</rscale>
<asrwt>0</asrwt>
<pdfrwt beam="1">  1       21 0.64683714E-01 0.26574391E+03</pdfrwt>
<pdfrwt beam="2">  1       21 0.64601858E-02 0.26574391E+03</pdfrwt>
<totfact> 0.37613132E+05</totfact>
</mgrwt>
</event>
<event>
 8    1  0.9175398E-006  0.2758315E+03  0.7546771E-02  0.1097988E+00
         21   -1    0    0  504  503  0.00000000000E+00  0.00000000000E+00  0.25355406862E+03  0.25355406862E+03  0.00000000000E+00 0.  1.
         21   -1    0    0  503  504 -0.00000000000E+00 -0.00000000000E+00 -0.75016580967E+02  0.75016580967E+02  0.00000000000E+00 0.  1.
         25    2    1    2    0    0  0.78536932414E+01  0.45007054079E+02  0.13234991832E+03  0.18769203125E+03  0.12499792919E+03 0.  0.
         25    2    1    2    0    0 -0.78536932414E+01 -0.45007054079E+02  0.46187569330E+02  0.14087861833E+03  0.12500471243E+03 0.  0.
          5    1    3    3  501    0  0.61642247434E+02 -0.12063445342E+01  0.56686742541E+02  0.83885032728E+02  0.47000000000E+01 0. -1.
         -5    1    3    3    0  501 -0.53788554193E+02  0.46213398614E+02  0.75663175782E+02  0.10380699853E+03  0.47000000000E+01 0. -1.
          5    1    4    4  502    0 -0.63243456866E+02 -0.24200144602E+02  0.45133869424E+02  0.81514035627E+02  0.47000000000E+01 0.  1.
         -5    1    4    4    0  502  0.55389763624E+02 -0.20806909478E+02  0.10536999055E+01  0.59364582706E+02  0.47000000000E+01 0.  1.
<mgrwt>
<rscale>  0 0.27583154E+03</rscale>
<asrwt>0</asrwt>
<pdfrwt beam="1">  1       21 0.39008318E-01 0.27583154E+03</pdfrwt>
<pdfrwt beam="2">  1       21 0.11541013E-01 0.27583154E+03</pdfrwt>
<totfact> 0.39158998E+05</totfact>
</mgrwt>
</event>
<event>
 8    1  0.9175398E-006  0.2902332E+03  0.7546771E-02  0.1090227E+00
         21   -1    0    0  504  503  0.00000000000E+00  0.00000000000E+00  0.13500035253E+04  0.13500035253E+04  0.00000000000E+00 0. -1.
         21   -1    0    0  503  504 -0.00000000000E+00 -0.00000000000E+00 -0.15599093468E+02  0.15599093468E+02  0.00000000000E+00 0. -1.
         25    2    1    2    0    0 -0.42090879193E+01  0.12755468994E+02  0.10082971720E+04  0.10161046029E+04  0.12499983413E+03 0.  0.
         25    2    1    2    0    0  0.42090879193E+01 -0.12755468994E+02  0.32610725978E+03  0.34949801583E+03  0.12498999871E+03 0.  0.
          5    1    3    3  501    0  0.26966470810E+02  0.55299377075E+02  0.74404487712E+03  0.74659900939E+03  0.47000000000E+01 0. -1.
         -5    1    3    3    0  501 -0.31175558729E+02 -0.42543908081E+02  0.26425229491E+03  0.26950559353E+03  0.47000000000E+01 0. -1.
          5    1    4    4  502    0  0.27693494695E+02  0.48578560826E+02  0.10857171612E+03  0.12221584906E+03  0.47000000000E+01 0.  1.
         -5    1    4    4    0  502 -0.23484406775E+02 -0.61334029820E+02  0.21753554366E+03  0.22728216677E+03  0.47000000000E+01 0.  1.
<mgrwt>
<rscale>  0 0.29023322E+03</rscale>
<asrwt>0</asrwt>
<pdfrwt beam="1">  1       21 0.20769276E+00 0.29023322E+03</pdfrwt>
<pdfrwt beam="2">  1       21 0.23998616E-02 0.29023322E+03</pdfrwt>
<totfact> 0.10443980E+05</totfact>
</mgrwt>
</event>
<event>
 8    1  0.9175398E-006  0.3156883E+03  0.7546771E-02  0.1077651E+00
         21   -1    0    0  504  503  0.00000000000E+00  0.00000000000E+00  0.24995556799E+03  0.24995556799E+03  0.00000000000E+00 0. -1.
         21   -1    0    0  503  504 -0.00000000000E+00 -0.00000000000E+00 -0.99676829801E+02  0.99676829801E+02  0.00000000000E+00 0. -1.
         25    2    1    2    0    0  0.45220258345E+02 -0.37436376427E+02  0.15980291656E+03  0.21120562670E+03  0.12499796223E+03 0.  0.
         25    2    1    2    0    0 -0.45220258345E+02  0.37436376427E+02 -0.95241783701E+01  0.13842677110E+03  0.12499962775E+03 0.  0.
          5    1    3    3  501    0 -0.18208575320E+02  0.34119301504E+02  0.26624157599E+02  0.47187018534E+02  0.47000000000E+01 0.  1.
         -5    1    3    3    0  501  0.63428833666E+02 -0.71555677931E+02  0.13317875896E+03  0.16401860816E+03  0.47000000000E+01 0.  1.
          5    1    4    4  502    0 -0.67219742218E+02  0.55004036804E+02  0.27911209247E+02  0.91351318601E+02  0.47000000000E+01 0.  1.
         -5    1    4    4    0  502  0.21999483872E+02 -0.17567660377E+02 -0.37435387617E+02  0.47075452497E+02  0.47000000000E+01 0.  1.
<mgrwt>
<rscale>  0 0.31568832E+03</rscale>
<asrwt>0</asrwt>
<pdfrwt beam="1">  1       21 0.38454703E-01 0.31568832E+03</pdfrwt>
<pdfrwt beam="2">  1       21 0.15334897E-01 0.31568832E+03</pdfrwt>
<totfact> 0.23837027E+05</totfact>
</mgrwt>
</event>
<event>
 8    1  0.9175398E-006  0.2551123E+03  0.7546771E-02  0.1110116E+00
         21   -1    0    0  504  503  0.00000000000E+00  0.00000000000E+00  0.26693045110E+02  0.26693045110E+02  0.00000000000E+00 0. -1.
         21   -1    0    0  503  504 -0.00000000000E+00 -0.00000000000E+00 -0.60954330907E+03  0.60954330907E+03  0.00000000000E+00 0. -1.
         25    2    1    2    0    0 -0.21181571655E+02  0.18906977928E+01 -0.32608450484E+03  0.34986912923E+03  0.12500027831E+03 0.  0.
         25    2    1    2    0    0  0.21181571655E+02 -0.18906977928E+01 -0.25676575912E+03  0.28636722495E+03  0.12500119500E+03 0.  0.
          5    1    3    3  501    0  0.31493307029E+02 -0.20740249329E+02 -0.25779654120E+03  0.26058229599E+03  0.47000000000E+01 0. -1.
         -5    1    3    3    0  501 -0.52674878684E+02  0.22630947122E+02 -0.68287963637E+02  0.89286833238E+02  0.47000000000E+01 0. -1.
          5    1    4    4  502    0  0.62016100278E+02 -0.89758467880E+01 -0.22590398709E+03  0.23448083909E+03  0.47000000000E+01 0. -1.
         -5    1    4    4    0  502 -0.40834528623E+02  0.70851489951E+01 -0.30861772035E+02  0.51886385857E+02  0.47000000000E+01 0. -1.
<mgrwt>
<rscale>  0 0.25511227E+03</rscale>
<asrwt>0</asrwt>
<pdfrwt beam="1">  1       21 0.41066218E-02 0.25511227E+03</pdfrwt>
<pdfrwt beam="2">  1       21 0.93775906E-01 0.25511227E+03</pdfrwt>
<totfact> 0.35215484E+05</totfact>
</mgrwt>
</event>
<event>
 8    1  0.9175398E-006  0.3874313E+03  0.7546771E-02  0.1048221E+00
         21   -1    0    0  504  503  0.00000000000E+00  0.00000000000E+00  0.30430363191E+03  0.30430363191E+03  0.00000000000E+00 0. -1.
         21   -1    0    0  503  504 -0.00000000000E+00 -0.00000000000E+00 -0.12331682855E+03  0.12331682855E+03  0.00000000000E+00 0. -1.
         25    2    1    2    0    0 -0.13604133377E+03  0.47917328609E+02  0.53936561201E+02  0.19833737905E+03  0.12500099368E+03 0.  0.
         25    2    1    2    0    0  0.13604133377E+03 -0.47917328609E+02  0.12705024216E+03  0.22928308141E+03  0.12500261001E+03 0.  0.
          5    1    3    3  501    0 -0.51790561384E+02  0.82726375602E+02  0.14031253652E+02  0.98716166598E+02  0.47000000000E+01 0. -1.
         -5    1    3    3    0  501 -0.84250772389E+02 -0.34809046994E+02  0.39905307548E+02  0.99621212457E+02  0.47000000000E+01 0. -1.
          5    1    4    4  502    0  0.10939396141E+03 -0.89384937255E+02  0.93587668666E+02  0.16952123032E+03  0.47000000000E+01 0.  1.
         -5    1    4    4    0  502  0.26647372361E+02  0.41467608646E+02  0.33462573498E+02  0.59761851090E+02  0.47000000000E+01 0.  1.
<mgrwt>
<rscale>  0 0.38743133E+03</rscale>
<asrwt>0</asrwt>
<pdfrwt beam="1">  1       21 0.46815943E-01 0.38743133E+03</pdfrwt>
<pdfrwt beam="2">  1       21 0.18971820E-01 0.38743133E+03</pdfrwt>
<totfact> 0.10515463E+05</totfact>
</mgrwt>
</event>
<event>
 8    1  0.9175398E-006  0.2588716E+03  0.7546771E-02  0.1107823E+00
         21   -1    0    0  504  503  0.00000000000E+00  0.00000000000E+00  0.86860032319E+02  0.86860032319E+02  0.00000000000E+00 0.  1.
         21   -1    0    0  503  504 -0.00000000000E+00 -0.00000000000E+00 -0.19288069198E+03  0.19288069198E+03  0.00000000000E+00 0.  1.
         25    2    1    2    0    0 -0.43238492380E+01  0.21887650068E+02 -0.80141317617E+02  0.15015203546E+03  0.12500095226E+03 0.  0.
         25    2    1    2    0    0  0.43238492380E+01 -0.21887650068E+02 -0.25879342046E+02  0.12958868884E+03  0.12500289210E+03 0.  0.
          5    1    3    3  501    0 -0.57463978314E+02  0.10187524449E+02 -0.71416855032E+01  0.58982947789E+02  0.47000000000E+01 0. -1.
         -5    1    3    3    0  501  0.53140129076E+02  0.11700125619E+02 -0.72999632114E+02  0.91169087670E+02  0.47000000000E+01 0. -1.
          5    1    4    4  502    0  0.17345005827E+02 -0.93046532360E+01  0.48679766165E+02  0.52718454386E+02  0.47000000000E+01 0.  1.
         -5    1    4    4    0  502 -0.13021156589E+02 -0.12582996832E+02 -0.74559108211E+02  0.76870234456E+02  0.47000000000E+01 0.  1.
<mgrwt>
<rscale>  0 0.25887158E+03</rscale>
<asrwt>0</asrwt>
<pdfrwt beam="1">  1       21 0.13363082E-01 0.25887158E+03</pdfrwt>
<pdfrwt beam="2">  1       21 0.29673953E-01 0.25887158E+03</pdfrwt>
<totfact> 0.51993621E+05</totfact>
</mgrwt>
</event>
<event>
 8    1  0.9175398E-006  0.6409104E+03  0.7546771E-02  0.9823986E-01
         21   -1    0    0  504  503  0.00000000000E+00  0.00000000000E+00  0.14991088568E+03  0.14991088568E+03  0.00000000000E+00 0. -1.
         21   -1    0    0  503  504 -0.00000000000E+00 -0.00000000000E+00 -0.68501727636E+03  0.68501727636E+03  0.00000000000E+00 0. -1.
         25    2    1    2    0    0  0.25242189414E+03 -0.10062725769E+03 -0.11773723572E+03  0.32144845764E+03  0.12499758644E+03 0.  0.
         25    2    1    2    0    0 -0.25242189414E+03  0.10062725769E+03 -0.41736915496E+03  0.51347970440E+03  0.12498695006E+03 0.  0.
          5    1    3    3  501    0  0.23807023487E+02 -0.60629291664E+02 -0.12140137354E+02  0.66424079293E+02  0.47000000000E+01 0. -1.
         -5    1    3    3    0  501  0.22861487065E+03 -0.39997966024E+02 -0.10559709837E+03  0.25502437835E+03  0.47000000000E+01 0. -1.
          5    1    4    4  502    0 -0.88543663475E+02 -0.11783397984E+01 -0.22113288554E+03  0.23825031353E+03  0.47000000000E+01 0.  1.
         -5    1    4    4    0  502 -0.16387823066E+03  0.10180559749E+03 -0.19623626942E+03  0.27522939087E+03  0.47000000000E+01 0.  1.
<mgrwt>
<rscale>  0 0.64091044E+03</rscale>
<asrwt>0</asrwt>
<pdfrwt beam="1">  1       21 0.23063213E-01 0.64091044E+03</pdfrwt>
<pdfrwt beam="2">  1       21 0.10538727E+00 0.64091044E+03</pdfrwt>
<totfact> 0.10876620E+04</totfact>
</mgrwt>
</event>
<event>
 8    1  0.9175398E-006  0.3752350E+03  0.7546771E-02  0.1052709E+00
         21   -1    0    0  504  503  0.00000000000E+00  0.00000000000E+00  0.51488580797E+03  0.51488580797E+03  0.00000000000E+00 0.  1.
         21   -1    0    0  503  504 -0.00000000000E+00 -0.00000000000E+00 -0.68365297457E+02  0.68365297457E+02  0.00000000000E+00 0.  1.
         25    2    1    2    0    0 -0.54497442134E+02  0.10297514483E+03  0.10284770514E+03  0.19944002852E+03  0.12499929148E+03 0.  0.
         25    2    1    2    0    0  0.54497442134E+02 -0.10297514483E+03  0.34367280537E+03  0.38381107692E+03  0.12500437576E+03 0.  0.
          5    1    3    3  501    0 -0.37681347138E+02 -0.92555890034E+01 -0.89193559422E+01  0.40089833628E+02  0.47000000000E+01 0.  1.
         -5    1    3    3    0  501 -0.16816094996E+02  0.11223073383E+03  0.11176706109E+03  0.15935019489E+03  0.47000000000E+01 0.  1.
          5    1    4    4  502    0 -0.31193348426E+02 -0.47124352184E+02  0.19652908039E+03  0.20454705814E+03  0.47000000000E+01 0. -1.
         -5    1    4    4    0  502  0.85690790560E+02 -0.55850792643E+02  0.14714372498E+03  0.17926401878E+03  0.47000000000E+01 0. -1.
<mgrwt>
<rscale>  0 0.37523497E+03</rscale>
<asrwt>0</asrwt>
<pdfrwt beam="1">  1       21 0.79213199E-01 0.37523497E+03</pdfrwt>
<pdfrwt beam="2">  1       21 0.10517738E-01 0.37523497E+03</pdfrwt>
<totfact> 0.98632875E+04</totfact>
</mgrwt>
</event>
<event>
 8    1  0.9175398E-006  0.2793039E+03  0.7546771E-02  0.1096070E+00
         21   -1    0    0  504  503  0.00000000000E+00  0.00000000000E+00  0.15759301425E+02  0.15759301425E+02  0.00000000000E+00 0. -1.
         21   -1    0    0  503  504 -0.00000000000E+00 -0.00000000000E+00 -0.12375335071E+04  0.12375335071E+04  0.00000000000E+00 0. -1.
         25    2    1    2    0    0  0.58550707397E+02  0.11547717798E+02 -0.53113337759E+03  0.54889847759E+03  0.12500135514E+03 0.  0.
         25    2    1    2    0    0 -0.58550707397E+02 -0.11547717798E+02 -0.69064082813E+03  0.70439433098E+03  0.12500033965E+03 0.  0.
          5    1    3    3  501    0 -0.22350251729E+02  0.34261805967E+02 -0.30207130496E+03  0.30486483624E+03  0.47000000000E+01 0.  1.
         -5    1    3    3    0  501  0.80900959127E+02 -0.22714088169E+02 -0.22906207263E+03  0.24403364134E+03  0.47000000000E+01 0.  1.
          5    1    4    4  502    0 -0.27432630360E+02  0.46086298308E+02 -0.14245148711E+03  0.15228595563E+03  0.47000000000E+01 0.  1.
         -5    1    4    4    0  502 -0.31118077037E+02 -0.57634016106E+02 -0.54818934102E+03  0.55210837536E+03  0.47000000000E+01 0.  1.
<mgrwt>
<rscale>  0 0.27930387E+03</rscale>
<asrwt>0</asrwt>
<pdfrwt beam="1">  1       21 0.24245066E-02 0.27930387E+03</pdfrwt>
<pdfrwt beam="2">  1       21 0.19038988E+00 0.27930387E+03</pdfrwt>
<totfact> 0.13392322E+05</totfact>
</mgrwt>
</event>
<event>
 8    1  0.9175398E-006  0.2657376E+03  0.7546771E-02  0.1103744E+00
         21   -1    0    0  504  503  0.00000000000E+00  0.00000000000E+00  0.16090190816E+04  0.16090190816E+04  0.00000000000E+00 0.  1.
         21   -1    0    0  503  504 -0.00000000000E+00 -0.00000000000E+00 -0.10971976558E+02  0.10971976558E+02  0.00000000000E+00 0.  1.
         25    2    1    2    0    0 -0.41949790131E+02  0.81167592004E+01  0.71178948248E+03  0.72394402382E+03  0.12500006232E+03 0.  0.
         25    2    1    2    0    0  0.41949790131E+02 -0.81167592004E+01  0.88625762258E+03  0.89604703436E+03  0.12498818955E+03 0.  0.
          5    1    3    3  501    0 -0.74114527680E+02 -0.12012245520E+00  0.24640241759E+03  0.25735038185E+03  0.47000000000E+01 0.  1.
         -5    1    3    3    0  501  0.32164737549E+02  0.82368816556E+01  0.46538706489E+03  0.46659364197E+03  0.47000000000E+01 0.  1.
          5    1    4    4  502    0  0.35870976541E+02  0.11555041331E+02  0.71027610502E+02  0.80543512413E+02  0.47000000000E+01 0.  1.
         -5    1    4    4    0  502  0.60788135895E+01 -0.19671800532E+02  0.81523001208E+03  0.81550352194E+03  0.47000000000E+01 0.  1.
<mgrwt>
<rscale>  0 0.26573761E+03</rscale>
<asrwt>0</asrwt>
<pdfrwt beam="1">  1       21 0.24754121E+00 0.26573761E+03</pdfrwt>
<pdfrwt beam="2">  1       21 0.16879977E-02 0.26573761E+03</pdfrwt>
<totfact> 0.10666650E+05</totfact>
</mgrwt>
</event>
<event>
 8    1  0.9175398E-006  0.3111210E+03  0.7546771E-02  0.1079810E+00
         21   -1    0    0  504  503  0.00000000000E+00  0.00000000000E+00  0.83927029922E+02  0.83927029922E+02  0.00000000000E+00 0.  1.
         21   -1    0    0  503  504 -0.00000000000E+00 -0.00000000000E+00 -0.28833454884E+03  0.28833454884E+03  0.00000000000E+00 0.  1.
         25    2    1    2    0    0 -0.20481549474E+02 -0.66003677711E+02 -0.17594489675E+03  0.22662125585E+03  0.12499843027E+03 0.  0.
         25    2    1    2    0    0  0.20481549474E+02  0.66003677711E+02 -0.28462622168E+02  0.14564032291E+03  0.12500001383E+03 0.  0.
          5    1    3    3  501    0  0.21797149734E+02 -0.23907842713E+02  0.76015132366E+01  0.33564470548E+02  0.47000000000E+01 0. -1.
         -5    1    3    3    0  501 -0.42278699207E+02 -0.42095834998E+02 -0.18354640999E+03  0.19305678530E+03  0.47000000000E+01 0. -1.
          5    1    4    4  502    0  0.18752047167E+01  0.10180492775E+03 -0.16204397834E+02  0.10321062066E+03  0.47000000000E+01 0. -1.
         -5    1    4    4    0  502  0.18606344757E+02 -0.35801250042E+02 -0.12258224333E+02  0.42429702256E+02  0.47000000000E+01 0. -1.
<mgrwt>
<rscale>  0 0.31112096E+03</rscale>
<asrwt>0</asrwt>
<pdfrwt beam="1">  1       21 0.12911851E-01 0.31112096E+03</pdfrwt>
<pdfrwt beam="2">  1       21 0.44359161E-01 0.31112096E+03</pdfrwt>
<totfact> 0.24384706E+05</totfact>
</mgrwt>
</event>
<event>
 8    1  0.9175398E-006  0.4398509E+03  0.7546771E-02  0.1030793E+00
         21   -1    0    0  504  503  0.00000000000E+00  0.00000000000E+00  0.38296195755E+02  0.38296195755E+02  0.00000000000E+00 0. -1.
         21   -1    0    0  503  504 -0.00000000000E+00 -0.00000000000E+00 -0.12629768998E+04  0.12629768998E+04  0.00000000000E+00 0. -1.
         25    2    1    2    0    0  0.63352174720E+02 -0.10484413579E+03 -0.21834526545E+03  0.27983222889E+03  0.12500252211E+03 0.  0.
         25    2    1    2    0    0 -0.63352174720E+02  0.10484413579E+03 -0.10063354386E+04  0.10214408667E+04  0.12499855304E+03 0.  0.
          5    1    3    3  501    0 -0.57780095254E+01 -0.22454304442E+02 -0.15101704878E+03  0.15285882442E+03  0.47000000000E+01 0. -1.
         -5    1    3    3    0  501  0.69130184245E+02 -0.82389831346E+02 -0.67328216671E+02  0.12697340447E+03  0.47000000000E+01 0. -1.
          5    1    4    4  502    0  0.20747795962E+01  0.10677805464E+03 -0.70357200945E+03  0.71164704745E+03  0.47000000000E+01 0.  1.
         -5    1    4    4    0  502 -0.65426954316E+02 -0.19339188557E+01 -0.30276342918E+03  0.30979381925E+03  0.47000000000E+01 0.  1.
<mgrwt>
<rscale>  0 0.43985093E+03</rscale>
<asrwt>0</asrwt>
<pdfrwt beam="1">  1       21 0.58917224E-02 0.43985093E+03</pdfrwt>
<pdfrwt beam="2">  1       21 0.19430414E+00 0.43985093E+03</pdfrwt>
<totfact> 0.26476854E+04</totfact>
</mgrwt>
</event>
<event>
 8    1  0.9175398E-006  0.4147202E+03  0.7546771E-02  0.1038799E+00
         21   -1    0    0  504  503  0.00000000000E+00  0.00000000000E+00  0.66806617804E+03  0.66806617804E+03  0.00000000000E+00 0. -1.
         21   -1    0    0  503  504 -0.00000000000E+00 -0.00000000000E+00 -0.64362210335E+02  0.64362210335E+02  0.00000000000E+00 0. -1.
         25    2    1    2    0    0  0.23121372382E+02  0.26081335567E+02  0.58749284679E+03  0.60165427644E+03  0.12500075763E+03 0.  0.
         25    2    1    2    0    0 -0.23121372382E+02 -0.26081335567E+02  0.16211120919E+02  0.13077411193E+03  0.12499693590E+03 0.  0.
          5    1    3    3  501    0 -0.37564642172E+02 -0.26745515172E+02  0.15773563928E+03  0.16440513015E+03  0.47000000000E+01 0.  1.
         -5    1    3    3    0  501  0.60686014554E+02  0.52826850739E+02  0.42975720751E+03  0.43724914629E+03  0.47000000000E+01 0.  1.
          5    1    4    4  502    0 -0.73166630499E+02 -0.30279716024E+02  0.96764524464E+01  0.79912081396E+02  0.47000000000E+01 0. -1.
         -5    1    4    4    0  502  0.50045258117E+02  0.41983804568E+01  0.65346684728E+01  0.50862030538E+02  0.47000000000E+01 0. -1.
<mgrwt>
<rscale>  0 0.41472022E+03</rscale>
<asrwt>0</asrwt>
<pdfrwt beam="1">  1       21 0.10277941E+00 0.41472022E+03</pdfrwt>
<pdfrwt beam="2">  1       21 0.99018790E-02 0.41472022E+03</pdfrwt>
<totfact> 0.58837257E+04</totfact>
</mgrwt>
</event>
<event>
 8    1  0.9175398E-006  0.2970956E+03  0.7546771E-02  0.1086702E+00
         21   -1    0    0  504  503  0.00000000000E+00  0.00000000000E+00  0.27616952410E+02  0.27616952410E+02  0.00000000000E+00 0. -1.
         21   -1    0    0  503  504 -0.00000000000E+00 -0.00000000000E+00 -0.79901828513E+03  0.79901828513E+03  0.00000000000E+00 0. -1.
         25    2    1    2    0    0 -0.73462303730E+02 -0.22918127091E+02 -0.32221550064E+03  0.35407320961E+03  0.12499223291E+03 0.  0.
         25    2    1    2    0    0  0.73462303730E+02  0.22918127091E+02 -0.44918583207E+03  0.47256202793E+03  0.12500003154E+03 0.  0.
          5    1    3    3  501    0 -0.34663843231E+02  0.35563770913E+02 -0.24329604427E+03  0.24835744198E+03  0.47000000000E+01 0.  1.
         -5    1    3    3    0  501 -0.38798460499E+02 -0.58481898004E+02 -0.78919456374E+02  0.10571576763E+03  0.47000000000E+01 0.  1.
          5    1    4    4  502    0 -0.28529344780E+02  0.12515924216E+01 -0.34939436209E+02  0.45368978385E+02  0.47000000000E+01 0. -1.
         -5    1    4    4    0  502  0.10199164851E+03  0.21666534669E+02 -0.41424639586E+03  0.42719304954E+03  0.47000000000E+01 0. -1.
<mgrwt>
<rscale>  0 0.29709561E+03</rscale>
<asrwt>0</asrwt>
<pdfrwt beam="1">  1       21 0.42487622E-02 0.29709561E+03</pdfrwt>
<pdfrwt beam="2">  1       21 0.12292588E+00 0.29709561E+03</pdfrwt>
<totfact> 0.17007758E+05</totfact>
</mgrwt>
</event>
<event>
 8    1  0.9175398E-006  0.4306456E+03  0.7546771E-02  0.1033656E+00
         21   -1    0    0  504  503  0.00000000000E+00  0.00000000000E+00  0.18531260153E+03  0.18531260153E+03  0.00000000000E+00 0. -1.
         21   -1    0    0  503  504 -0.00000000000E+00 -0.00000000000E+00 -0.25019290431E+03  0.25019290431E+03  0.00000000000E+00 0. -1.
         25    2    1    2    0    0  0.63411715778E+02 -0.12808746650E+03  0.70262242807E+02  0.20245043340E+03  0.12498780120E+03 0.  0.
         25    2    1    2    0    0 -0.63411715778E+02  0.12808746650E+03 -0.13514254559E+03  0.23305507244E+03  0.12499485747E+03 0.  0.
          5    1    3    3  501    0  0.11424835655E+02 -0.18799029580E+02  0.77912331125E+02  0.81094708361E+02  0.47000000000E+01 0. -1.
         -5    1    3    3    0  501  0.51986880122E+02 -0.10928843692E+03 -0.76500883171E+01  0.12135572504E+03  0.47000000000E+01 0. -1.
          5    1    4    4  502    0 -0.70005119404E+02  0.12537181170E+03 -0.15505802788E+03  0.21138564266E+03  0.47000000000E+01 0. -1.
         -5    1    4    4    0  502  0.65934036258E+01  0.27156548007E+01  0.19915482293E+02  0.21669429788E+02  0.47000000000E+01 0. -1.
<mgrwt>
<rscale>  0 0.43064555E+03</rscale>
<asrwt>0</asrwt>
<pdfrwt beam="1">  1       21 0.28509631E-01 0.43064555E+03</pdfrwt>
<pdfrwt beam="2">  1       21 0.38491216E-01 0.43064555E+03</pdfrwt>
<totfact> 0.71292168E+04</totfact>
</mgrwt>
</event>
<event>
 8    1  0.9175398E-006  0.2743969E+03  0.7546771E-02  0.1098789E+00
         21   -1    0    0  504  503  0.00000000000E+00  0.00000000000E+00  0.19636653633E+03  0.19636653633E+03  0.00000000000E+00 0.  1.
         21   -1    0    0  503  504 -0.00000000000E+00 -0.00000000000E+00 -0.95858566812E+02  0.95858566812E+02  0.00000000000E+00 0.  1.
         25    2    1    2    0    0 -0.18421293729E+02  0.53245326843E+02  0.45084300267E+02  0.14433414808E+03  0.12500137311E+03 0.  0.
         25    2    1    2    0    0  0.18421293729E+02 -0.53245326843E+02  0.55423669254E+02  0.14789095506E+03  0.12500217031E+03 0.  0.
          5    1    3    3  501    0  0.14805365742E+02  0.89508841835E+01  0.77806402525E+02  0.79845121682E+02  0.47000000000E+01 0. -1.
         -5    1    3    3    0  501 -0.33226659471E+02  0.44294442659E+02 -0.32722102258E+02  0.64489026402E+02  0.47000000000E+01 0. -1.
          5    1    4    4  502    0 -0.46145136892E+02 -0.16139091640E+02 -0.82487391471E+01  0.49799353763E+02  0.47000000000E+01 0. -1.
         -5    1    4    4    0  502  0.64566430620E+02 -0.37106235203E+02  0.63672408402E+02  0.98091601300E+02  0.47000000000E+01 0. -1.
<mgrwt>
<rscale>  0 0.27439690E+03</rscale>
<asrwt>0</asrwt>
<pdfrwt beam="1">  1       21 0.30210236E-01 0.27439690E+03</pdfrwt>
<pdfrwt beam="2">  1       21 0.14747472E-01 0.27439690E+03</pdfrwt>
<totfact> 0.41818231E+05</totfact>
</mgrwt>
</event>
<event>
 8    1  0.9175398E-006  0.2671288E+03  0.7546771E-02  0.1102934E+00
         21   -1    0    0  504  503  0.00000000000E+00  0.00000000000E+00  0.24272498657E+03  0.24272498657E+03  0.00000000000E+00 0. -1.
         21   -1    0    0  503  504 -0.00000000000E+00 -0.00000000000E+00 -0.73496543372E+02  0.73496543372E+02  0.00000000000E+00 0. -1.
         25    2    1    2    0    0 -0.45312795581E+02 -0.22794096509E+01  0.99370921431E+02  0.16600607967E+03  0.12499997324E+03 0.  0.
         25    2    1    2    0    0  0.45312795581E+02  0.22794096509E+01  0.69857521770E+02  0.15021545028E+03  0.12500465192E+03 0.  0.
          5    1    3    3  501    0  0.75745289977E+00  0.30581369345E+02  0.10450414957E+03  0.10899083063E+03  0.47000000000E+01 0. -1.
         -5    1    3    3    0  501 -0.46070248481E+02 -0.32860778996E+02 -0.51332281344E+01  0.57015249034E+02  0.47000000000E+01 0. -1.
          5    1    4    4  502    0 -0.36396036885E+02  0.27862944507E+02  0.15163366262E+02  0.48508069987E+02  0.47000000000E+01 0. -1.
         -5    1    4    4    0  502  0.81708832466E+02 -0.25583534856E+02  0.54694155508E+02  0.10170738029E+03  0.47000000000E+01 0. -1.
<mgrwt>
<rscale>  0 0.26712879E+03</rscale>
<asrwt>0</asrwt>
<pdfrwt beam="1">  1       21 0.37342305E-01 0.26712879E+03</pdfrwt>
<pdfrwt beam="2">  1       21 0.11307161E-01 0.26712879E+03</pdfrwt>
<totfact> 0.44447820E+05</totfact>
</mgrwt>
</event>
<event>
 8    1  0.9175398E-006  0.3811908E+03  0.7546771E-02  0.1050495E+00
         21   -1    0    0  504  503  0.00000000000E+00  0.00000000000E+00  0.92073992281E+03  0.92073992281E+03  0.00000000000E+00 0.  1.
         21   -1    0    0  503  504 -0.00000000000E+00 -0.00000000000E+00 -0.39453700835E+02  0.39453700835E+02  0.00000000000E+00 0.  1.
         25    2    1    2    0    0  0.13918110239E+03 -0.27079112515E+02  0.50222708892E+03  0.53662068502E+03  0.12500021263E+03 0.  0.
         25    2    1    2    0    0 -0.13918110239E+03  0.27079112515E+02  0.37905913306E+03  0.42357293862E+03  0.12499420139E+03 0.  0.
          5    1    3    3  501    0  0.37089776037E+02 -0.59851712108E+02  0.29413063112E+03  0.30247776297E+03  0.47000000000E+01 0. -1.
         -5    1    3    3    0  501  0.10209132635E+03  0.32772599593E+02  0.20809645780E+03  0.23414292205E+03  0.47000000000E+01 0. -1.
          5    1    4    4  502    0 -0.26560102492E+02  0.36841807609E+02  0.25384292340E+02  0.52241842711E+02  0.47000000000E+01 0.  1.
         -5    1    4    4    0  502 -0.11262099989E+03 -0.97626950941E+01  0.35367484072E+03  0.37133109591E+03  0.47000000000E+01 0.  1.
<mgrwt>
<rscale>  0 0.38119075E+03</rscale>
<asrwt>0</asrwt>
<pdfrwt beam="1">  1       21 0.14165228E+00 0.38119075E+03</pdfrwt>
<pdfrwt beam="2">  1       21 0.60698008E-02 0.38119075E+03</pdfrwt>
<totfact> 0.62399463E+04</totfact>
</mgrwt>
</event>
<event>
 8    1  0.9175398E-006  0.3862232E+03  0.7546771E-02  0.1048657E+00
         21   -1    0    0  504  503  0.00000000000E+00  0.00000000000E+00  0.58454543122E+02  0.58454543122E+02  0.00000000000E+00 0. -1.
         21   -1    0    0  503  504 -0.00000000000E+00 -0.00000000000E+00 -0.63796743740E+03  0.63796743740E+03  0.00000000000E+00 0. -1.
         25    2    1    2    0    0  0.12383951821E+03 -0.64896756198E+02 -0.37275215193E+03  0.41727325178E+03  0.12499993858E+03 0.  0.
         25    2    1    2    0    0 -0.12383951821E+03  0.64896756198E+02 -0.20676074235E+03  0.27914872875E+03  0.12500477170E+03 0.  0.
          5    1    3    3  501    0  0.11815728979E+03 -0.20479124366E+02 -0.16111573543E+03  0.20090024855E+03  0.47000000000E+01 0.  1.
         -5    1    3    3    0  501  0.56822284266E+01 -0.44417631832E+02 -0.21163641650E+03  0.21637300323E+03  0.47000000000E+01 0.  1.
          5    1    4    4  502    0 -0.11277661664E+03  0.16702518481E+02 -0.70522190955E+02  0.13413802146E+03  0.47000000000E+01 0.  1.
         -5    1    4    4    0  502 -0.11062901571E+02  0.48194237717E+02 -0.13623855140E+03  0.14501070728E+03  0.47000000000E+01 0.  1.
<mgrwt>
<rscale>  0 0.38622323E+03</rscale>
<asrwt>0</asrwt>
<pdfrwt beam="1">  1       21 0.89930074E-02 0.38622323E+03</pdfrwt>
<pdfrwt beam="2">  1       21 0.98148829E-01 0.38622323E+03</pdfrwt>
<totfact> 0.78704197E+04</totfact>
</mgrwt>
</event>
<event>
 8    1  0.9175398E-006  0.2740146E+03  0.7546771E-02  0.1099004E+00
         21   -1    0    0  504  503  0.00000000000E+00  0.00000000000E+00  0.16062367928E+03  0.16062367928E+03  0.00000000000E+00 0.  1.
         21   -1    0    0  503  504 -0.00000000000E+00 -0.00000000000E+00 -0.11686318707E+03  0.11686318707E+03  0.00000000000E+00 0.  1.
         25    2    1    2    0    0 -0.49706318071E+02  0.25907468811E+02  0.23989974614E+02  0.13907480469E+03  0.12499746966E+03 0.  0.
         25    2    1    2    0    0  0.49706318071E+02 -0.25907468811E+02  0.19770517597E+02  0.13841206166E+03  0.12500044180E+03 0.  0.
          5    1    3    3  501    0 -0.39158841200E+02  0.75222524141E+02  0.53443946618E+01  0.85102852693E+02  0.47000000000E+01 0.  1.
         -5    1    3    3    0  501 -0.10547476871E+02 -0.49315055329E+02  0.18645579952E+02  0.53971951996E+02  0.47000000000E+01 0.  1.
          5    1    4    4  502    0  0.69831204112E+01 -0.53908569529E+01  0.69114013942E+02  0.69833102699E+02  0.47000000000E+01 0. -1.
         -5    1    4    4    0  502  0.42723197659E+02 -0.20516611858E+02 -0.49343496345E+02  0.68578958959E+02  0.47000000000E+01 0. -1.
<mgrwt>
<rscale>  0 0.27401456E+03</rscale>
<asrwt>0</asrwt>
<pdfrwt beam="1">  1       21 0.24711335E-01 0.27401456E+03</pdfrwt>
<pdfrwt beam="2">  1       21 0.17978952E-01 0.27401456E+03</pdfrwt>
<totfact> 0.42857189E+05</totfact>
</mgrwt>
</event>
<event>
 8    1  0.9175398E-006  0.4291521E+03  0.7546771E-02  0.1034128E+00
         21   -1    0    0  504  503  0.00000000000E+00  0.00000000000E+00  0.49413028657E+03  0.49413028657E+03  0.00000000000E+00 0.  1.
         21   -1    0    0  503  504 -0.00000000000E+00 -0.00000000000E+00 -0.93179647777E+02  0.93179647777E+02  0.00000000000E+00 0.  1.
         25    2    1    2    0    0  0.13355050218E+03  0.10858316728E+03  0.23899382622E+03  0.31994877793E+03  0.12499252248E+03 0.  0.
         25    2    1    2    0    0 -0.13355050218E+03 -0.10858316728E+03  0.16195681257E+03  0.26736115642E+03  0.12500375184E+03 0.  0.
          5    1    3    3  501    0  0.10487619557E+03  0.27920202360E+02  0.19587117739E+03  0.22397803962E+03  0.47000000000E+01 0.  1.
         -5    1    3    3    0  501  0.28674306611E+02  0.80662964925E+02  0.43122648831E+02  0.95970738312E+02  0.47000000000E+01 0.  1.
          5    1    4    4  502    0 -0.17693789600E+02 -0.91364982052E+02  0.91491586277E+02  0.13058878396E+03  0.47000000000E+01 0. -1.
         -5    1    4    4    0  502 -0.11585671258E+03 -0.17218185232E+02  0.70465226295E+02  0.13677237246E+03  0.47000000000E+01 0. -1.
<mgrwt>
<rscale>  0 0.42915212E+03</rscale>
<asrwt>0</asrwt>
<pdfrwt beam="1">  1       21 0.76020042E-01 0.42915212E+03</pdfrwt>
<pdfrwt beam="2">  1       21 0.14335331E-01 0.42915212E+03</pdfrwt>
<totfact> 0.60902834E+04</totfact>
</mgrwt>
</event>
<event>
 8    1  0.9175398E-006  0.2878471E+03  0.7546771E-02  0.1091479E+00
         21   -1    0    0  504  503  0.00000000000E+00  0.00000000000E+00  0.26423864385E+03  0.26423864385E+03  0.00000000000E+00 0. -1.
         21   -1    0    0  503  504 -0.00000000000E+00 -0.00000000000E+00 -0.78391197885E+02  0.78391197885E+02  0.00000000000E+00 0. -1.
         25    2    1    2    0    0 -0.44092483664E+02  0.38310044812E+02  0.14166897384E+03  0.19775503432E+03  0.12500059520E+03 0.  0.
         25    2    1    2    0    0  0.44092483664E+02 -0.38310044812E+02  0.44178472123E+02  0.14487480741E+03  0.12500066310E+03 0.  0.
          5    1    3    3  501    0  0.25384577801E+02  0.30175720327E+02  0.27572578057E-01  0.39711983678E+02  0.47000000000E+01 0.  1.
         -5    1    3    3    0  501 -0.69477061464E+02  0.81343244851E+01  0.14164140126E+03  0.15804305064E+03  0.47000000000E+01 0.  1.
          5    1    4    4  502    0 -0.42702260418E+02 -0.10049030013E+02  0.27431895957E+02  0.51952526067E+02  0.47000000000E+01 0.  1.
         -5    1    4    4    0  502  0.86794744081E+02 -0.28261014800E+02  0.16746576167E+02  0.92922281348E+02  0.47000000000E+01 0.  1.
<mgrwt>
<rscale>  0 0.28784707E+03</rscale>
<asrwt>0</asrwt>
<pdfrwt beam="1">  1       21 0.40652099E-01 0.28784707E+03</pdfrwt>
<pdfrwt beam="2">  1       21 0.12060184E-01 0.28784707E+03</pdfrwt>
<totfact> 0.33179257E+05</totfact>
</mgrwt>
</event>
<event>
 8    1  0.9175398E-006  0.3258301E+03  0.7546771E-02  0.1072997E+00
         21   -1    0    0  504  503  0.00000000000E+00  0.00000000000E+00  0.10037889569E+03  0.10037889569E+03  0.00000000000E+00 0.  1.
         21   -1    0    0  503  504 -0.00000000000E+00 -0.00000000000E+00 -0.26441127598E+03  0.26441127598E+03  0.00000000000E+00 0.  1.
         25    2    1    2    0    0  0.51829099538E+00  0.41811650643E+02  0.25194976445E+02  0.13418288789E+03  0.12498711058E+03 0.  0.
         25    2    1    2    0    0 -0.51829099538E+00 -0.41811650643E+02 -0.18922735673E+03  0.23060728378E+03  0.12499697612E+03 0.  0.
          5    1    3    3  501    0  0.47409228193E+02  0.33117441225E+02  0.53165541317E+02  0.78696026676E+02  0.47000000000E+01 0. -1.
         -5    1    3    3    0  501 -0.46890937197E+02  0.86942094186E+01 -0.27970564871E+02  0.55486861218E+02  0.47000000000E+01 0. -1.
          5    1    4    4  502    0 -0.15938160487E+02 -0.28413884516E+02 -0.20291865935E+03  0.20557102448E+03  0.47000000000E+01 0.  1.
         -5    1    4    4    0  502  0.15419869491E+02 -0.13397766127E+02  0.13691302616E+02  0.25036259298E+02  0.47000000000E+01 0.  1.
<mgrwt>
<rscale>  0 0.32583009E+03</rscale>
<asrwt>0</asrwt>
<pdfrwt beam="1">  1       21 0.15442907E-01 0.32583009E+03</pdfrwt>
<pdfrwt beam="2">  1       21 0.40678658E-01 0.32583009E+03</pdfrwt>
<totfact> 0.20935676E+05</totfact>
</mgrwt>
</event>
<event>
 8    1  0.9175398E-006  0.2680281E+03  0.7546771E-02  0.1102414E+00
         21   -1    0    0  504  503  0.00000000000E+00  0.00000000000E+00  0.13975314388E+03  0.13975314388E+03  0.00000000000E+00 0. -1.
         21   -1    0    0  503  504 -0.00000000000E+00 -0.00000000000E+00 -0.12851060644E+03  0.12851060644E+03  0.00000000000E+00 0. -1.
         25    2    1    2    0    0 -0.16425724587E+02  0.37107853221E+02  0.31874710229E+02  0.13523075556E+03  0.12499825158E+03 0.  0.
         25    2    1    2    0    0  0.16425724587E+02 -0.37107853221E+02 -0.20632172787E+02  0.13303299476E+03  0.12500117576E+03 0.  0.
          5    1    3    3  501    0 -0.14829313048E+02  0.39053314044E+02 -0.43018664152E+02  0.60147862212E+02  0.47000000000E+01 0.  1.
         -5    1    3    3    0  501 -0.15964115394E+01 -0.19454608224E+01  0.74893374381E+02  0.75082893350E+02  0.47000000000E+01 0.  1.
          5    1    4    4  502    0  0.69633009128E+02 -0.25168109631E+02 -0.24583992744E+02  0.78157868458E+02  0.47000000000E+01 0. -1.
         -5    1    4    4    0  502 -0.53207284541E+02 -0.11939743590E+02  0.39518199570E+01  0.54875126298E+02  0.47000000000E+01 0. -1.
<mgrwt>
<rscale>  0 0.26802807E+03</rscale>
<asrwt>0</asrwt>
<pdfrwt beam="1">  1       21 0.21500484E-01 0.26802807E+03</pdfrwt>
<pdfrwt beam="2">  1       21 0.19770863E-01 0.26802807E+03</pdfrwt>
<totfact> 0.46840147E+05</totfact>
</mgrwt>
</event>
<event>
 8    1  0.9175398E-006  0.3357808E+03  0.7546771E-02  0.1068607E+00
         21   -1    0    0  504  503  0.00000000000E+00  0.00000000000E+00  0.18618752843E+03  0.18618752843E+03  0.00000000000E+00 0. -1.
         21   -1    0    0  503  504 -0.00000000000E+00 -0.00000000000E+00 -0.15139140665E+03  0.15139140665E+03  0.00000000000E+00 0. -1.
         25    2    1    2    0    0  0.70704254610E+02  0.25530793935E+01  0.10479216683E+03  0.17779706482E+03  0.12499915277E+03 0.  0.
         25    2    1    2    0    0 -0.70704254610E+02 -0.25530793935E+01 -0.69996045053E+02  0.15978187026E+03  0.12500075963E+03 0.  0.
          5    1    3    3  501    0  0.98383706464E+01 -0.36663398899E+02 -0.12184860758E+02  0.40144229816E+02  0.47000000000E+01 0.  1.
         -5    1    3    3    0  501  0.60865883964E+02  0.39216478293E+02  0.11697702759E+03  0.13765283500E+03  0.47000000000E+01 0.  1.
          5    1    4    4  502    0 -0.27811346381E+02  0.12761439968E+02 -0.10023763179E+03  0.10490947604E+03  0.47000000000E+01 0.  1.
         -5    1    4    4    0  502 -0.42892908229E+02 -0.15314519362E+02  0.30241586732E+02  0.54872394222E+02  0.47000000000E+01 0.  1.
<mgrwt>
<rscale>  0 0.33578083E+03</rscale>
<asrwt>0</asrwt>
<pdfrwt beam="1">  1       21 0.28644235E-01 0.33578083E+03</pdfrwt>
<pdfrwt beam="2">  1       21 0.23290986E-01 0.33578083E+03</pdfrwt>
<totfact> 0.19479643E+05</totfact>
</mgrwt>
</event>
<event>
 8    1  0.9175398E-006  0.2795512E+03  0.7546771E-02  0.1095934E+00
         21   -1    0    0  504  503  0.00000000000E+00  0.00000000000E+00  0.73714529226E+02  0.73714529226E+02  0.00000000000E+00 0. -1.
         21   -1    0    0  503  504 -0.00000000000E+00 -0.00000000000E+00 -0.26503882853E+03  0.26503882853E+03  0.00000000000E+00 0. -1.
         25    2    1    2    0    0 -0.36417027046E+02  0.46159801880E+02 -0.69805151812E+02  0.15477160401E+03  0.12499825207E+03 0.  0.
         25    2    1    2    0    0  0.36417027046E+02 -0.46159801880E+02 -0.12151914749E+03  0.18398175375E+03  0.12500182133E+03 0.  0.
          5    1    3    3  501    0 -0.43771694221E+02  0.76221184198E+02 -0.11732474075E+02  0.88799611956E+02  0.47000000000E+01 0.  1.
         -5    1    3    3    0  501  0.73546671752E+01 -0.30061382318E+02 -0.58072677736E+02  0.65971992054E+02  0.47000000000E+01 0.  1.
          5    1    4    4  502    0 -0.77977342795E+01 -0.20451154338E+02 -0.13001019507E+03  0.13192344445E+03  0.47000000000E+01 0.  1.
         -5    1    4    4    0  502  0.44214761326E+02 -0.25708647542E+02  0.84910475799E+01  0.52058309294E+02  0.47000000000E+01 0.  1.
<mgrwt>
<rscale>  0 0.27955116E+03</rscale>
<asrwt>0</asrwt>
<pdfrwt beam="1">  1       21 0.11340697E-01 0.27955116E+03</pdfrwt>
<pdfrwt beam="2">  1       21 0.40775205E-01 0.27955116E+03</pdfrwt>
<totfact> 0.36897895E+05</totfact>
</mgrwt>
</event>
<event>
 8    1  0.9175398E-006  0.2950106E+03  0.7546771E-02  0.1087762E+00
         21   -1    0    0  504  503  0.00000000000E+00  0.00000000000E+00  0.15880633653E+04  0.15880633653E+04  0.00000000000E+00 0. -1.
         21   -1    0    0  503  504 -0.00000000000E+00 -0.00000000000E+00 -0.13700843640E+02  0.13700843640E+02  0.00000000000E+00 0. -1.
         25    2    1    2    0    0  0.65896806475E+02 -0.33912100880E+02  0.64976142036E+03  0.66581340105E+03  0.12500064772E+03 0.  0.
         25    2    1    2    0    0 -0.65896806475E+02  0.33912100880E+02  0.92460110131E+03  0.93595080790E+03  0.12499719432E+03 0.  0.
          5    1    3    3  501    0 -0.36482239209E+02 -0.20056657022E+02  0.18532998444E+03  0.19000662199E+03  0.47000000000E+01 0.  1.
         -5    1    3    3    0  501  0.10237904568E+03 -0.13855443857E+02  0.46443143592E+03  0.47580677905E+03  0.47000000000E+01 0.  1.
          5    1    4    4  502    0 -0.88551109325E+02  0.56407524967E+02  0.54920214637E+03  0.55916741269E+03  0.47000000000E+01 0.  1.
         -5    1    4    4    0  502  0.22654302850E+02 -0.22495424087E+02  0.37539895493E+03  0.37678339521E+03  0.47000000000E+01 0.  1.
<mgrwt>
<rscale>  0 0.29501056E+03</rscale>
<asrwt>0</asrwt>
<pdfrwt beam="1">  1       21 0.24431730E+00 0.29501056E+03</pdfrwt>
<pdfrwt beam="2">  1       21 0.21078234E-02 0.29501056E+03</pdfrwt>
<totfact> 0.76431270E+04</totfact>
</mgrwt>
</event>
<event>
 8    1  0.9175398E-006  0.2570276E+03  0.7546771E-02  0.1108942E+00
         21   -1    0    0  504  503  0.00000000000E+00  0.00000000000E+00  0.76998780880E+02  0.76998780880E+02  0.00000000000E+00 0.  1.
         21   -1    0    0  503  504 -0.00000000000E+00 -0.00000000000E+00 -0.21449421623E+03  0.21449421623E+03  0.00000000000E+00 0.  1.
         25    2    1    2    0    0  0.54802391417E+01 -0.28792276018E+02 -0.75467469984E+02  0.14891328922E+03  0.12498320088E+03 0.  0.
         25    2    1    2    0    0 -0.54802391417E+01  0.28792276018E+02 -0.62027965366E+02  0.14257970789E+03  0.12498990533E+03 0.  0.
          5    1    3    3  501    0 -0.35508490193E+02 -0.36476141683E+02 -0.90825693397E+02  0.10422455742E+03  0.47000000000E+01 0.  1.
         -5    1    3    3    0  501  0.40988729335E+02  0.76838656654E+01  0.15358223412E+02  0.44688731806E+02  0.47000000000E+01 0.  1.
          5    1    4    4  502    0 -0.41187155140E+02  0.64930286082E+01  0.22806717255E+02  0.47757486544E+02  0.47000000000E+01 0.  1.
         -5    1    4    4    0  502  0.35706915998E+02  0.22299247410E+02 -0.84834682621E+02  0.94822221343E+02  0.47000000000E+01 0.  1.
<mgrwt>
<rscale>  0 0.25702757E+03</rscale>
<asrwt>0</asrwt>
<pdfrwt beam="1">  1       21 0.11845966E-01 0.25702757E+03</pdfrwt>
<pdfrwt beam="2">  1       21 0.32999110E-01 0.25702757E+03</pdfrwt>
<totfact> 0.52446392E+05</totfact>
</mgrwt>
</event>
<event>
 8    1  0.9175398E-006  0.3241735E+03  0.7546771E-02  0.1073744E+00
         21   -1    0    0  504  503  0.00000000000E+00  0.00000000000E+00  0.85517231976E+03  0.85517231976E+03  0.00000000000E+00 0. -1.
         21   -1    0    0  503  504 -0.00000000000E+00 -0.00000000000E+00 -0.30721425449E+02  0.30721425449E+02  0.00000000000E+00 0. -1.
         25    2    1    2    0    0 -0.57068826040E+02  0.83673111455E+02  0.35875682790E+03  0.39319326321E+03  0.12504575237E+03 0.  0.
         25    2    1    2    0    0  0.57068826040E+02 -0.83673111455E+02  0.46569406641E+03  0.49270048199E+03  0.12499904393E+03 0.  0.
          5    1    3    3  501    0 -0.60023346719E+02 -0.83253573243E+01  0.86187406981E+02  0.10546313502E+03  0.47000000000E+01 0. -1.
         -5    1    3    3    0  501  0.29545206788E+01  0.91998468779E+02  0.27256942092E+03  0.28773012819E+03  0.47000000000E+01 0. -1.
          5    1    4    4  502    0  0.33435577692E+02 -0.76486635116E+02  0.12091479736E+03  0.14700551496E+03  0.47000000000E+01 0. -1.
         -5    1    4    4    0  502  0.23633248348E+02 -0.71864763396E+01  0.34477926905E+03  0.34569496704E+03  0.47000000000E+01 0. -1.
<mgrwt>
<rscale>  0 0.32417349E+03</rscale>
<asrwt>0</asrwt>
<pdfrwt beam="1">  1       21 0.13156495E+00 0.32417349E+03</pdfrwt>
<pdfrwt beam="2">  1       21 0.47263738E-02 0.32417349E+03</pdfrwt>
<totfact> 0.11837562E+05</totfact>
</mgrwt>
</event>
<event>
 8    1  0.9175398E-006  0.2736661E+03  0.7546771E-02  0.1099200E+00
         21   -1    0    0  504  503  0.00000000000E+00  0.00000000000E+00  0.96205633435E+03  0.96205633435E+03  0.00000000000E+00 0. -1.
         21   -1    0    0  503  504 -0.00000000000E+00 -0.00000000000E+00 -0.19461735494E+02  0.19461735494E+02  0.00000000000E+00 0. -1.
         25    2    1    2    0    0 -0.37956512743E+02  0.31819705855E+02  0.38064332882E+03  0.40372079414E+03  0.12509174756E+03 0.  0.
         25    2    1    2    0    0  0.37956512743E+02 -0.31819705855E+02  0.56195127004E+03  0.57779727570E+03  0.12492906537E+03 0.  0.
          5    1    3    3  501    0 -0.56987096397E+02  0.69914244115E+02  0.22982431114E+03  0.24693487942E+03  0.47000000000E+01 0.  1.
         -5    1    3    3    0  501  0.19030583654E+02 -0.38094538259E+02  0.15081901768E+03  0.15678591472E+03  0.47000000000E+01 0.  1.
          5    1    4    4  502    0 -0.14941826646E+02 -0.64753246782E+02  0.36941146701E+03  0.37537070092E+03  0.47000000000E+01 0. -1.
         -5    1    4    4    0  502  0.52898339389E+02  0.32933540926E+02  0.19253980303E+03  0.20242657478E+03  0.47000000000E+01 0. -1.
<mgrwt>
<rscale>  0 0.27366612E+03</rscale>
<asrwt>0</asrwt>
<pdfrwt beam="1">  1       21 0.14800863E+00 0.27366612E+03</pdfrwt>
<pdfrwt beam="2">  1       21 0.29941139E-02 0.27366612E+03</pdfrwt>
<totfact> 0.19075774E+05</totfact>
</mgrwt>
</event>
<event>
 8    1  0.9175398E-006  0.3445427E+03  0.7546771E-02  0.1064877E+00
         21   -1    0    0  504  503  0.00000000000E+00  0.00000000000E+00  0.12316273782E+03  0.12316273782E+03  0.00000000000E+00 0. -1.
         21   -1    0    0  503  504 -0.00000000000E+00 -0.00000000000E+00 -0.24096095983E+03  0.24096095983E+03  0.00000000000E+00 0. -1.
         25    2    1    2    0    0 -0.37967438076E+02  0.93060181031E+02  0.75364150367E+01  0.16056642540E+03  0.12499222283E+03 0.  0.
         25    2    1    2    0    0  0.37967438076E+02 -0.93060181031E+02 -0.12533463705E+03  0.20355727225E+03  0.12500027277E+03 0.  0.
          5    1    3    3  501    0  0.13942455210E+02  0.21393379938E+02  0.54431226558E+02  0.60306858541E+02  0.47000000000E+01 0.  1.
         -5    1    3    3    0  501 -0.51909893286E+02  0.71666801093E+02 -0.46894811522E+02  0.10025956686E+03  0.47000000000E+01 0.  1.
          5    1    4    4  502    0  0.22177829271E+02  0.15638660034E+02  0.99052819238E+01  0.29268214992E+02  0.47000000000E+01 0. -1.
         -5    1    4    4    0  502  0.15789608805E+02 -0.10869884106E+03 -0.13523991897E+03  0.17428905725E+03  0.47000000000E+01 0. -1.
<mgrwt>
<rscale>  0 0.34454266E+03</rscale>
<asrwt>0</asrwt>
<pdfrwt beam="1">  1       21 0.18948114E-01 0.34454266E+03</pdfrwt>
<pdfrwt beam="2">  1       21 0.37070916E-01 0.34454266E+03</pdfrwt>
<totfact> 0.17211687E+05</totfact>
</mgrwt>
</event>
<event>
 8    1  0.9175398E-006  0.2768171E+03  0.7546771E-02  0.1097440E+00
         21   -1    0    0  504  503  0.00000000000E+00  0.00000000000E+00  0.87370630694E+02  0.87370630694E+02  0.00000000000E+00 0. -1.
         21   -1    0    0  503  504 -0.00000000000E+00 -0.00000000000E+00 -0.21926048799E+03  0.21926048799E+03  0.00000000000E+00 0. -1.
         25    2    1    2    0    0 -0.34805660330E+02 -0.35244146660E+02 -0.10233184165E+03  0.16896573710E+03  0.12499612247E+03 0.  0.
         25    2    1    2    0    0  0.34805660330E+02  0.35244146660E+02 -0.29558015644E+02  0.13766538158E+03  0.12499798852E+03 0.  0.
          5    1    3    3  501    0 -0.46085441112E+02  0.25587965587E+02 -0.44943028955E+01  0.53112151377E+02  0.47000000000E+01 0. -1.
         -5    1    3    3    0  501  0.11279780782E+02 -0.60832112248E+02 -0.97837538755E+02  0.11585358572E+03  0.47000000000E+01 0. -1.
          5    1    4    4  502    0  0.36988186447E+02 -0.42400893391E+02 -0.89770185611E+01  0.57172008529E+02  0.47000000000E+01 0. -1.
         -5    1    4    4    0  502 -0.21825261175E+01  0.77645040051E+02 -0.20580997083E+02  0.80493373055E+02  0.47000000000E+01 0. -1.
<mgrwt>
<rscale>  0 0.27681710E+03</rscale>
<asrwt>0</asrwt>
<pdfrwt beam="1">  1       21 0.13441636E-01 0.27681710E+03</pdfrwt>
<pdfrwt beam="2">  1       21 0.33732382E-01 0.27681710E+03</pdfrwt>
<totfact> 0.39801909E+05</totfact>
</mgrwt>
</event>
<event>
 8    1  0.9175398E-006  0.2766506E+03  0.7546771E-02  0.1097532E+00
         21   -1    0    0  504  503  0.00000000000E+00  0.00000000000E+00  0.11926213915E+04  0.11926213915E+04  0.00000000000E+00 0.  1.
         21   -1    0    0  503  504 -0.00000000000E+00 -0.00000000000E+00 -0.16043561606E+02  0.16043561606E+02  0.00000000000E+00 0.  1.
         25    2    1    2    0    0 -0.18405327801E+02 -0.37894643163E+02  0.77023588227E+03  0.78144946677E+03  0.12500077883E+03 0.  0.
         25    2    1    2    0    0  0.18405327801E+02  0.37894643163E+02  0.40634194761E+03  0.42721548632E+03  0.12499813316E+03 0.  0.
          5    1    3    3  501    0  0.25080569841E+02  0.34434973082E+02  0.36389167918E+03  0.36640694116E+03  0.47000000000E+01 0. -1.
         -5    1    3    3    0  501 -0.43485897642E+02 -0.72329616245E+02  0.40634420309E+03  0.41504252561E+03  0.47000000000E+01 0. -1.
          5    1    4    4  502    0  0.71179035627E+02  0.32993966921E+02  0.23396762067E+03  0.24681570957E+03  0.47000000000E+01 0. -1.
         -5    1    4    4    0  502 -0.52773707826E+02  0.49006762424E+01  0.17237432694E+03  0.18039977675E+03  0.47000000000E+01 0. -1.
<mgrwt>
<rscale>  0 0.27665064E+03</rscale>
<asrwt>0</asrwt>
<pdfrwt beam="1">  1       21 0.18348014E+00 0.27665064E+03</pdfrwt>
<pdfrwt beam="2">  1       21 0.24682412E-02 0.27665064E+03</pdfrwt>
<totfact> 0.14494047E+05</totfact>
</mgrwt>
</event>
<event>
 8    1  0.9175398E-006  0.4135237E+03  0.7546771E-02  0.1039195E+00
         21   -1    0    0  504  503  0.00000000000E+00  0.00000000000E+00  0.93919076553E+02  0.93919076553E+02  0.00000000000E+00 0. -1.
         21   -1    0    0  503  504 -0.00000000000E+00 -0.00000000000E+00 -0.45518391414E+03  0.45518391414E+03  0.00000000000E+00 0. -1.
         25    2    1    2    0    0  0.14309573168E+03 -0.32860268075E+02 -0.27973048567E+03  0.33974641071E+03  0.12498917288E+03 0.  0.
         25    2    1    2    0    0 -0.14309573168E+03  0.32860268075E+02 -0.81534351917E+02  0.20935657998E+03  0.12500456550E+03 0.  0.
          5    1    3    3  501    0  0.65175374155E+02  0.45417544048E+02 -0.89803379558E+02  0.11998883150E+03  0.47000000000E+01 0. -1.
         -5    1    3    3    0  501  0.77920357523E+02 -0.78277812123E+02 -0.18992710611E+03  0.21975757922E+03  0.47000000000E+01 0. -1.
          5    1    4    4  502    0 -0.26842011698E+02 -0.43127756461E+02 -0.38396121032E+02  0.63850208141E+02  0.47000000000E+01 0. -1.
         -5    1    4    4    0  502 -0.11625371998E+03  0.75988024536E+02 -0.43138230885E+02  0.14550637184E+03  0.47000000000E+01 0. -1.
<mgrwt>
<rscale>  0 0.41352365E+03</rscale>
<asrwt>0</asrwt>
<pdfrwt beam="1">  1       21 0.14449089E-01 0.41352365E+03</pdfrwt>
<pdfrwt beam="2">  1       21 0.70028295E-01 0.41352365E+03</pdfrwt>
<totfact> 0.72541836E+04</totfact>
</mgrwt>
</event>
<event>
 8    1  0.9175398E-006  0.2840855E+03  0.7546771E-02  0.1093478E+00
         21   -1    0    0  504  503  0.00000000000E+00  0.00000000000E+00  0.11333600423E+02  0.11333600423E+02  0.00000000000E+00 0.  1.
         21   -1    0    0  503  504 -0.00000000000E+00 -0.00000000000E+00 -0.17802057185E+04  0.17802057185E+04  0.00000000000E+00 0.  1.
         25    2    1    2    0    0  0.62262044375E+01 -0.64232550491E+02 -0.76026039114E+03  0.77316567985E+03  0.12499887998E+03 0.  0.
         25    2    1    2    0    0 -0.62262044375E+01  0.64232550491E+02 -0.10086117270E+04  0.10183736391E+04  0.12499066717E+03 0.  0.
          5    1    3    3  501    0  0.74657270659E+01 -0.21677742416E+02 -0.17630472987E+02  0.29301624096E+02  0.47000000000E+01 0.  1.
         -5    1    3    3    0  501 -0.12395226284E+01 -0.42554808075E+02 -0.74262991815E+03  0.74386405575E+03  0.47000000000E+01 0.  1.
          5    1    4    4  502    0  0.59979816837E+01  0.40622551937E+02 -0.86504117781E+02  0.95870850122E+02  0.47000000000E+01 0. -1.
         -5    1    4    4    0  502 -0.12224186121E+02  0.23609998554E+02 -0.92210760918E+03  0.92250278897E+03  0.47000000000E+01 0. -1.
<mgrwt>
<rscale>  0 0.28408548E+03</rscale>
<asrwt>0</asrwt>
<pdfrwt beam="1">  1       21 0.17436320E-02 0.28408548E+03</pdfrwt>
<pdfrwt beam="2">  1       21 0.27387761E+00 0.28408548E+03</pdfrwt>
<totfact> 0.69854146E+04</totfact>
</mgrwt>
</event>
<event>
 8    1  0.9175398E-006  0.4090497E+03  0.7546771E-02  0.1040690E+00
         21   -1    0    0  504  503  0.00000000000E+00  0.00000000000E+00  0.66769213261E+02  0.66769213261E+02  0.00000000000E+00 0. -1.
         21   -1    0    0  503  504 -0.00000000000E+00 -0.00000000000E+00 -0.62649265539E+03  0.62649265539E+03  0.00000000000E+00 0. -1.
         25    2    1    2    0    0  0.27595485552E+01  0.92412917706E+02 -0.54653779380E+02  0.16480469628E+03  0.12500315936E+03 0.  0.
         25    2    1    2    0    0 -0.27595485552E+01 -0.92412917706E+02 -0.50506966275E+03  0.52845717237E+03  0.12499542525E+03 0.  0.
          5    1    3    3  501    0 -0.46147494337E+01  0.72633913265E+02  0.28936194706E+02  0.78462568353E+02  0.47000000000E+01 0. -1.
         -5    1    3    3    0  501  0.73742979889E+01  0.19779004441E+02 -0.83589974086E+02  0.86342127928E+02  0.47000000000E+01 0. -1.
          5    1    4    4  502    0 -0.33059922715E+02 -0.33150507311E+02 -0.40777364982E+03  0.41047941984E+03  0.47000000000E+01 0.  1.
         -5    1    4    4    0  502  0.30300374160E+02 -0.59262410395E+02 -0.97296012927E+02  0.11797775253E+03  0.47000000000E+01 0.  1.
<mgrwt>
<rscale>  0 0.40904974E+03</rscale>
<asrwt>0</asrwt>
<pdfrwt beam="1">  1       21 0.10272187E-01 0.40904974E+03</pdfrwt>
<pdfrwt beam="2">  1       21 0.96383484E-01 0.40904974E+03</pdfrwt>
<totfact> 0.64440071E+04</totfact>
</mgrwt>
</event>
<event>
 8    1  0.9175398E-006  0.2510643E+03  0.7546771E-02  0.1112634E+00
         21   -1    0    0  504  503  0.00000000000E+00  0.00000000000E+00  0.61836765258E+03  0.61836765258E+03  0.00000000000E+00 0.  1.
         21   -1    0    0  503  504 -0.00000000000E+00 -0.00000000000E+00 -0.25483732078E+02  0.25483732078E+02  0.00000000000E+00 0.  1.
         25    2    1    2    0    0  0.77107129138E+01  0.83577590967E+01  0.30161042805E+03  0.32668511879E+03  0.12500003720E+03 0.  0.
         25    2    1    2    0    0 -0.77107129138E+01 -0.83577590967E+01  0.29127349244E+03  0.31716626586E+03  0.12499954228E+03 0.  0.
          5    1    3    3  501    0  0.19010710527E+02 -0.45058109032E+02  0.53671307690E+02  0.72762212538E+02  0.47000000000E+01 0. -1.
         -5    1    3    3    0  501 -0.11299997613E+02  0.53415868129E+02  0.24793912036E+03  0.25392290625E+03  0.47000000000E+01 0. -1.
          5    1    4    4  502    0 -0.27229770420E+02 -0.51303628414E+02  0.24149214794E+03  0.24842316761E+03  0.47000000000E+01 0.  1.
         -5    1    4    4    0  502  0.19519057507E+02  0.42945869317E+02  0.49781344502E+02  0.68743098255E+02  0.47000000000E+01 0.  1.
<mgrwt>
<rscale>  0 0.25106426E+03</rscale>
<asrwt>0</asrwt>
<pdfrwt beam="1">  1       21 0.95133474E-01 0.25106426E+03</pdfrwt>
<pdfrwt beam="2">  1       21 0.39205746E-02 0.25106426E+03</pdfrwt>
<totfact> 0.36846607E+05</totfact>
</mgrwt>
</event>
<event>
 8    1  0.9175398E-006  0.4330710E+03  0.7546771E-02  0.1032894E+00
         21   -1    0    0  504  503  0.00000000000E+00  0.00000000000E+00  0.36984728830E+02  0.36984728830E+02  0.00000000000E+00 0.  1.
         21   -1    0    0  503  504 -0.00000000000E+00 -0.00000000000E+00 -0.12677562972E+04  0.12677562972E+04  0.00000000000E+00 0.  1.
         25    2    1    2    0    0  0.67348073605E+01 -0.17605884430E+03 -0.66062692776E+03  0.69505067703E+03  0.12500172667E+03 0.  0.
         25    2    1    2    0    0 -0.67348073605E+01  0.17605884430E+03 -0.57014464057E+03  0.60969034896E+03  0.12496133865E+03 0.  0.
          5    1    3    3  501    0  0.43514567950E+02 -0.13136969656E+03 -0.30826840488E+03  0.33793936475E+03  0.47000000000E+01 0.  1.
         -5    1    3    3    0  501 -0.36779760590E+02 -0.44689147745E+02 -0.35235852288E+03  0.35711131228E+03  0.47000000000E+01 0.  1.
          5    1    4    4  502    0 -0.53886326676E+02  0.15166302738E+03 -0.45908703143E+03  0.48650632319E+03  0.47000000000E+01 0. -1.
         -5    1    4    4    0  502  0.47151519315E+02  0.24395816922E+02 -0.11105760914E+03  0.12318402577E+03  0.47000000000E+01 0. -1.
<mgrwt>
<rscale>  0 0.43307100E+03</rscale>
<asrwt>0</asrwt>
<pdfrwt beam="1">  1       21 0.56899592E-02 0.43307100E+03</pdfrwt>
<pdfrwt beam="2">  1       21 0.19503940E+00 0.43307100E+03</pdfrwt>
<totfact> 0.27869180E+04</totfact>
</mgrwt>
</event>
<event>
 8    1  0.9175398E-006  0.2652034E+03  0.7546771E-02  0.1104057E+00
         21   -1    0    0  504  503  0.00000000000E+00  0.00000000000E+00  0.25069402566E+03  0.25069402566E+03  0.00000000000E+00 0. -1.
         21   -1    0    0  503  504 -0.00000000000E+00 -0.00000000000E+00 -0.70138123248E+02  0.70138123248E+02  0.00000000000E+00 0. -1.
         25    2    1    2    0    0 -0.17047819110E+01  0.23809884043E+02  0.13525004702E+03  0.18571309966E+03  0.12500785298E+03 0.  0.
         25    2    1    2    0    0  0.17047819110E+01 -0.23809884043E+02  0.45305855398E+02  0.13511904925E+03  0.12503887426E+03 0.  0.
          5    1    3    3  501    0  0.77751697352E+00  0.50705307909E+02  0.33989322278E+01  0.51041899682E+02  0.47000000000E+01 0. -1.
         -5    1    3    3    0  501 -0.24822988845E+01 -0.26895423866E+02  0.13185111479E+03  0.13467119998E+03  0.47000000000E+01 0. -1.
          5    1    4    4  502    0  0.56363436891E+02 -0.12709142939E+02 -0.71498519084E+01  0.58408644178E+02  0.47000000000E+01 0. -1.
         -5    1    4    4    0  502 -0.54658654980E+02 -0.11100741104E+02  0.52455707306E+02  0.76710405072E+02  0.47000000000E+01 0. -1.
<mgrwt>
<rscale>  0 0.26520338E+03</rscale>
<asrwt>0</asrwt>
<pdfrwt beam="1">  1       21 0.38568311E-01 0.26520338E+03</pdfrwt>
<pdfrwt beam="2">  1       21 0.10790481E-01 0.26520338E+03</pdfrwt>
<totfact> 0.45294432E+05</totfact>
</mgrwt>
</event>
<event>
 8    1  0.9175398E-006  0.4614050E+03  0.7546771E-02  0.1024375E+00
         21   -1    0    0  504  503  0.00000000000E+00  0.00000000000E+00  0.26481518352E+03  0.26481518352E+03  0.00000000000E+00 0.  1.
         21   -1    0    0  503  504 -0.00000000000E+00 -0.00000000000E+00 -0.20098407433E+03  0.20098407433E+03  0.00000000000E+00 0.  1.
         25    2    1    2    0    0  0.10584882880E+02 -0.96985646771E+02  0.20106429619E+03  0.25606797522E+03  0.12500280518E+03 0.  0.
         25    2    1    2    0    0 -0.10584882880E+02  0.96985646771E+02 -0.13723318700E+03  0.20973128263E+03  0.12504402374E+03 0.  0.
          5    1    3    3  501    0  0.25660150961E+02  0.11198543642E+02  0.13921477026E+01  0.28423208867E+02  0.47000000000E+01 0. -1.
         -5    1    3    3    0  501 -0.15075268081E+02 -0.10818419041E+03  0.19967214849E+03  0.22764476635E+03  0.47000000000E+01 0. -1.
          5    1    4    4  502    0 -0.51687804017E+02  0.17177211764E+02 -0.12670432559E+02  0.56118762899E+02  0.47000000000E+01 0. -1.
         -5    1    4    4    0  502  0.41102921137E+02  0.79808435007E+02 -0.12456275444E+03  0.15361251973E+03  0.47000000000E+01 0. -1.
<mgrwt>
<rscale>  0 0.46140496E+03</rscale>
<asrwt>0</asrwt>
<pdfrwt beam="1">  1       21 0.40740797E-01 0.46140496E+03</pdfrwt>
<pdfrwt beam="2">  1       21 0.30920627E-01 0.46140496E+03</pdfrwt>
<totfact> 0.53650009E+04</totfact>
</mgrwt>
</event>
<event>
 8    1  0.9175398E-006  0.3719836E+03  0.7546771E-02  0.1053937E+00
         21   -1    0    0  504  503  0.00000000000E+00  0.00000000000E+00  0.35507342432E+03  0.35507342432E+03  0.00000000000E+00 0.  1.
         21   -1    0    0  503  504 -0.00000000000E+00 -0.00000000000E+00 -0.97424753611E+02  0.97424753611E+02  0.00000000000E+00 0.  1.
         25    2    1    2    0    0 -0.12792473370E+03  0.33751163053E+02  0.17537436756E+03  0.25275517048E+03  0.12500051562E+03 0.  0.
         25    2    1    2    0    0  0.12792473370E+03 -0.33751163053E+02  0.82274303144E+02  0.19974300745E+03  0.12499731824E+03 0.  0.
          5    1    3    3  501    0 -0.38777023454E+01 -0.37677324221E+02  0.45814113967E+02  0.59629190624E+02  0.47000000000E+01 0. -1.
         -5    1    3    3    0  501 -0.12404703136E+03  0.71428487274E+02  0.12956025360E+03  0.19312597986E+03  0.47000000000E+01 0. -1.
          5    1    4    4  502    0  0.96334355713E+02  0.36212340548E+02  0.61871570647E+02  0.12017413596E+03  0.47000000000E+01 0.  1.
         -5    1    4    4    0  502  0.31590377990E+02 -0.69963503601E+02  0.20402732497E+02  0.79568871495E+02  0.47000000000E+01 0.  1.
<mgrwt>
<rscale>  0 0.37198355E+03</rscale>
<asrwt>0</asrwt>
<pdfrwt beam="1">  1       21 0.54626680E-01 0.37198355E+03</pdfrwt>
<pdfrwt beam="2">  1       21 0.14988424E-01 0.37198355E+03</pdfrwt>
<totfact> 0.11805306E+05</totfact>
</mgrwt>
</event>
<event>
 8    1  0.9175398E-006  0.4220347E+03  0.7546771E-02  0.1036406E+00
         21   -1    0    0  504  503  0.00000000000E+00  0.00000000000E+00  0.38890899945E+03  0.38890899945E+03  0.00000000000E+00 0.  1.
         21   -1    0    0  503  504 -0.00000000000E+00 -0.00000000000E+00 -0.11449548752E+03  0.11449548752E+03  0.00000000000E+00 0.  1.
         25    2    1    2    0    0  0.99769795562E+02 -0.12962100000E+03  0.19250380478E+03  0.28184308156E+03  0.12498876757E+03 0.  0.
         25    2    1    2    0    0 -0.99769795562E+02  0.12962100000E+03  0.81909707151E+02  0.22156140541E+03  0.12499856197E+03 0.  0.
          5    1    3    3  501    0  0.88228001979E+02 -0.51686970446E+02  0.17223731150E+03  0.20035844060E+03  0.47000000000E+01 0. -1.
         -5    1    3    3    0  501  0.11541793583E+02 -0.77934029558E+02  0.20266493286E+02  0.81484640960E+02  0.47000000000E+01 0. -1.
          5    1    4    4  502    0 -0.84427854974E+01  0.23314945289E+02 -0.32101377043E+02  0.40834491657E+02  0.47000000000E+01 0. -1.
         -5    1    4    4    0  502 -0.91327010064E+02  0.10630605471E+03  0.11401108419E+03  0.18072691376E+03  0.47000000000E+01 0. -1.
<mgrwt>
<rscale>  0 0.42203472E+03</rscale>
<asrwt>0</asrwt>
<pdfrwt beam="1">  1       21 0.59832153E-01 0.42203472E+03</pdfrwt>
<pdfrwt beam="2">  1       21 0.17614691E-01 0.42203472E+03</pdfrwt>
<totfact> 0.70977490E+04</totfact>
</mgrwt>
</event>
<event>
 8    1  0.9175398E-006  0.3296133E+03  0.7546771E-02  0.1071308E+00
         21   -1    0    0  504  503  0.00000000000E+00  0.00000000000E+00  0.17947892531E+03  0.17947892531E+03  0.00000000000E+00 0.  1.
         21   -1    0    0  503  504 -0.00000000000E+00 -0.00000000000E+00 -0.15133383298E+03  0.15133383298E+03  0.00000000000E+00 0.  1.
         25    2    1    2    0    0  0.64122037491E+02  0.55458012948E+02 -0.52115311283E+02  0.15977508657E+03  0.12499938290E+03 0.  0.
         25    2    1    2    0    0 -0.64122037491E+02 -0.55458012948E+02  0.80260403615E+02  0.17103767173E+03  0.12499970348E+03 0.  0.
          5    1    3    3  501    0  0.23915428409E+02 -0.34789016005E+02  0.91181624828E+01  0.43444841324E+02  0.47000000000E+01 0.  1.
         -5    1    3    3    0  501  0.40206609082E+02  0.90247028953E+02 -0.61233473766E+02  0.11633024524E+03  0.47000000000E+01 0.  1.
          5    1    4    4  502    0 -0.77277739317E+02  0.12397859031E+02  0.60383187497E+02  0.98963504560E+02  0.47000000000E+01 0.  1.
         -5    1    4    4    0  502  0.13155701826E+02 -0.67855871979E+02  0.19877216118E+02  0.72074167169E+02  0.47000000000E+01 0.  1.
<mgrwt>
<rscale>  0 0.32961331E+03</rscale>
<asrwt>0</asrwt>
<pdfrwt beam="1">  1       21 0.27612142E-01 0.32961331E+03</pdfrwt>
<pdfrwt beam="2">  1       21 0.23282128E-01 0.32961331E+03</pdfrwt>
<totfact> 0.20973241E+05</totfact>
</mgrwt>
</event>
<event>
 8    1  0.9175398E-006  0.4156956E+03  0.7546771E-02  0.1038476E+00
         21   -1    0    0  504  503  0.00000000000E+00  0.00000000000E+00  0.49498502087E+03  0.49498502087E+03  0.00000000000E+00 0.  1.
         21   -1    0    0  503  504 -0.00000000000E+00 -0.00000000000E+00 -0.87276817262E+02  0.87276817262E+02  0.00000000000E+00 0.  1.
         25    2    1    2    0    0  0.14334236258E+03  0.62136536325E+02  0.12501874416E+03  0.23592915339E+03  0.12499958788E+03 0.  0.
         25    2    1    2    0    0 -0.14334236258E+03 -0.62136536325E+02  0.28268945944E+03  0.34633268474E+03  0.12500006395E+03 0.  0.
          5    1    3    3  501    0  0.13562603543E+03  0.16121604243E+02  0.46282075971E+02  0.14428599435E+03  0.47000000000E+01 0.  1.
         -5    1    3    3    0  501  0.77163271435E+01  0.46014932083E+02  0.78736668194E+02  0.91643159033E+02  0.47000000000E+01 0.  1.
          5    1    4    4  502    0 -0.81293461419E+02 -0.37867645246E+02  0.46994346076E+02  0.10135651922E+03  0.47000000000E+01 0.  1.
         -5    1    4    4    0  502 -0.62048901158E+02 -0.24268891079E+02  0.23569511336E+03  0.24497616552E+03  0.47000000000E+01 0.  1.
<mgrwt>
<rscale>  0 0.41569564E+03</rscale>
<asrwt>0</asrwt>
<pdfrwt beam="1">  1       21 0.76151540E-01 0.41569564E+03</pdfrwt>
<pdfrwt beam="2">  1       21 0.13427203E-01 0.41569564E+03</pdfrwt>
<totfact> 0.68636658E+04</totfact>
</mgrwt>
</event>
<event>
 8    1  0.9175398E-006  0.2526197E+03  0.7546771E-02  0.1111660E+00
         21   -1    0    0  504  503  0.00000000000E+00  0.00000000000E+00  0.14825475361E+03  0.14825475361E+03  0.00000000000E+00 0.  1.
         21   -1    0    0  503  504 -0.00000000000E+00 -0.00000000000E+00 -0.10761326416E+03  0.10761326416E+03  0.00000000000E+00 0.  1.
         25    2    1    2    0    0 -0.17675943429E+02 -0.12852469226E+01  0.15691157655E+02  0.12721821723E+03  0.12499668608E+03 0.  0.
         25    2    1    2    0    0  0.17675943429E+02  0.12852469226E+01  0.24950331799E+02  0.12864980053E+03  0.12495663762E+03 0.  0.
          5    1    3    3  501    0  0.52286668119E+02 -0.90180041268E+01  0.19108379095E+02  0.56590107025E+02  0.47000000000E+01 0.  1.
         -5    1    3    3    0  501 -0.69962611549E+02  0.77327572041E+01 -0.34172214406E+01  0.70628110205E+02  0.47000000000E+01 0.  1.
          5    1    4    4  502    0 -0.50764123565E+02 -0.58782768032E+00 -0.94987421200E+01  0.51861911694E+02  0.47000000000E+01 0.  1.
         -5    1    4    4    0  502  0.68440066995E+02  0.18730746030E+01  0.34449073919E+02  0.76787888840E+02  0.47000000000E+01 0.  1.
<mgrwt>
<rscale>  0 0.25261970E+03</rscale>
<asrwt>0</asrwt>
<pdfrwt beam="1">  1       21 0.22808424E-01 0.25261970E+03</pdfrwt>
<pdfrwt beam="2">  1       21 0.16555887E-01 0.25261970E+03</pdfrwt>
<totfact> 0.58429548E+05</totfact>
</mgrwt>
</event>
<event>
 8    1  0.9175398E-006  0.3761057E+03  0.7546771E-02  0.1052383E+00
         21   -1    0    0  504  503  0.00000000000E+00  0.00000000000E+00  0.13255156635E+03  0.13255156635E+03  0.00000000000E+00 0. -1.
         21   -1    0    0  503  504 -0.00000000000E+00 -0.00000000000E+00 -0.26679336952E+03  0.26679336952E+03  0.00000000000E+00 0. -1.
         25    2    1    2    0    0 -0.33315149854E+02 -0.60692572707E+02 -0.19692491102E+03  0.24330705935E+03  0.12500166781E+03 0.  0.
         25    2    1    2    0    0  0.33315149854E+02  0.60692572707E+02  0.62683107847E+02  0.15603787652E+03  0.12500063723E+03 0.  0.
          5    1    3    3  501    0  0.17640714264E+01  0.25239309035E+02 -0.11981540461E+03  0.12254776967E+03  0.47000000000E+01 0. -1.
         -5    1    3    3    0  501 -0.35079221280E+02 -0.85931881742E+02 -0.77109506414E+02  0.12075928968E+03  0.47000000000E+01 0. -1.
          5    1    4    4  502    0  0.29824295148E+02  0.70757502324E+02 -0.14241540191E+02  0.78236974527E+02  0.47000000000E+01 0.  1.
         -5    1    4    4    0  502  0.34908547060E+01 -0.10064929617E+02  0.76924648038E+02  0.77800901991E+02  0.47000000000E+01 0.  1.
<mgrwt>
<rscale>  0 0.37610572E+03</rscale>
<asrwt>0</asrwt>
<pdfrwt beam="1">  1       21 0.20392549E-01 0.37610572E+03</pdfrwt>
<pdfrwt beam="2">  1       21 0.41045134E-01 0.37610572E+03</pdfrwt>
<totfact> 0.12085735E+05</totfact>
</mgrwt>
</event>
<event>
 8    1  0.9175398E-006  0.3724560E+03  0.7546771E-02  0.1053758E+00
         21   -1    0    0  504  503  0.00000000000E+00  0.00000000000E+00  0.16772001614E+04  0.16772001614E+04  0.00000000000E+00 0. -1.
         21   -1    0    0  503  504 -0.00000000000E+00 -0.00000000000E+00 -0.20677832160E+02  0.20677832160E+02  0.00000000000E+00 0. -1.
         25    2    1    2    0    0  0.13511898821E+03 -0.20975409374E+02  0.91519588421E+03  0.93375859209E+03  0.12499797225E+03 0.  0.
         25    2    1    2    0    0 -0.13511898821E+03  0.20975409374E+02  0.74132644502E+03  0.76411940145E+03  0.12496580658E+03 0.  0.
          5    1    3    3  501    0  0.68252936546E+02 -0.61052734654E+02  0.30212444767E+03  0.31573275350E+03  0.47000000000E+01 0.  1.
         -5    1    3    3    0  501  0.66866051668E+02  0.40077325280E+02  0.61307143654E+03  0.61802583859E+03  0.47000000000E+01 0.  1.
          5    1    4    4  502    0 -0.70851008446E+02  0.48234778894E+02  0.60325388358E+03  0.60933061416E+03  0.47000000000E+01 0. -1.
         -5    1    4    4    0  502 -0.64267979768E+02 -0.27259369521E+02  0.13807256144E+03  0.15478878730E+03  0.47000000000E+01 0. -1.
<mgrwt>
<rscale>  0 0.37245598E+03</rscale>
<asrwt>0</asrwt>
<pdfrwt beam="1">  1       21 0.25803069E+00 0.37245598E+03</pdfrwt>
<pdfrwt beam="2">  1       21 0.31812063E-02 0.37245598E+03</pdfrwt>
<totfact> 0.30740731E+04</totfact>
</mgrwt>
</event>
<event>
 8    1  0.9175398E-006  0.3206303E+03  0.7546771E-02  0.1075360E+00
         21   -1    0    0  504  503  0.00000000000E+00  0.00000000000E+00  0.22134710743E+02  0.22134710743E+02  0.00000000000E+00 0.  1.
         21   -1    0    0  503  504 -0.00000000000E+00 -0.00000000000E+00 -0.11611151854E+04  0.11611151854E+04  0.00000000000E+00 0.  1.
         25    2    1    2    0    0 -0.62006681741E+02  0.53095497918E+02 -0.78504961274E+03  0.79911929194E+03  0.12499915121E+03 0.  0.
         25    2    1    2    0    0  0.62006681741E+02 -0.53095497918E+02 -0.35393086188E+03  0.38413060417E+03  0.12500122235E+03 0.  0.
          5    1    3    3  501    0  0.13133767225E+02 -0.18184456745E+02 -0.39060283111E+03  0.39127462476E+03  0.47000000000E+01 0.  1.
         -5    1    3    3    0  501 -0.75140448966E+02  0.71279954663E+02 -0.39444678163E+03  0.40784466718E+03  0.47000000000E+01 0.  1.
          5    1    4    4  502    0  0.50842191069E+02 -0.47758139837E+02 -0.36195904326E+03  0.36864916562E+03  0.47000000000E+01 0. -1.
         -5    1    4    4    0  502  0.11164490672E+02 -0.53373580807E+01  0.80281813817E+01  0.15481438549E+02  0.47000000000E+01 0. -1.
<mgrwt>
<rscale>  0 0.32063031E+03</rscale>
<asrwt>0</asrwt>
<pdfrwt beam="1">  1       21 0.34053401E-02 0.32063031E+03</pdfrwt>
<pdfrwt beam="2">  1       21 0.17863311E+00 0.32063031E+03</pdfrwt>
<totfact> 0.90104253E+04</totfact>
</mgrwt>
</event>
<event>
 8    1  0.9175398E-006  0.2739212E+03  0.7546771E-02  0.1099056E+00
         21   -1    0    0  504  503  0.00000000000E+00  0.00000000000E+00  0.49889263874E+03  0.49889263874E+03  0.00000000000E+00 0. -1.
         21   -1    0    0  503  504 -0.00000000000E+00 -0.00000000000E+00 -0.37599684136E+02  0.37599684136E+02  0.00000000000E+00 0. -1.
         25    2    1    2    0    0  0.37323439680E+02 -0.41591857359E+02  0.23667178373E+03  0.27342694578E+03  0.12500335884E+03 0.  0.
         25    2    1    2    0    0 -0.37323439680E+02  0.41591857359E+02  0.22462117088E+03  0.26306537710E+03  0.12500320184E+03 0.  0.
          5    1    3    3  501    0  0.91234739659E+00 -0.10683569973E+02  0.22330101136E+03  0.22360769826E+03  0.47000000000E+01 0.  1.
         -5    1    3    3    0  501  0.36411092284E+02 -0.30908287386E+02  0.13370772366E+02  0.49819247527E+02  0.47000000000E+01 0.  1.
          5    1    4    4  502    0 -0.63899505942E+02  0.16582039357E+01  0.48244403697E+02  0.80221624192E+02  0.47000000000E+01 0.  1.
         -5    1    4    4    0  502  0.26576066262E+02  0.39933653423E+02  0.17637676719E+03  0.18284375290E+03  0.47000000000E+01 0.  1.
<mgrwt>
<rscale>  0 0.27392120E+03</rscale>
<asrwt>0</asrwt>
<pdfrwt beam="1">  1       21 0.76752709E-01 0.27392120E+03</pdfrwt>
<pdfrwt beam="2">  1       21 0.57845671E-02 0.27392120E+03</pdfrwt>
<totfact> 0.31039857E+05</totfact>
</mgrwt>
</event>
<event>
 8    1  0.9175398E-006  0.2731810E+03  0.7546771E-02  0.1099473E+00
         21   -1    0    0  504  503  0.00000000000E+00  0.00000000000E+00  0.16845966627E+03  0.16845966627E+03  0.00000000000E+00 0.  1.
         21   -1    0    0  503  504 -0.00000000000E+00 -0.00000000000E+00 -0.11075033255E+03  0.11075033255E+03  0.00000000000E+00 0.  1.
         25    2    1    2    0    0  0.52478346470E+02 -0.99633192295E+01  0.15351365947E+02  0.13682873446E+03  0.12503276994E+03 0.  0.
         25    2    1    2    0    0 -0.52478346470E+02  0.99633192295E+01  0.42357967773E+02  0.14238126437E+03  0.12499992972E+03 0.  0.
          5    1    3    3  501    0  0.21017808385E+02  0.56586380874E+02 -0.36601538733E+01  0.60656850364E+02  0.47000000000E+01 0. -1.
         -5    1    3    3    0  501  0.31460538085E+02 -0.66549700103E+02  0.19011519821E+02  0.76171884093E+02  0.47000000000E+01 0. -1.
          5    1    4    4  502    0  0.16696721041E+02 -0.13555709532E+02 -0.31469840343E+02  0.38405450208E+02  0.47000000000E+01 0. -1.
         -5    1    4    4    0  502 -0.69175067511E+02  0.23519028762E+02  0.73827808116E+02  0.10397581416E+03  0.47000000000E+01 0. -1.
<mgrwt>
<rscale>  0 0.27318100E+03</rscale>
<asrwt>0</asrwt>
<pdfrwt beam="1">  1       21 0.25916872E-01 0.27318100E+03</pdfrwt>
<pdfrwt beam="2">  1       21 0.17038513E-01 0.27318100E+03</pdfrwt>
<totfact> 0.43211756E+05</totfact>
</mgrwt>
</event>
<event>
 8    1  0.9175398E-006  0.2953629E+03  0.7546771E-02  0.1087582E+00
         21   -1    0    0  504  503  0.00000000000E+00  0.00000000000E+00  0.57133670932E+02  0.57133670932E+02  0.00000000000E+00 0. -1.
         21   -1    0    0  503  504 -0.00000000000E+00 -0.00000000000E+00 -0.38173298695E+03  0.38173298695E+03  0.00000000000E+00 0. -1.
         25    2    1    2    0    0 -0.47051892309E+02 -0.28527095940E+01 -0.68764089561E+02  0.15025330354E+03  0.12500214674E+03 0.  0.
         25    2    1    2    0    0  0.47051892309E+02  0.28527095940E+01 -0.25583522646E+03  0.28861335434E+03  0.12499594667E+03 0.  0.
          5    1    3    3  501    0 -0.41525035536E+02 -0.48626003698E+02 -0.80042613671E+02  0.10255596918E+03  0.47000000000E+01 0.  1.
         -5    1    3    3    0  501 -0.55268567736E+01  0.45773294104E+02  0.11278524111E+02  0.47697334360E+02  0.47000000000E+01 0.  1.
          5    1    4    4  502    0  0.62748457503E+00  0.50765429227E+02 -0.47050834432E+02  0.69378624678E+02  0.47000000000E+01 0. -1.
         -5    1    4    4    0  502  0.46424407734E+02 -0.47912719633E+02 -0.20878439203E+03  0.21923472966E+03  0.47000000000E+01 0. -1.
<mgrwt>
<rscale>  0 0.29536287E+03</rscale>
<asrwt>0</asrwt>
<pdfrwt beam="1">  1       21 0.87897955E-02 0.29536287E+03</pdfrwt>
<pdfrwt beam="2">  1       21 0.58728152E-01 0.29536287E+03</pdfrwt>
<totfact> 0.26920137E+05</totfact>
</mgrwt>
</event>
<event>
 8    1  0.9175398E-006  0.2809736E+03  0.7546771E-02  0.1095158E+00
         21   -1    0    0  504  503  0.00000000000E+00  0.00000000000E+00  0.74162879168E+01  0.74162879168E+01  0.00000000000E+00 0. -1.
         21   -1    0    0  503  504 -0.00000000000E+00 -0.00000000000E+00 -0.26612422546E+04  0.26612422546E+04  0.00000000000E+00 0. -1.
         25    2    1    2    0    0 -0.53839269874E+02 -0.34624167149E+02 -0.13650042842E+04  0.13722081798E+04  0.12498437030E+03 0.  0.
         25    2    1    2    0    0  0.53839269874E+02  0.34624167149E+02 -0.12888216825E+04  0.12964503628E+04  0.12499885555E+03 0.  0.
          5    1    3    3  501    0 -0.63616733616E+02 -0.24534440696E+02 -0.32548026609E+03  0.33257859401E+03  0.47000000000E+01 0. -1.
         -5    1    3    3    0  501  0.97774637421E+01 -0.10089726453E+02 -0.10395240181E+04  0.10396295858E+04  0.47000000000E+01 0. -1.
          5    1    4    4  502    0  0.69520274616E+02  0.67872616677E+02 -0.73792087751E+03  0.74430442169E+03  0.47000000000E+01 0. -1.
         -5    1    4    4    0  502 -0.15681004742E+02 -0.33248449528E+02 -0.55090080499E+03  0.55214594107E+03  0.47000000000E+01 0. -1.
<mgrwt>
<rscale>  0 0.28097358E+03</rscale>
<asrwt>0</asrwt>
<pdfrwt beam="1">  1       21 0.11409670E-02 0.28097358E+03</pdfrwt>
<pdfrwt beam="2">  1       21 0.40942203E+00 0.28097358E+03</pdfrwt>
<totfact> 0.21170318E+04</totfact>
</mgrwt>
</event>
<event>
 8    1  0.9175398E-006  0.3110478E+03  0.7546771E-02  0.1079845E+00
         21   -1    0    0  504  503  0.00000000000E+00  0.00000000000E+00  0.65862697447E+03  0.65862697447E+03  0.00000000000E+00 0.  1.
         21   -1    0    0  503  504 -0.00000000000E+00 -0.00000000000E+00 -0.36724411955E+02  0.36724411955E+02  0.00000000000E+00 0.  1.
         25    2    1    2    0    0 -0.39876223740E+02 -0.61550073362E+02  0.18477179407E+03  0.23482886506E+03  0.12500182090E+03 0.  0.
         25    2    1    2    0    0  0.39876223740E+02  0.61550073362E+02  0.43713076844E+03  0.46052252136E+03  0.12497663469E+03 0.  0.
          5    1    3    3  501    0 -0.94658878062E+01  0.33970237886E+02  0.17225326426E+02  0.39526977680E+02  0.47000000000E+01 0.  1.
         -5    1    3    3    0  501 -0.30410335933E+02 -0.95520311248E+02  0.16754646765E+03  0.19530188738E+03  0.47000000000E+01 0.  1.
          5    1    4    4  502    0  0.19269832258E+02 -0.30331784937E+02  0.48069551697E+02  0.60200626351E+02  0.47000000000E+01 0.  1.
         -5    1    4    4    0  502  0.20606391481E+02  0.91881858299E+02  0.38906121674E+03  0.40032189501E+03  0.47000000000E+01 0.  1.
<mgrwt>
<rscale>  0 0.31104783E+03</rscale>
<asrwt>0</asrwt>
<pdfrwt beam="1">  1       21 0.10132722E+00 0.31104783E+03</pdfrwt>
<pdfrwt beam="2">  1       21 0.56499100E-02 0.31104783E+03</pdfrwt>
<totfact> 0.16758041E+05</totfact>
</mgrwt>
</event>
<event>
 8    1  0.9175398E-006  0.2806903E+03  0.7546771E-02  0.1095313E+00
         21   -1    0    0  504  503  0.00000000000E+00  0.00000000000E+00  0.19562194338E+03  0.19562194338E+03  0.00000000000E+00 0.  1.
         21   -1    0    0  503  504 -0.00000000000E+00 -0.00000000000E+00 -0.10068789448E+03  0.10068789448E+03  0.00000000000E+00 0.  1.
         25    2    1    2    0    0  0.38143818029E+01 -0.71447171403E+01  0.11429108349E+03  0.16956743391E+03  0.12500026554E+03 0.  0.
         25    2    1    2    0    0 -0.38143818029E+01  0.71447171403E+01 -0.19357034589E+02  0.12674240395E+03  0.12499338255E+03 0.  0.
          5    1    3    3  501    0  0.34161973708E+02 -0.50465768165E+02  0.25752823751E+02  0.66325953708E+02  0.47000000000E+01 0.  1.
         -5    1    3    3    0  501 -0.30347591905E+02  0.43321051025E+02  0.88538259736E+02  0.10324148020E+03  0.47000000000E+01 0.  1.
          5    1    4    4  502    0  0.27190235238E+02  0.14971157888E+02 -0.64200666112E+02  0.71465096306E+02  0.47000000000E+01 0. -1.
         -5    1    4    4    0  502 -0.31004617041E+02 -0.78264407478E+01  0.44843631522E+02  0.55277307647E+02  0.47000000000E+01 0. -1.
<mgrwt>
<rscale>  0 0.28069030E+03</rscale>
<asrwt>0</asrwt>
<pdfrwt beam="1">  1       21 0.30095683E-01 0.28069030E+03</pdfrwt>
<pdfrwt beam="2">  1       21 0.15490445E-01 0.28069030E+03</pdfrwt>
<totfact> 0.38450016E+05</totfact>
</mgrwt>
</event>
<event>
 8    1  0.9175398E-006  0.3188775E+03  0.7546771E-02  0.1076167E+00
         21   -1    0    0  504  503  0.00000000000E+00  0.00000000000E+00  0.54592250962E+03  0.54592250962E+03  0.00000000000E+00 0.  1.
         21   -1    0    0  503  504 -0.00000000000E+00 -0.00000000000E+00 -0.46564695982E+02  0.46564695982E+02  0.00000000000E+00 0.  1.
         25    2    1    2    0    0 -0.27739988791E+02 -0.91604787829E+02  0.20282443296E+03  0.25675801137E+03  0.12500392660E+03 0.  0.
         25    2    1    2    0    0  0.27739988791E+02  0.91604787829E+02  0.29653338067E+03  0.33572919423E+03  0.12498440652E+03 0.  0.
          5    1    3    3  501    0  0.32579436330E+02 -0.57996552902E+02  0.16482053361E+03  0.17780021968E+03  0.47000000000E+01 0.  1.
         -5    1    3    3    0  501 -0.60319425121E+02 -0.33608234926E+02  0.38003899352E+02  0.78957791685E+02  0.47000000000E+01 0.  1.
          5    1    4    4  502    0  0.13537538494E+02 -0.23424193092E+02  0.12942998417E+03  0.13231087851E+03  0.47000000000E+01 0.  1.
         -5    1    4    4    0  502  0.14202450298E+02  0.11502898092E+03  0.16710339650E+03  0.20341831571E+03  0.47000000000E+01 0.  1.
<mgrwt>
<rscale>  0 0.31887750E+03</rscale>
<asrwt>0</asrwt>
<pdfrwt beam="1">  1       21 0.83988074E-01 0.31887750E+03</pdfrwt>
<pdfrwt beam="2">  1       21 0.71637998E-02 0.31887750E+03</pdfrwt>
<totfact> 0.17250415E+05</totfact>
</mgrwt>
</event>
<event>
 8    1  0.9175398E-006  0.5223120E+03  0.7546771E-02  0.1008114E+00
         21   -1    0    0  504  503  0.00000000000E+00  0.00000000000E+00  0.22297664210E+03  0.22297664210E+03  0.00000000000E+00 0.  1.
         21   -1    0    0  503  504 -0.00000000000E+00 -0.00000000000E+00 -0.30587262003E+03  0.30587262003E+03  0.00000000000E+00 0.  1.
         25    2    1    2    0    0 -0.60391937457E+02  0.10577698845E+03  0.15525996462E+03  0.23358917383E+03  0.12498915202E+03 0.  0.
         25    2    1    2    0    0  0.60391937457E+02 -0.10577698845E+03 -0.23815594255E+03  0.29526008830E+03  0.12499723748E+03 0.  0.
          5    1    3    3  501    0 -0.22138761007E+02  0.12418153510E+03  0.87851660825E+02  0.15378941026E+03  0.47000000000E+01 0. -1.
         -5    1    3    3    0  501 -0.38253176450E+02 -0.18404546649E+02  0.67408303790E+02  0.79799763569E+02  0.47000000000E+01 0. -1.
          5    1    4    4  502    0  0.55732171770E+02 -0.65052604476E+02 -0.43327246470E+02  0.96110647724E+02  0.47000000000E+01 0. -1.
         -5    1    4    4    0  502  0.46597656865E+01 -0.40724383972E+02 -0.19482869608E+03  0.19914944058E+03  0.47000000000E+01 0. -1.
<mgrwt>
<rscale>  0 0.52231197E+03</rscale>
<asrwt>0</asrwt>
<pdfrwt beam="1">  1       21 0.34304099E-01 0.52231197E+03</pdfrwt>
<pdfrwt beam="2">  1       21 0.47057326E-01 0.52231197E+03</pdfrwt>
<totfact> 0.31813509E+04</totfact>
</mgrwt>
</event>
<event>
 8    1  0.9175398E-006  0.4456018E+03  0.7546771E-02  0.1029042E+00
         21   -1    0    0  504  503  0.00000000000E+00  0.00000000000E+00  0.25850959770E+02  0.25850959770E+02  0.00000000000E+00 0. -1.
         21   -1    0    0  503  504 -0.00000000000E+00 -0.00000000000E+00 -0.19202474108E+04  0.19202474108E+04  0.00000000000E+00 0. -1.
         25    2    1    2    0    0  0.76857289845E+02  0.12430588845E+03 -0.45586870912E+03  0.49477296627E+03  0.12500004514E+03 0.  0.
         25    2    1    2    0    0 -0.76857289845E+02 -0.12430588845E+03 -0.14385277419E+04  0.14513254043E+04  0.12499747210E+03 0.  0.
          5    1    3    3  501    0  0.56016212174E+02 -0.45132311784E+01 -0.89039760761E+02  0.10539617772E+03  0.47000000000E+01 0.  1.
         -5    1    3    3    0  501  0.20841077671E+02  0.12881911963E+03 -0.36682894836E+03  0.38937678854E+03  0.47000000000E+01 0.  1.
          5    1    4    4  502    0 -0.15284043656E+01 -0.72025368907E+02 -0.10336386379E+04  0.10361567997E+04  0.47000000000E+01 0. -1.
         -5    1    4    4    0  502 -0.75328885480E+02 -0.52280519546E+02 -0.40488910400E+03  0.41516860461E+03  0.47000000000E+01 0. -1.
<mgrwt>
<rscale>  0 0.44560179E+03</rscale>
<asrwt>0</asrwt>
<pdfrwt beam="1">  1       21 0.39770704E-02 0.44560179E+03</pdfrwt>
<pdfrwt beam="2">  1       21 0.29542270E+00 0.44560179E+03</pdfrwt>
<totfact> 0.12157969E+04</totfact>
</mgrwt>
</event>
<event>
 8    1  0.9175398E-006  0.3523015E+03  0.7546771E-02  0.1061674E+00
         21   -1    0    0  504  503  0.00000000000E+00  0.00000000000E+00  0.83280570267E+03  0.83280570267E+03  0.00000000000E+00 0. -1.
         21   -1    0    0  503  504 -0.00000000000E+00 -0.00000000000E+00 -0.37258486387E+02  0.37258486387E+02  0.00000000000E+00 0. -1.
         25    2    1    2    0    0 -0.96863398618E+01 -0.92895092005E+02  0.19592448058E+03  0.25047097727E+03  0.12500394020E+03 0.  0.
         25    2    1    2    0    0  0.96863398618E+01  0.92895092005E+02  0.59962273570E+03  0.61959321178E+03  0.12499999849E+03 0.  0.
          5    1    3    3  501    0 -0.10766865695E+02  0.70731284669E+01 -0.12946752931E+02  0.18859028465E+02  0.47000000000E+01 0.  1.
         -5    1    3    3    0  501  0.10805258334E+01 -0.99968220472E+02  0.20887123351E+03  0.23161194880E+03  0.47000000000E+01 0.  1.
          5    1    4    4  502    0  0.54886472953E+02  0.39907006914E+01  0.24753738833E+03  0.25362432696E+03  0.47000000000E+01 0.  1.
         -5    1    4    4    0  502 -0.45200133091E+02  0.88904391314E+02  0.35208534737E+03  0.36596888483E+03  0.47000000000E+01 0.  1.
<mgrwt>
<rscale>  0 0.35230146E+03</rscale>
<asrwt>0</asrwt>
<pdfrwt beam="1">  1       21 0.12812394E+00 0.35230146E+03</pdfrwt>
<pdfrwt beam="2">  1       21 0.57320754E-02 0.35230146E+03</pdfrwt>
<totfact> 0.90238392E+04</totfact>
</mgrwt>
</event>
<event>
 8    1  0.9175398E-006  0.5289974E+03  0.7546771E-02  0.1006476E+00
         21   -1    0    0  504  503  0.00000000000E+00  0.00000000000E+00  0.10734598497E+03  0.10734598497E+03  0.00000000000E+00 0. -1.
         21   -1    0    0  503  504 -0.00000000000E+00 -0.00000000000E+00 -0.65172039273E+03  0.65172039273E+03  0.00000000000E+00 0. -1.
         25    2    1    2    0    0 -0.86925406804E+02  0.59342007967E+02  0.26247292850E+02  0.16550229021E+03  0.12499834969E+03 0.  0.
         25    2    1    2    0    0  0.86925406804E+02 -0.59342007967E+02 -0.57062170061E+03  0.59356408749E+03  0.12502679913E+03 0.  0.
          5    1    3    3  501    0 -0.11399047257E+03  0.68581312177E+02  0.13355925850E+02  0.13378226703E+03  0.47000000000E+01 0. -1.
         -5    1    3    3    0  501  0.27065065769E+02 -0.92393042099E+01  0.12891367000E+02  0.31720023179E+02  0.47000000000E+01 0. -1.
          5    1    4    4  502    0  0.57965157453E+02 -0.48015105066E+02 -0.11923597895E+03  0.14108408297E+03  0.47000000000E+01 0.  1.
         -5    1    4    4    0  502  0.28960249351E+02 -0.11326902901E+02 -0.45138572166E+03  0.45248000452E+03  0.47000000000E+01 0.  1.
<mgrwt>
<rscale>  0 0.52899742E+03</rscale>
<asrwt>0</asrwt>
<pdfrwt beam="1">  1       21 0.16514767E-01 0.52899742E+03</pdfrwt>
<pdfrwt beam="2">  1       21 0.10026467E+00 0.52899742E+03</pdfrwt>
<totfact> 0.23831242E+04</totfact>
</mgrwt>
</event>
<event>
 8    1  0.9175398E-006  0.3042693E+03  0.7546771E-02  0.1083126E+00
         21   -1    0    0  504  503  0.00000000000E+00  0.00000000000E+00  0.33058113124E+03  0.33058113124E+03  0.00000000000E+00 0.  1.
         21   -1    0    0  503  504 -0.00000000000E+00 -0.00000000000E+00 -0.70012930089E+02  0.70012930089E+02  0.00000000000E+00 0.  1.
         25    2    1    2    0    0  0.22965007938E+02 -0.83611468524E+02  0.13152683314E+03  0.20109996491E+03  0.12499447505E+03 0.  0.
         25    2    1    2    0    0 -0.22965007938E+02  0.83611468524E+02  0.12904136801E+03  0.19949409642E+03  0.12501180180E+03 0.  0.
          5    1    3    3  501    0  0.62151145295E+02 -0.35551373211E+01  0.46690206408E+02  0.77958124896E+02  0.47000000000E+01 0. -1.
         -5    1    3    3    0  501 -0.39186137358E+02 -0.80056331203E+02  0.84836626731E+02  0.12314184001E+03  0.47000000000E+01 0. -1.
          5    1    4    4  502    0 -0.30752403006E+02  0.39614037089E+00 -0.13717640620E+02  0.34001924681E+02  0.47000000000E+01 0.  1.
         -5    1    4    4    0  502  0.77873950679E+01  0.83215328153E+02  0.14275900863E+03  0.16549217174E+03  0.47000000000E+01 0.  1.
<mgrwt>
<rscale>  0 0.30426931E+03</rscale>
<asrwt>0</asrwt>
<pdfrwt beam="1">  1       21 0.50858635E-01 0.30426931E+03</pdfrwt>
<pdfrwt beam="2">  1       21 0.10771220E-01 0.30426931E+03</pdfrwt>
<totfact> 0.25443603E+05</totfact>
</mgrwt>
</event>
<event>
 8    1  0.9175398E-006  0.2695428E+03  0.7546771E-02  0.1101542E+00
         21   -1    0    0  504  503  0.00000000000E+00  0.00000000000E+00  0.36852435367E+02  0.36852435367E+02  0.00000000000E+00 0. -1.
         21   -1    0    0  503  504 -0.00000000000E+00 -0.00000000000E+00 -0.49286640411E+03  0.49286640411E+03  0.00000000000E+00 0. -1.
         25    2    1    2    0    0 -0.20983063800E+02  0.32706028426E+01 -0.31777658482E+03  0.34214256809E+03  0.12501437210E+03 0.  0.
         25    2    1    2    0    0  0.20983063800E+02 -0.32706028426E+01 -0.13823738392E+03  0.18757627139E+03  0.12499718982E+03 0.  0.
          5    1    3    3  501    0 -0.46949432682E+02  0.52284903585E+02 -0.15930944764E+03  0.17418252059E+03  0.47000000000E+01 0.  1.
         -5    1    3    3    0  501  0.25966368882E+02 -0.49014300743E+02 -0.15846713718E+03  0.16796004750E+03  0.47000000000E+01 0.  1.
          5    1    4    4  502    0  0.16313305992E+02  0.52218530650E+02 -0.23054106027E+02  0.59552335810E+02  0.47000000000E+01 0. -1.
         -5    1    4    4    0  502  0.46697578083E+01 -0.55489133493E+02 -0.11518327790E+03  0.12802393558E+03  0.47000000000E+01 0. -1.
<mgrwt>
<rscale>  0 0.26954278E+03</rscale>
<asrwt>0</asrwt>
<pdfrwt beam="1">  1       21 0.56696051E-02 0.26954278E+03</pdfrwt>
<pdfrwt beam="2">  1       21 0.75825605E-01 0.26954278E+03</pdfrwt>
<totfact> 0.33057148E+05</totfact>
</mgrwt>
</event>
<event>
 8    1  0.9175398E-006  0.2557637E+03  0.7546771E-02  0.1109716E+00
         21   -1    0    0  504  503  0.00000000000E+00  0.00000000000E+00  0.96767657203E+02  0.96767657203E+02  0.00000000000E+00 0.  1.
         21   -1    0    0  503  504 -0.00000000000E+00 -0.00000000000E+00 -0.16900030478E+03  0.16900030478E+03  0.00000000000E+00 0.  1.
         25    2    1    2    0    0 -0.16375660834E+02  0.60697801977E+01 -0.57571107347E+02  0.13871915345E+03  0.12499426641E+03 0.  0.
         25    2    1    2    0    0  0.16375660834E+02 -0.60697801977E+01 -0.14661540233E+02  0.12704880853E+03  0.12498573714E+03 0.  0.
          5    1    3    3  501    0 -0.40938983008E+02 -0.39115189220E+02 -0.65236117393E+02  0.86509186622E+02  0.47000000000E+01 0. -1.
         -5    1    3    3    0  501  0.24563322174E+02  0.45184969418E+02  0.76650100464E+01  0.52209966831E+02  0.47000000000E+01 0. -1.
          5    1    4    4  502    0  0.65735338499E+02 -0.26687975180E+02  0.10125785421E+01  0.71109057525E+02  0.47000000000E+01 0. -1.
         -5    1    4    4    0  502 -0.49359677665E+02  0.20618194983E+02 -0.15674118776E+02  0.55939751009E+02  0.47000000000E+01 0. -1.
<mgrwt>
<rscale>  0 0.25576367E+03</rscale>
<asrwt>0</asrwt>
<pdfrwt beam="1">  1       21 0.14887332E-01 0.25576367E+03</pdfrwt>
<pdfrwt beam="2">  1       21 0.26000047E-01 0.25576367E+03</pdfrwt>
<totfact> 0.55240461E+05</totfact>
</mgrwt>
</event>
<event>
 8    1  0.9175398E-006  0.3484737E+03  0.7546771E-02  0.1063243E+00
         21   -1    0    0  504  503  0.00000000000E+00  0.00000000000E+00  0.51222152607E+03  0.51222152607E+03  0.00000000000E+00 0.  1.
         21   -1    0    0  503  504 -0.00000000000E+00 -0.00000000000E+00 -0.59268276534E+02  0.59268276534E+02  0.00000000000E+00 0.  1.
         25    2    1    2    0    0  0.76956189698E+02  0.93350105859E+02  0.21038977947E+03  0.27299739927E+03  0.12500889291E+03 0.  0.
         25    2    1    2    0    0 -0.76956189698E+02 -0.93350105859E+02  0.24256347006E+03  0.29849240333E+03  0.12499672172E+03 0.  0.
          5    1    3    3  501    0  0.95805099910E+02  0.85494671298E+02  0.10613417648E+03  0.16665686126E+03  0.47000000000E+01 0. -1.
         -5    1    3    3    0  501 -0.18848910212E+02  0.78554345607E+01  0.10425560299E+03  0.10634053801E+03  0.47000000000E+01 0. -1.
          5    1    4    4  502    0 -0.10983703585E+03 -0.54262087193E+02  0.17461441299E+03  0.21335611493E+03  0.47000000000E+01 0. -1.
         -5    1    4    4    0  502  0.32880846154E+02 -0.39088018666E+02  0.67949057066E+02  0.85136288404E+02  0.47000000000E+01 0. -1.
<mgrwt>
<rscale>  0 0.34847374E+03</rscale>
<asrwt>0</asrwt>
<pdfrwt beam="1">  1       21 0.78803309E-01 0.34847374E+03</pdfrwt>
<pdfrwt beam="2">  1       21 0.91181967E-02 0.34847374E+03</pdfrwt>
<totfact> 0.12965215E+05</totfact>
</mgrwt>
</event>
<event>
 8    1  0.9175398E-006  0.3254005E+03  0.7546771E-02  0.1073190E+00
         21   -1    0    0  504  503  0.00000000000E+00  0.00000000000E+00  0.17097234160E+03  0.17097234160E+03  0.00000000000E+00 0.  1.
         21   -1    0    0  503  504 -0.00000000000E+00 -0.00000000000E+00 -0.15482840811E+03  0.15482840811E+03  0.00000000000E+00 0.  1.
         25    2    1    2    0    0  0.64832306826E+02 -0.65592399977E+02 -0.40380398777E+02  0.16049723565E+03  0.12499278020E+03 0.  0.
         25    2    1    2    0    0 -0.64832306826E+02  0.65592399977E+02  0.56524332275E+02  0.16530351406E+03  0.12499864271E+03 0.  0.
          5    1    3    3  501    0  0.62684775626E+02 -0.43120302708E+01 -0.68329580036E+02  0.92946200612E+02  0.47000000000E+01 0.  1.
         -5    1    3    3    0  501  0.21475311995E+01 -0.61280369706E+02  0.27949181258E+02  0.67551035037E+02  0.47000000000E+01 0.  1.
          5    1    4    4  502    0 -0.32266216457E+02  0.23560931274E+02  0.92543474814E+02  0.10090892397E+03  0.47000000000E+01 0.  1.
         -5    1    4    4    0  502 -0.32566090369E+02  0.42031468703E+02 -0.36019142539E+02  0.64394590087E+02  0.47000000000E+01 0.  1.
<mgrwt>
<rscale>  0 0.32540053E+03</rscale>
<asrwt>0</asrwt>
<pdfrwt beam="1">  1       21 0.26303437E-01 0.32540053E+03</pdfrwt>
<pdfrwt beam="2">  1       21 0.23819755E-01 0.32540053E+03</pdfrwt>
<totfact> 0.22083942E+05</totfact>
</mgrwt>
</event>
<event>
 8    1  0.9175398E-006  0.3155750E+03  0.7546771E-02  0.1077704E+00
         21   -1    0    0  504  503  0.00000000000E+00  0.00000000000E+00  0.10038785722E+03  0.10038785722E+03  0.00000000000E+00 0.  1.
         21   -1    0    0  503  504 -0.00000000000E+00 -0.00000000000E+00 -0.24800702937E+03  0.24800702937E+03  0.00000000000E+00 0.  1.
         25    2    1    2    0    0  0.14603418303E+01  0.35540287026E+02 -0.17259513778E+03  0.21605366899E+03  0.12499944679E+03 0.  0.
         25    2    1    2    0    0 -0.14603418303E+01 -0.35540287026E+02  0.24975965636E+02  0.13234121761E+03  0.12500061767E+03 0.  0.
          5    1    3    3  501    0  0.46997554225E+02  0.38975542799E+02 -0.33976987535E+02  0.70031340995E+02  0.47000000000E+01 0.  1.
         -5    1    3    3    0  501 -0.45537212395E+02 -0.34352557731E+01 -0.13861815025E+03  0.14602232799E+03  0.47000000000E+01 0.  1.
          5    1    4    4  502    0  0.20247097273E+02 -0.52736774391E+02  0.63206033443E+02  0.84901148312E+02  0.47000000000E+01 0. -1.
         -5    1    4    4    0  502 -0.21707439104E+02  0.17196487365E+02 -0.38230067807E+02  0.47440069294E+02  0.47000000000E+01 0. -1.
<mgrwt>
<rscale>  0 0.31557499E+03</rscale>
<asrwt>0</asrwt>
<pdfrwt beam="1">  1       21 0.15444286E-01 0.31557499E+03</pdfrwt>
<pdfrwt beam="2">  1       21 0.38154927E-01 0.31557499E+03</pdfrwt>
<totfact> 0.23903934E+05</totfact>
</mgrwt>
</event>
<event>
 8    1  0.9175398E-006  0.3872468E+03  0.7546771E-02  0.1048287E+00
         21   -1    0    0  504  503  0.00000000000E+00  0.00000000000E+00  0.94923183340E+03  0.94923183340E+03  0.00000000000E+00 0.  1.
         21   -1    0    0  503  504 -0.00000000000E+00 -0.00000000000E+00 -0.39495113832E+02  0.39495113832E+02  0.00000000000E+00 0.  1.
         25    2    1    2    0    0  0.22660649268E+02 -0.13355625509E+03  0.60625794116E+03  0.63365811128E+03  0.12499252970E+03 0.  0.
         25    2    1    2    0    0 -0.22660649268E+02  0.13355625509E+03  0.30347877841E+03  0.35506883595E+03  0.12499492397E+03 0.  0.
          5    1    3    3  501    0 -0.42531859532E+02 -0.10225405305E+03  0.39818357360E+03  0.41332444728E+03  0.47000000000E+01 0.  1.
         -5    1    3    3    0  501  0.65192508800E+02 -0.31302202037E+02  0.20807436756E+03  0.22033366400E+03  0.47000000000E+01 0.  1.
          5    1    4    4  502    0 -0.26282197337E+02  0.12134342937E+03  0.31413195671E+03  0.33781053562E+03  0.47000000000E+01 0.  1.
         -5    1    4    4    0  502  0.36215480694E+01  0.12212825720E+02 -0.10653178299E+02  0.17258300332E+02  0.47000000000E+01 0.  1.
<mgrwt>
<rscale>  0 0.38724679E+03</rscale>
<asrwt>0</asrwt>
<pdfrwt beam="1">  1       21 0.14603565E+00 0.38724679E+03</pdfrwt>
<pdfrwt beam="2">  1       21 0.60761721E-02 0.38724679E+03</pdfrwt>
<totfact> 0.57322415E+04</totfact>
</mgrwt>
</event>
<event>
 8    1  0.9175398E-006  0.3192092E+03  0.7546771E-02  0.1076014E+00
         21   -1    0    0  504  503  0.00000000000E+00  0.00000000000E+00  0.20604659564E+03  0.20604659564E+03  0.00000000000E+00 0. -1.
         21   -1    0    0  503  504 -0.00000000000E+00 -0.00000000000E+00 -0.12363043098E+03  0.12363043098E+03  0.00000000000E+00 0. -1.
         25    2    1    2    0    0  0.70373242018E+02 -0.62714632179E+02  0.91642161383E+01  0.15682357658E+03  0.12499653208E+03 0.  0.
         25    2    1    2    0    0 -0.70373242018E+02  0.62714632179E+02  0.73251948523E+02  0.17285345003E+03  0.12500779553E+03 0.  0.
          5    1    3    3  501    0  0.17777350845E+02  0.31695864976E+02  0.29142904678E+02  0.46819450581E+02  0.47000000000E+01 0.  1.
         -5    1    3    3    0  501  0.52595891172E+02 -0.94410497155E+02 -0.19978688540E+02  0.11000412600E+03  0.47000000000E+01 0.  1.
          5    1    4    4  502    0 -0.43962392401E+01 -0.30054862007E+01  0.79108828109E+02  0.79427051761E+02  0.47000000000E+01 0. -1.
         -5    1    4    4    0  502 -0.65977002778E+02  0.65720118380E+02 -0.58568795860E+01  0.93426398271E+02  0.47000000000E+01 0. -1.
<mgrwt>
<rscale>  0 0.31920921E+03</rscale>
<asrwt>0</asrwt>
<pdfrwt beam="1">  1       21 0.31699476E-01 0.31920921E+03</pdfrwt>
<pdfrwt beam="2">  1       21 0.19020066E-01 0.31920921E+03</pdfrwt>
<totfact> 0.23511312E+05</totfact>
</mgrwt>
</event>
<event>
 8    1  0.9175398E-006  0.2818864E+03  0.7546771E-02  0.1094663E+00
         21   -1    0    0  504  503  0.00000000000E+00  0.00000000000E+00  0.24273472981E+02  0.24273472981E+02  0.00000000000E+00 0. -1.
         21   -1    0    0  503  504 -0.00000000000E+00 -0.00000000000E+00 -0.81838231155E+03  0.81838231155E+03  0.00000000000E+00 0. -1.
         25    2    1    2    0    0 -0.34460775081E+02  0.38955453065E+01 -0.23250991832E+03  0.26626990230E+03  0.12504430599E+03 0.  0.
         25    2    1    2    0    0  0.34460775081E+02 -0.38955453065E+01 -0.56159892025E+03  0.57638588223E+03  0.12499847086E+03 0.  0.
          5    1    3    3  501    0  0.22234056020E+02  0.43765677313E+02 -0.46777173309E+02  0.67970447259E+02  0.47000000000E+01 0.  1.
         -5    1    3    3    0  501 -0.56694831101E+02 -0.39870132007E+02 -0.18573274501E+03  0.19829945504E+03  0.47000000000E+01 0.  1.
          5    1    4    4  502    0 -0.24777813325E+02 -0.36982020732E+02 -0.96943432519E+02  0.10677887899E+03  0.47000000000E+01 0.  1.
         -5    1    4    4    0  502  0.59238588406E+02  0.33086475425E+02 -0.46465548773E+03  0.46960700324E+03  0.47000000000E+01 0.  1.
<mgrwt>
<rscale>  0 0.28188637E+03</rscale>
<asrwt>0</asrwt>
<pdfrwt beam="1">  1       21 0.37343800E-02 0.28188637E+03</pdfrwt>
<pdfrwt beam="2">  1       21 0.12590499E+00 0.28188637E+03</pdfrwt>
<totfact> 0.19992847E+05</totfact>
</mgrwt>
</event>
<event>
 8    1  0.9175398E-006  0.2559195E+03  0.7546771E-02  0.1109620E+00
         21   -1    0    0  504  503  0.00000000000E+00  0.00000000000E+00  0.40281519232E+02  0.40281519232E+02  0.00000000000E+00 0. -1.
         21   -1    0    0  503  504 -0.00000000000E+00 -0.00000000000E+00 -0.40648166691E+03  0.40648166691E+03  0.00000000000E+00 0. -1.
         25    2    1    2    0    0 -0.68844888572E+00 -0.26915337977E+02 -0.19163218232E+03  0.23037166525E+03  0.12499320568E+03 0.  0.
         25    2    1    2    0    0  0.68844888572E+00  0.26915337977E+02 -0.17456796536E+03  0.21639152090E+03  0.12500562550E+03 0.  0.
          5    1    3    3  501    0 -0.31820241606E+02 -0.65460413265E+02 -0.14431661018E+03  0.16170023950E+03  0.47000000000E+01 0.  1.
         -5    1    3    3    0  501  0.31131792720E+02  0.38545075288E+02 -0.47315572136E+02  0.68671425742E+02  0.47000000000E+01 0.  1.
          5    1    4    4  502    0 -0.53086725947E+02 -0.33427231228E+01 -0.35349843860E+02  0.64039641868E+02  0.47000000000E+01 0.  1.
         -5    1    4    4    0  502  0.53775174833E+02  0.30258061100E+02 -0.13921812150E+03  0.15235187903E+03  0.47000000000E+01 0.  1.
<mgrwt>
<rscale>  0 0.25591951E+03</rscale>
<asrwt>0</asrwt>
<pdfrwt beam="1">  1       21 0.61971570E-02 0.25591951E+03</pdfrwt>
<pdfrwt beam="2">  1       21 0.62535639E-01 0.25591951E+03</pdfrwt>
<totfact> 0.43598086E+05</totfact>
</mgrwt>
</event>
<event>
 8    1  0.9175398E-006  0.3530730E+03  0.7546771E-02  0.1061361E+00
         21   -1    0    0  504  503  0.00000000000E+00  0.00000000000E+00  0.42129982028E+02  0.42129982028E+02  0.00000000000E+00 0.  1.
         21   -1    0    0  503  504 -0.00000000000E+00 -0.00000000000E+00 -0.73973774538E+03  0.73973774538E+03  0.00000000000E+00 0.  1.
         25    2    1    2    0    0 -0.80199322334E+02  0.91085731954E+02 -0.28577291323E+03  0.33469319530E+03  0.12499934070E+03 0.  0.
         25    2    1    2    0    0  0.80199322334E+02 -0.91085731954E+02 -0.41183485012E+03  0.44717453211E+03  0.12501430528E+03 0.  0.
          5    1    3    3  501    0 -0.99785591208E+01 -0.24179880274E+01  0.10947580234E+02  0.15727613335E+02  0.47000000000E+01 0.  1.
         -5    1    3    3    0  501 -0.70220763213E+02  0.93503719981E+02 -0.29672049346E+03  0.31896558196E+03  0.47000000000E+01 0.  1.
          5    1    4    4  502    0 -0.26151146029E+02  0.64795162699E+01 -0.41687458976E+02  0.49857805864E+02  0.47000000000E+01 0.  1.
         -5    1    4    4    0  502  0.10635046836E+03 -0.97565248224E+02 -0.37014739115E+03  0.39731672624E+03  0.47000000000E+01 0.  1.
<mgrwt>
<rscale>  0 0.35307301E+03</rscale>
<asrwt>0</asrwt>
<pdfrwt beam="1">  1       21 0.64815359E-02 0.35307301E+03</pdfrwt>
<pdfrwt beam="2">  1       21 0.11380580E+00 0.35307301E+03</pdfrwt>
<totfact> 0.98321714E+04</totfact>
</mgrwt>
</event>
<event>
 8    1  0.9175398E-006  0.2883402E+03  0.7546771E-02  0.1091219E+00
         21   -1    0    0  504  503  0.00000000000E+00  0.00000000000E+00  0.11011506666E+04  0.11011506666E+04  0.00000000000E+00 0. -1.
         21   -1    0    0  503  504 -0.00000000000E+00 -0.00000000000E+00 -0.18875727716E+02  0.18875727716E+02  0.00000000000E+00 0. -1.
         25    2    1    2    0    0  0.19024999242E+02 -0.13870439886E+02  0.80479970339E+03  0.81478952301E+03  0.12500025810E+03 0.  0.
         25    2    1    2    0    0 -0.19024999242E+02  0.13870439886E+02  0.27747523550E+03  0.30523687132E+03  0.12499080605E+03 0.  0.
          5    1    3    3  501    0  0.46999867557E+02 -0.48991612279E+02  0.64965405391E+03  0.65320873034E+03  0.47000000000E+01 0.  1.
         -5    1    3    3    0  501 -0.27974868315E+02  0.35121172394E+02  0.15514564948E+03  0.16158079267E+03  0.47000000000E+01 0.  1.
          5    1    4    4  502    0 -0.24153051413E+02  0.35318585641E+01 -0.25007296198E+01  0.24983746039E+02  0.47000000000E+01 0.  1.
         -5    1    4    4    0  502  0.51280521713E+01  0.10338581322E+02  0.27997596512E+03  0.28025312528E+03  0.47000000000E+01 0.  1.
<mgrwt>
<rscale>  0 0.28834022E+03</rscale>
<asrwt>0</asrwt>
<pdfrwt beam="1">  1       21 0.16940775E+00 0.28834022E+03</pdfrwt>
<pdfrwt beam="2">  1       21 0.29039590E-02 0.28834022E+03</pdfrwt>
<totfact> 0.13825319E+05</totfact>
</mgrwt>
</event>
<event>
 8    1  0.9175398E-006  0.4580873E+03  0.7546771E-02  0.1025337E+00
         21   -1    0    0  504  503  0.00000000000E+00  0.00000000000E+00  0.32741410888E+03  0.32741410888E+03  0.00000000000E+00 0.  1.
         21   -1    0    0  503  504 -0.00000000000E+00 -0.00000000000E+00 -0.16022824366E+03  0.16022824366E+03  0.00000000000E+00 0.  1.
         25    2    1    2    0    0  0.14109936213E+03  0.98498409940E+02 -0.69110957613E+01  0.21280003852E+03  0.12500050559E+03 0.  0.
         25    2    1    2    0    0 -0.14109936213E+03 -0.98498409940E+02  0.17409696099E+03  0.27484231401E+03  0.12497031244E+03 0.  0.
          5    1    3    3  501    0  0.16211206707E+03  0.89029150939E+02 -0.19649251568E+02  0.18605024884E+03  0.47000000000E+01 0. -1.
         -5    1    3    3    0  501 -0.21012704937E+02  0.94692590003E+01  0.12738155806E+02  0.26749789684E+02  0.47000000000E+01 0. -1.
          5    1    4    4  502    0 -0.27561113179E+02 -0.92529561788E+02  0.99834048310E+02  0.13896136861E+03  0.47000000000E+01 0. -1.
         -5    1    4    4    0  502 -0.11353824895E+03 -0.59688481516E+01  0.74262912677E+02  0.13588094540E+03  0.47000000000E+01 0. -1.
<mgrwt>
<rscale>  0 0.45808727E+03</rscale>
<asrwt>0</asrwt>
<pdfrwt beam="1">  1       21 0.50371401E-01 0.45808727E+03</pdfrwt>
<pdfrwt beam="2">  1       21 0.24650499E-01 0.45808727E+03</pdfrwt>
<totfact> 0.53740035E+04</totfact>
</mgrwt>
</event>
<event>
 8    1  0.9175398E-006  0.2644764E+03  0.7546771E-02  0.1104483E+00
         21   -1    0    0  504  503  0.00000000000E+00  0.00000000000E+00  0.33437524116E+02  0.33437524116E+02  0.00000000000E+00 0.  1.
         21   -1    0    0  503  504 -0.00000000000E+00 -0.00000000000E+00 -0.52297363624E+03  0.52297363624E+03  0.00000000000E+00 0.  1.
         25    2    1    2    0    0  0.15146685481E+02  0.39726958097E+02 -0.22954601421E+03  0.26480678635E+03  0.12499443260E+03 0.  0.
         25    2    1    2    0    0 -0.15146685481E+02 -0.39726958097E+02 -0.25999009791E+03  0.29160437400E+03  0.12502242455E+03 0.  0.
          5    1    3    3  501    0 -0.44476143427E+02 -0.71115408090E+01 -0.14123663179E+03  0.14831917444E+03  0.47000000000E+01 0.  1.
         -5    1    3    3    0  501  0.59622828908E+02  0.46838498906E+02 -0.88309382413E+02  0.11648761191E+03  0.47000000000E+01 0.  1.
          5    1    4    4  502    0  0.36982563655E+02  0.51104857830E+01 -0.18882064068E+03  0.19253350728E+03  0.47000000000E+01 0. -1.
         -5    1    4    4    0  502 -0.52129249136E+02 -0.44837443879E+02 -0.71169457236E+02  0.99070866718E+02  0.47000000000E+01 0. -1.
<mgrwt>
<rscale>  0 0.26447642E+03</rscale>
<asrwt>0</asrwt>
<pdfrwt beam="1">  1       21 0.51442346E-02 0.26447642E+03</pdfrwt>
<pdfrwt beam="2">  1       21 0.80457480E-01 0.26447642E+03</pdfrwt>
<totfact> 0.34174763E+05</totfact>
</mgrwt>
</event>
<event>
 8    1  0.9175398E-006  0.3374843E+03  0.7546771E-02  0.1067872E+00
         21   -1    0    0  504  503  0.00000000000E+00  0.00000000000E+00  0.52774879927E+02  0.52774879927E+02  0.00000000000E+00 0. -1.
         21   -1    0    0  503  504 -0.00000000000E+00 -0.00000000000E+00 -0.53953544983E+03  0.53953544983E+03  0.00000000000E+00 0. -1.
         25    2    1    2    0    0  0.66032897651E+02  0.71153577620E+01 -0.40458222690E+03  0.42863190132E+03  0.12501022607E+03 0.  0.
         25    2    1    2    0    0 -0.66032897651E+02 -0.71153577620E+01 -0.82178343009E+02  0.16367842844E+03  0.12500550383E+03 0.  0.
          5    1    3    3  501    0  0.92701763463E+02  0.13380830354E+01 -0.18173787676E+03  0.20407389168E+03  0.47000000000E+01 0.  1.
         -5    1    3    3    0  501 -0.26668865812E+02  0.57772747266E+01 -0.22284435014E+03  0.22455800964E+03  0.47000000000E+01 0.  1.
          5    1    4    4  502    0  0.51257465264E+01 -0.45107919641E+02  0.36652640545E+01  0.45787791521E+02  0.47000000000E+01 0. -1.
         -5    1    4    4    0  502 -0.71158644178E+02  0.37992561879E+02 -0.85843607063E+02  0.11789063692E+03  0.47000000000E+01 0. -1.
<mgrwt>
<rscale>  0 0.33748433E+03</rscale>
<asrwt>0</asrwt>
<pdfrwt beam="1">  1       21 0.81192124E-02 0.33748433E+03</pdfrwt>
<pdfrwt beam="2">  1       21 0.83005453E-01 0.33748433E+03</pdfrwt>
<totfact> 0.14165812E+05</totfact>
</mgrwt>
</event>
<event>
 8    1  0.9175398E-006  0.5917866E+03  0.7546771E-02  0.9922594E-01
         21   -1    0    0  504  503  0.00000000000E+00  0.00000000000E+00  0.11102803717E+03  0.11102803717E+03  0.00000000000E+00 0.  1.
         21   -1    0    0  503  504 -0.00000000000E+00 -0.00000000000E+00 -0.78856529523E+03  0.78856529523E+03  0.00000000000E+00 0.  1.
         25    2    1    2    0    0  0.81585748253E+02  0.16006413771E+03 -0.36075224221E+02  0.22181903118E+03  0.12500199316E+03 0.  0.
         25    2    1    2    0    0 -0.81585748253E+02 -0.16006413771E+03 -0.64146203384E+03  0.67777430121E+03  0.12501079964E+03 0.  0.
          5    1    3    3  501    0  0.92768593832E+02  0.47340450172E+02 -0.29049549679E+02  0.10822706021E+03  0.47000000000E+01 0.  1.
         -5    1    3    3    0  501 -0.11182845579E+02  0.11272368754E+03 -0.70256745415E+01  0.11359197098E+03  0.47000000000E+01 0.  1.
          5    1    4    4  502    0 -0.10941962736E+03 -0.10787788110E+03 -0.38539980689E+03  0.41492817840E+03  0.47000000000E+01 0.  1.
         -5    1    4    4    0  502  0.27833879108E+02 -0.52186256616E+02 -0.25606222695E+03  0.26284612281E+03  0.47000000000E+01 0.  1.
<mgrwt>
<rscale>  0 0.59178664E+03</rscale>
<asrwt>0</asrwt>
<pdfrwt beam="1">  1       21 0.17081237E-01 0.59178664E+03</pdfrwt>
<pdfrwt beam="2">  1       21 0.12131774E+00 0.59178664E+03</pdfrwt>
<totfact> 0.13694315E+04</totfact>
</mgrwt>
</event>
<event>
 8    1  0.9175398E-006  0.3672701E+03  0.7546771E-02  0.1055742E+00
         21   -1    0    0  504  503  0.00000000000E+00  0.00000000000E+00  0.78174979600E+03  0.78174979600E+03  0.00000000000E+00 0. -1.
         21   -1    0    0  503  504 -0.00000000000E+00 -0.00000000000E+00 -0.43136348397E+02  0.43136348397E+02  0.00000000000E+00 0. -1.
         25    2    1    2    0    0 -0.58276898254E+02  0.11650677000E+03  0.44469996500E+03  0.47995148562E+03  0.12500138138E+03 0.  0.
         25    2    1    2    0    0  0.58276898254E+02 -0.11650677000E+03  0.29391348260E+03  0.34493465878E+03  0.12499903699E+03 0.  0.
          5    1    3    3  501    0  0.28250783398E+02  0.51980660211E+01  0.15528149914E+03  0.15798595073E+03  0.47000000000E+01 0.  1.
         -5    1    3    3    0  501 -0.86527681652E+02  0.11130870398E+03  0.28941846586E+03  0.32196553489E+03  0.47000000000E+01 0.  1.
          5    1    4    4  502    0  0.54593677250E+02 -0.19920202276E+02  0.20634740774E+03  0.21442627343E+03  0.47000000000E+01 0.  1.
         -5    1    4    4    0  502  0.36832210041E+01 -0.96586567721E+02  0.87566074856E+02  0.13050838535E+03  0.47000000000E+01 0.  1.
<mgrwt>
<rscale>  0 0.36727010E+03</rscale>
<asrwt>0</asrwt>
<pdfrwt beam="1">  1       21 0.12026919E+00 0.36727010E+03</pdfrwt>
<pdfrwt beam="2">  1       21 0.66363619E-02 0.36727010E+03</pdfrwt>
<totfact> 0.81880453E+04</totfact>
</mgrwt>
</event>
<event>
 8    1  0.9175398E-006  0.2596129E+03  0.7546771E-02  0.1107376E+00
         21   -1    0    0  504  503  0.00000000000E+00  0.00000000000E+00  0.47654544162E+02  0.47654544162E+02  0.00000000000E+00 0.  1.
         21   -1    0    0  503  504 -0.00000000000E+00 -0.00000000000E+00 -0.35358034622E+03  0.35358034622E+03  0.00000000000E+00 0.  1.
         25    2    1    2    0    0 -0.23073110761E+02 -0.85602049194E+01 -0.19155245498E+03  0.23004821420E+03  0.12499676916E+03 0.  0.
         25    2    1    2    0    0  0.23073110761E+02  0.85602049194E+01 -0.11437334709E+03  0.17118667619E+03  0.12497187696E+03 0.  0.
          5    1    3    3  501    0 -0.24184954146E+02  0.49092779364E+02 -0.14730430799E+03  0.15721215648E+03  0.47000000000E+01 0.  1.
         -5    1    3    3    0  501  0.11118433851E+01 -0.57652984283E+02 -0.44248146985E+02  0.72836057719E+02  0.47000000000E+01 0.  1.
          5    1    4    4  502    0 -0.47583107993E+02 -0.89459384420E+01 -0.21741363660E+02  0.53281881298E+02  0.47000000000E+01 0. -1.
         -5    1    4    4    0  502  0.70656218754E+02  0.17506143361E+02 -0.92631983427E+02  0.11790479489E+03  0.47000000000E+01 0. -1.
<mgrwt>
<rscale>  0 0.25961287E+03</rscale>
<asrwt>0</asrwt>
<pdfrwt beam="1">  1       21 0.73314681E-02 0.25961287E+03</pdfrwt>
<pdfrwt beam="2">  1       21 0.54396978E-01 0.25961287E+03</pdfrwt>
<totfact> 0.43941258E+05</totfact>
</mgrwt>
</event>
<event>
 8    1  0.9175398E-006  0.3051308E+03  0.7546771E-02  0.1082704E+00
         21   -1    0    0  504  503  0.00000000000E+00  0.00000000000E+00  0.22540016604E+03  0.22540016604E+03  0.00000000000E+00 0. -1.
         21   -1    0    0  503  504 -0.00000000000E+00 -0.00000000000E+00 -0.10326612162E+03  0.10326612162E+03  0.00000000000E+00 0. -1.
         25    2    1    2    0    0 -0.76734065512E+02 -0.36471845267E+02  0.83484031111E+02  0.17266949366E+03  0.12500743291E+03 0.  0.
         25    2    1    2    0    0  0.76734065512E+02  0.36471845267E+02  0.38650013307E+02  0.15599679399E+03  0.12499145531E+03 0.  0.
          5    1    3    3  501    0 -0.42614316894E+02 -0.18897338365E+02  0.11410299982E+03  0.12334777651E+03  0.47000000000E+01 0. -1.
         -5    1    3    3    0  501 -0.34119748618E+02 -0.17574506902E+02 -0.30618968707E+02  0.49321717156E+02  0.47000000000E+01 0. -1.
          5    1    4    4  502    0 -0.34633166005E+02  0.54691319187E+01  0.10912297789E+02  0.37020748702E+02  0.47000000000E+01 0. -1.
         -5    1    4    4    0  502  0.11136723152E+03  0.31002713348E+02  0.27737715518E+02  0.11897604529E+03  0.47000000000E+01 0. -1.
<mgrwt>
<rscale>  0 0.30513080E+03</rscale>
<asrwt>0</asrwt>
<pdfrwt beam="1">  1       21 0.34676948E-01 0.30513080E+03</pdfrwt>
<pdfrwt beam="2">  1       21 0.15887096E-01 0.30513080E+03</pdfrwt>
<totfact> 0.27568918E+05</totfact>
</mgrwt>
</event>
<event>
 8    1  0.9175398E-006  0.3029469E+03  0.7546771E-02  0.1083777E+00
         21   -1    0    0  504  503  0.00000000000E+00  0.00000000000E+00  0.23885241480E+03  0.23885241480E+03  0.00000000000E+00 0.  1.
         21   -1    0    0  503  504 -0.00000000000E+00 -0.00000000000E+00 -0.96060160294E+02  0.96060160294E+02  0.00000000000E+00 0.  1.
         25    2    1    2    0    0  0.79474665524E+02 -0.29192581854E+02  0.84928399193E+02  0.17322692648E+03  0.12500522299E+03 0.  0.
         25    2    1    2    0    0 -0.79474665524E+02  0.29192581854E+02  0.57863855309E+02  0.16168564861E+03  0.12500237565E+03 0.  0.
          5    1    3    3  501    0 -0.21723421730E+02 -0.20183873477E+02 -0.12372626762E+02  0.32472568318E+02  0.47000000000E+01 0. -1.
         -5    1    3    3    0  501  0.10119808725E+03 -0.90087083778E+01  0.97301025955E+02  0.14075435817E+03  0.47000000000E+01 0. -1.
          5    1    4    4  502    0 -0.57803428024E+02  0.11742059713E+02  0.96888454849E+02  0.11352785976E+03  0.47000000000E+01 0. -1.
         -5    1    4    4    0  502 -0.21671237501E+02  0.17450522141E+02 -0.39024599540E+02  0.48157788851E+02  0.47000000000E+01 0. -1.
<mgrwt>
<rscale>  0 0.30294687E+03</rscale>
<asrwt>0</asrwt>
<pdfrwt beam="1">  1       21 0.36746525E-01 0.30294687E+03</pdfrwt>
<pdfrwt beam="2">  1       21 0.14778486E-01 0.30294687E+03</pdfrwt>
<totfact> 0.28045889E+05</totfact>
</mgrwt>
</event>
<event>
 8    1  0.9175398E-006  0.3590207E+03  0.7546771E-02  0.1058972E+00
         21   -1    0    0  504  503  0.00000000000E+00  0.00000000000E+00  0.84109156982E+03  0.84109156982E+03  0.00000000000E+00 0. -1.
         21   -1    0    0  503  504 -0.00000000000E+00 -0.00000000000E+00 -0.38312083663E+02  0.38312083663E+02  0.00000000000E+00 0. -1.
         25    2    1    2    0    0  0.55029720224E+02  0.57836751875E+02  0.64907266960E+03  0.66580259194E+03  0.12499760414E+03 0.  0.
         25    2    1    2    0    0 -0.55029720224E+02 -0.57836751875E+02  0.15370681656E+03  0.21360106154E+03  0.12500507214E+03 0.  0.
          5    1    3    3  501    0  0.25355607457E+02  0.44844480088E+02  0.61960159316E+03  0.62175731477E+03  0.47000000000E+01 0.  1.
         -5    1    3    3    0  501  0.29674112768E+02  0.12992271787E+02  0.29471076443E+02  0.44045277175E+02  0.47000000000E+01 0.  1.
          5    1    4    4  502    0  0.18159307452E+02 -0.29413518085E+02 -0.61668186233E+01  0.35426475201E+02  0.47000000000E+01 0.  1.
         -5    1    4    4    0  502 -0.73189027676E+02 -0.28423233790E+02  0.15987363518E+03  0.17817458634E+03  0.47000000000E+01 0.  1.
<mgrwt>
<rscale>  0 0.35902073E+03</rscale>
<asrwt>0</asrwt>
<pdfrwt beam="1">  1       21 0.12939869E+00 0.35902073E+03</pdfrwt>
<pdfrwt beam="2">  1       21 0.58941673E-02 0.35902073E+03</pdfrwt>
<totfact> 0.83672500E+04</totfact>
</mgrwt>
</event>
<event>
 8    1  0.9175398E-006  0.2891442E+03  0.7546771E-02  0.1090797E+00
         21   -1    0    0  504  503  0.00000000000E+00  0.00000000000E+00  0.20317077153E+03  0.20317077153E+03  0.00000000000E+00 0.  1.
         21   -1    0    0  503  504 -0.00000000000E+00 -0.00000000000E+00 -0.10287447417E+03  0.10287447417E+03  0.00000000000E+00 0.  1.
         25    2    1    2    0    0 -0.66922269387E+02  0.16442717367E+02  0.25839096086E+02  0.14505445871E+03  0.12499673601E+03 0.  0.
         25    2    1    2    0    0  0.66922269387E+02 -0.16442717367E+02  0.74457201274E+02  0.16099078698E+03  0.12500082231E+03 0.  0.
          5    1    3    3  501    0  0.10014770546E+02  0.23387673437E+02 -0.37147999110E+02  0.45269666839E+02  0.47000000000E+01 0. -1.
         -5    1    3    3    0  501 -0.76937039933E+02 -0.69449560698E+01  0.62987095196E+02  0.99784791876E+02  0.47000000000E+01 0. -1.
          5    1    4    4  502    0  0.54766325658E+02 -0.69201005226E+02  0.44847757794E+02  0.99103687769E+02  0.47000000000E+01 0. -1.
         -5    1    4    4    0  502  0.12155943729E+02  0.52758287859E+02  0.29609443480E+02  0.61887099212E+02  0.47000000000E+01 0. -1.
<mgrwt>
<rscale>  0 0.28914416E+03</rscale>
<asrwt>0</asrwt>
<pdfrwt beam="1">  1       21 0.31257042E-01 0.28914416E+03</pdfrwt>
<pdfrwt beam="2">  1       21 0.15826842E-01 0.28914416E+03</pdfrwt>
<totfact> 0.34243101E+05</totfact>
</mgrwt>
</event>
<event>
 8    1  0.9175398E-006  0.2820308E+03  0.7546771E-02  0.1094585E+00
         21   -1    0    0  504  503  0.00000000000E+00  0.00000000000E+00  0.13007024639E+02  0.13007024639E+02  0.00000000000E+00 0. -1.
         21   -1    0    0  503  504 -0.00000000000E+00 -0.00000000000E+00 -0.15288158910E+04  0.15288158910E+04  0.00000000000E+00 0. -1.
         25    2    1    2    0    0  0.13332573313E+02  0.35590468579E+02 -0.10478969960E+04  0.10560103856E+04  0.12500152548E+03 0.  0.
         25    2    1    2    0    0 -0.13332573313E+02 -0.35590468579E+02 -0.46791187040E+03  0.48581253004E+03  0.12501142717E+03 0.  0.
          5    1    3    3  501    0 -0.23416054131E+01 -0.45538654298E+02 -0.28887018964E+03  0.29248474937E+03  0.47000000000E+01 0.  1.
         -5    1    3    3    0  501  0.15674178727E+02  0.81129122877E+02 -0.75902680634E+03  0.76352563625E+03  0.47000000000E+01 0.  1.
          5    1    4    4  502    0  0.33014775955E+02  0.63606116386E+01 -0.35537169345E+03  0.35698958432E+03  0.47000000000E+01 0.  1.
         -5    1    4    4    0  502 -0.46347349269E+02 -0.41951080218E+02 -0.11254017695E+03  0.12882294572E+03  0.47000000000E+01 0.  1.
<mgrwt>
<rscale>  0 0.28203082E+03</rscale>
<asrwt>0</asrwt>
<pdfrwt beam="1">  1       21 0.20010830E-02 0.28203082E+03</pdfrwt>
<pdfrwt beam="2">  1       21 0.23520217E+00 0.28203082E+03</pdfrwt>
<totfact> 0.95141024E+04</totfact>
</mgrwt>
</event>
<event>
 8    1  0.9175398E-006  0.3819972E+03  0.7546771E-02  0.1050198E+00
         21   -1    0    0  504  503  0.00000000000E+00  0.00000000000E+00  0.68558695246E+02  0.68558695246E+02  0.00000000000E+00 0. -1.
         21   -1    0    0  503  504 -0.00000000000E+00 -0.00000000000E+00 -0.53210557846E+03  0.53210557846E+03  0.00000000000E+00 0. -1.
         25    2    1    2    0    0  0.10241757061E+03  0.90233316459E+02 -0.15751153015E+03  0.24301357353E+03  0.12495721116E+03 0.  0.
         25    2    1    2    0    0 -0.10241757061E+03 -0.90233316459E+02 -0.30603535306E+03  0.35765070017E+03  0.12499990337E+03 0.  0.
          5    1    3    3  501    0  0.10782278641E+02  0.86500358606E+02 -0.46388929618E+02  0.98856422971E+02  0.47000000000E+01 0. -1.
         -5    1    3    3    0  501  0.91635291970E+02  0.37329578533E+01 -0.11112260053E+03  0.14415715056E+03  0.47000000000E+01 0. -1.
          5    1    4    4  502    0  0.25090859365E+02  0.46391042704E+01 -0.47906970039E+02  0.54481559177E+02  0.47000000000E+01 0. -1.
         -5    1    4    4    0  502 -0.12750842998E+03 -0.94872420729E+02 -0.25812838302E+03  0.30316914100E+03  0.47000000000E+01 0. -1.
<mgrwt>
<rscale>  0 0.38199719E+03</rscale>
<asrwt>0</asrwt>
<pdfrwt beam="1">  1       21 0.10547492E-01 0.38199719E+03</pdfrwt>
<pdfrwt beam="2">  1       21 0.81862395E-01 0.38199719E+03</pdfrwt>
<totfact> 0.90829854E+04</totfact>
</mgrwt>
</event>
<event>
 8    1  0.9175398E-006  0.4128654E+03  0.7546771E-02  0.1039414E+00
         21   -1    0    0  504  503  0.00000000000E+00  0.00000000000E+00  0.98082824340E+03  0.98082824340E+03  0.00000000000E+00 0.  1.
         21   -1    0    0  503  504 -0.00000000000E+00 -0.00000000000E+00 -0.43447413121E+02  0.43447413121E+02  0.00000000000E+00 0.  1.
         25    2    1    2    0    0 -0.14966982515E+03 -0.25507410973E+02  0.31300767974E+03  0.36966325013E+03  0.12500170538E+03 0.  0.
         25    2    1    2    0    0  0.14966982515E+03  0.25507410973E+02  0.62437315054E+03  0.65461240639E+03  0.12499554756E+03 0.  0.
          5    1    3    3  501    0 -0.11100051167E+02 -0.53719668219E+02  0.81989936500E+02  0.98759574608E+02  0.47000000000E+01 0. -1.
         -5    1    3    3    0  501 -0.13856977398E+03  0.28212257246E+02  0.23101774324E+03  0.27090367552E+03  0.47000000000E+01 0. -1.
          5    1    4    4  502    0  0.52396234985E+02  0.48219112648E+02  0.11369363028E+03  0.13423404871E+03  0.47000000000E+01 0. -1.
         -5    1    4    4    0  502  0.97273590162E+02 -0.22711701674E+02  0.51067952025E+03  0.52037835768E+03  0.47000000000E+01 0. -1.
<mgrwt>
<rscale>  0 0.41286535E+03</rscale>
<asrwt>0</asrwt>
<pdfrwt beam="1">  1       21 0.15089664E+00 0.41286535E+03</pdfrwt>
<pdfrwt beam="2">  1       21 0.66842181E-02 0.41286535E+03</pdfrwt>
<totfact> 0.44110975E+04</totfact>
</mgrwt>
</event>
<event>
 8    1  0.9175398E-006  0.2724804E+03  0.7546771E-02  0.1099868E+00
         21   -1    0    0  504  503  0.00000000000E+00  0.00000000000E+00  0.19207542749E+02  0.19207542749E+02  0.00000000000E+00 0.  1.
         21   -1    0    0  503  504 -0.00000000000E+00 -0.00000000000E+00 -0.96635959105E+03  0.96635959105E+03  0.00000000000E+00 0.  1.
         25    2    1    2    0    0 -0.25281326408E+02 -0.19556257669E+02 -0.31528929226E+03  0.34066552062E+03  0.12499626573E+03 0.  0.
         25    2    1    2    0    0  0.25281326408E+02  0.19556257669E+02 -0.63186275604E+03  0.64490161317E+03  0.12500382205E+03 0.  0.
          5    1    3    3  501    0  0.17253590928E+02  0.68410293891E+01  0.21521097864E+01  0.19266750104E+02  0.47000000000E+01 0. -1.
         -5    1    3    3    0  501 -0.42534917336E+02 -0.26397287058E+02 -0.31744140205E+03  0.32139877052E+03  0.47000000000E+01 0. -1.
          5    1    4    4  502    0 -0.79499473105E+01  0.65659720890E+02 -0.24316734835E+03  0.25204533305E+03  0.47000000000E+01 0.  1.
         -5    1    4    4    0  502  0.33231273718E+02 -0.46103463221E+02 -0.38869540769E+03  0.39285628012E+03  0.47000000000E+01 0.  1.
<mgrwt>
<rscale>  0 0.27248041E+03</rscale>
<asrwt>0</asrwt>
<pdfrwt beam="1">  1       21 0.29550065E-02 0.27248041E+03</pdfrwt>
<pdfrwt beam="2">  1       21 0.14867071E+00 0.27248041E+03</pdfrwt>
<totfact> 0.19275666E+05</totfact>
</mgrwt>
</event>
<event>
 8    1  0.9175398E-006  0.3817149E+03  0.7546771E-02  0.1050302E+00
         21   -1    0    0  504  503  0.00000000000E+00  0.00000000000E+00  0.10853478273E+04  0.10853478273E+04  0.00000000000E+00 0. -1.
         21   -1    0    0  503  504 -0.00000000000E+00 -0.00000000000E+00 -0.33562118738E+02  0.33562118738E+02  0.00000000000E+00 0. -1.
         25    2    1    2    0    0 -0.14266387150E+03  0.89802100411E+01  0.58180085727E+03  0.61201416826E+03  0.12504191386E+03 0.  0.
         25    2    1    2    0    0  0.14266387150E+03 -0.89802100411E+01  0.46998485133E+03  0.50689577782E+03  0.12499577867E+03 0.  0.
          5    1    3    3  501    0 -0.15401329312E+03  0.37743202320E+02  0.48704514136E+03  0.51223012748E+03  0.47000000000E+01 0. -1.
         -5    1    3    3    0  501  0.11349421613E+02 -0.28762992279E+02  0.94755715909E+02  0.99784040775E+02  0.47000000000E+01 0. -1.
          5    1    4    4  502    0  0.12183365815E+03 -0.58582950423E+02  0.35367195284E+03  0.37865728907E+03  0.47000000000E+01 0.  1.
         -5    1    4    4    0  502  0.20830213354E+02  0.49602740382E+02  0.11631289848E+03  0.12823848874E+03  0.47000000000E+01 0.  1.
<mgrwt>
<rscale>  0 0.38171493E+03</rscale>
<asrwt>0</asrwt>
<pdfrwt beam="1">  1       21 0.16697656E+00 0.38171493E+03</pdfrwt>
<pdfrwt beam="2">  1       21 0.51634037E-02 0.38171493E+03</pdfrwt>
<totfact> 0.52686446E+04</totfact>
</mgrwt>
</event>
<event>
 8    1  0.9175398E-006  0.3420542E+03  0.7546771E-02  0.1065924E+00
         21   -1    0    0  504  503  0.00000000000E+00  0.00000000000E+00  0.41528376951E+03  0.41528376951E+03  0.00000000000E+00 0. -1.
         21   -1    0    0  503  504 -0.00000000000E+00 -0.00000000000E+00 -0.70434406480E+02  0.70434406480E+02  0.00000000000E+00 0. -1.
         25    2    1    2    0    0 -0.14570298346E+01  0.72200799151E+02  0.30264978608E+03  0.33531666418E+03  0.12500117572E+03 0.  0.
         25    2    1    2    0    0  0.14570298346E+01 -0.72200799151E+02  0.42199576948E+02  0.15040151180E+03  0.12499892849E+03 0.  0.
          5    1    3    3  501    0  0.68388783606E+01 -0.26656380384E+02  0.16517896171E+02  0.32438615358E+02  0.47000000000E+01 0. -1.
         -5    1    3    3    0  501 -0.82959081952E+01  0.98857179535E+02  0.28613188991E+03  0.30287804883E+03  0.47000000000E+01 0. -1.
          5    1    4    4  502    0 -0.22591590679E+02 -0.59956189268E+02  0.80701099721E+02  0.10314980415E+03  0.47000000000E+01 0. -1.
         -5    1    4    4    0  502  0.24048620514E+02 -0.12244609883E+02 -0.38501522773E+02  0.47251707648E+02  0.47000000000E+01 0. -1.
<mgrwt>
<rscale>  0 0.34205418E+03</rscale>
<asrwt>0</asrwt>
<pdfrwt beam="1">  1       21 0.63889809E-01 0.34205418E+03</pdfrwt>
<pdfrwt beam="2">  1       21 0.10836063E-01 0.34205418E+03</pdfrwt>
<totfact> 0.15267525E+05</totfact>
</mgrwt>
</event>
<event>
 8    1  0.9175398E-006  0.2790032E+03  0.7546771E-02  0.1096235E+00
         21   -1    0    0  504  503  0.00000000000E+00  0.00000000000E+00  0.71796292117E+02  0.71796292117E+02  0.00000000000E+00 0.  1.
         21   -1    0    0  503  504 -0.00000000000E+00 -0.00000000000E+00 -0.27105438818E+03  0.27105438818E+03  0.00000000000E+00 0.  1.
         25    2    1    2    0    0  0.10998231675E+02 -0.32335747863E+02 -0.36153015390E+02  0.13453470670E+03  0.12500394032E+03 0.  0.
         25    2    1    2    0    0 -0.10998231675E+02  0.32335747863E+02 -0.16310508067E+03  0.20831597360E+03  0.12500286326E+03 0.  0.
          5    1    3    3  501    0  0.38327553854E+02  0.37811986244E+02 -0.17844786061E+02  0.56914620949E+02  0.47000000000E+01 0.  1.
         -5    1    3    3    0  501 -0.27329322178E+02 -0.70147734107E+02 -0.18308229329E+02  0.77620085753E+02  0.47000000000E+01 0.  1.
          5    1    4    4  502    0 -0.29814610632E+02  0.14583855118E+02 -0.17590718580E+03  0.17907268874E+03  0.47000000000E+01 0. -1.
         -5    1    4    4    0  502  0.18816378957E+02  0.17751892745E+02  0.12802105130E+02  0.29243284851E+02  0.47000000000E+01 0. -1.
<mgrwt>
<rscale>  0 0.27900323E+03</rscale>
<asrwt>0</asrwt>
<pdfrwt beam="1">  1       21 0.11045583E-01 0.27900323E+03</pdfrwt>
<pdfrwt beam="2">  1       21 0.41700675E-01 0.27900323E+03</pdfrwt>
<totfact> 0.36952883E+05</totfact>
</mgrwt>
</event>
<event>
 8    1  0.9175398E-006  0.2594271E+03  0.7546771E-02  0.1107488E+00
         21   -1    0    0  504  503  0.00000000000E+00  0.00000000000E+00  0.45484067721E+03  0.45484067721E+03  0.00000000000E+00 0.  1.
         21   -1    0    0  503  504 -0.00000000000E+00 -0.00000000000E+00 -0.36992302696E+02  0.36992302696E+02  0.00000000000E+00 0.  1.
         25    2    1    2    0    0  0.33464849515E+02  0.87476404666E+01  0.20486241336E+03  0.24246394406E+03  0.12499495349E+03 0.  0.
         25    2    1    2    0    0 -0.33464849515E+02 -0.87476404666E+01  0.21298596116E+03  0.24936903584E+03  0.12500191607E+03 0.  0.
          5    1    3    3  501    0  0.90473281401E+01 -0.38159567321E+02  0.17919121731E+03  0.18349274941E+03  0.47000000000E+01 0.  1.
         -5    1    3    3    0  501  0.24417521375E+02  0.46907207788E+02  0.25671196049E+02  0.58971194656E+02  0.47000000000E+01 0.  1.
          5    1    4    4  502    0 -0.54456312401E+02  0.45636936412E+02  0.11838667858E+03  0.13815106076E+03  0.47000000000E+01 0.  1.
         -5    1    4    4    0  502  0.20991462886E+02 -0.54384576879E+02  0.94599282580E+02  0.11121797508E+03  0.47000000000E+01 0.  1.
<mgrwt>
<rscale>  0 0.25942709E+03</rscale>
<asrwt>0</asrwt>
<pdfrwt beam="1">  1       21 0.69975485E-01 0.25942709E+03</pdfrwt>
<pdfrwt beam="2">  1       21 0.56911238E-02 0.25942709E+03</pdfrwt>
<totfact> 0.39397412E+05</totfact>
</mgrwt>
</event>
<event>
 8    1  0.9175398E-006  0.2936891E+03  0.7546771E-02  0.1088439E+00
         21   -1    0    0  504  503  0.00000000000E+00  0.00000000000E+00  0.31403593508E+03  0.31403593508E+03  0.00000000000E+00 0.  1.
         21   -1    0    0  503  504 -0.00000000000E+00 -0.00000000000E+00 -0.68665126414E+02  0.68665126414E+02  0.00000000000E+00 0.  1.
         25    2    1    2    0    0  0.27019707022E+02  0.71253608358E+02  0.13764503524E+03  0.20094288734E+03  0.12499898790E+03 0.  0.
         25    2    1    2    0    0 -0.27019707022E+02 -0.71253608358E+02  0.10772577343E+03  0.18175817415E+03  0.12499620130E+03 0.  0.
          5    1    3    3  501    0  0.61169490233E+02  0.68567327977E+02  0.45740751970E+02  0.10274965398E+03  0.47000000000E+01 0. -1.
         -5    1    3    3    0  501 -0.34149783211E+02  0.26862803817E+01  0.91904283271E+02  0.98193233368E+02  0.47000000000E+01 0. -1.
          5    1    4    4  502    0 -0.52647147471E+02 -0.55993252699E+02  0.78285399614E+01  0.77397303071E+02  0.47000000000E+01 0.  1.
         -5    1    4    4    0  502  0.25627440449E+02 -0.15260355659E+02  0.99897233467E+02  0.10436087108E+03  0.47000000000E+01 0.  1.
<mgrwt>
<rscale>  0 0.29368907E+03</rscale>
<asrwt>0</asrwt>
<pdfrwt beam="1">  1       21 0.48313220E-01 0.29368907E+03</pdfrwt>
<pdfrwt beam="2">  1       21 0.10563866E-01 0.29368907E+03</pdfrwt>
<totfact> 0.29415822E+05</totfact>
</mgrwt>
</event>
<event>
 8    1  0.9175398E-006  0.2697385E+03  0.7546771E-02  0.1101429E+00
         21   -1    0    0  504  503  0.00000000000E+00  0.00000000000E+00  0.56312073049E+02  0.56312073049E+02  0.00000000000E+00 0.  1.
         21   -1    0    0  503  504 -0.00000000000E+00 -0.00000000000E+00 -0.32301633359E+03  0.32301633359E+03  0.00000000000E+00 0.  1.
         25    2    1    2    0    0 -0.13826182559E+02  0.43958811095E+02 -0.16289453361E+03  0.21043445819E+03  0.12499796685E+03 0.  0.
         25    2    1    2    0    0  0.13826182559E+02 -0.43958811095E+02 -0.10380972693E+03  0.16889394845E+03  0.12500066408E+03 0.  0.
          5    1    3    3  501    0  0.18266899676E+01  0.83294298326E+02 -0.13750913426E+03  0.16084815490E+03  0.47000000000E+01 0. -1.
         -5    1    3    3    0  501 -0.15652872527E+02 -0.39335487231E+02 -0.25385399352E+02  0.49586303293E+02  0.47000000000E+01 0. -1.
          5    1    4    4  502    0  0.81155106106E+01 -0.85426179084E+02 -0.46328541778E+02  0.97631538801E+02  0.47000000000E+01 0. -1.
         -5    1    4    4    0  502  0.57106719485E+01  0.41467367989E+02 -0.57481185153E+02  0.71262409647E+02  0.47000000000E+01 0. -1.
<mgrwt>
<rscale>  0 0.26973854E+03</rscale>
<asrwt>0</asrwt>
<pdfrwt beam="1">  1       21 0.86633957E-02 0.26973854E+03</pdfrwt>
<pdfrwt beam="2">  1       21 0.49694821E-01 0.26973854E+03</pdfrwt>
<totfact> 0.39623769E+05</totfact>
</mgrwt>
</event>
<event>
 8    1  0.9175398E-006  0.3709695E+03  0.7546771E-02  0.1054323E+00
         21   -1    0    0  504  503  0.00000000000E+00  0.00000000000E+00  0.64893768539E+03  0.64893768539E+03  0.00000000000E+00 0.  1.
         21   -1    0    0  503  504 -0.00000000000E+00 -0.00000000000E+00 -0.53016783810E+02  0.53016783810E+02  0.00000000000E+00 0.  1.
         25    2    1    2    0    0  0.11646812299E+03  0.89228590137E+01  0.43358865046E+03  0.46611515546E+03  0.12497911527E+03 0.  0.
         25    2    1    2    0    0 -0.11646812299E+03 -0.89228590137E+01  0.16233225111E+03  0.23583931373E+03  0.12499592419E+03 0.  0.
          5    1    3    3  501    0  0.15297409222E+01  0.48299330761E+02  0.10280310856E+03  0.11369140068E+03  0.47000000000E+01 0. -1.
         -5    1    3    3    0  501  0.11493838207E+03 -0.39376471747E+02  0.33078554191E+03  0.35242375478E+03  0.47000000000E+01 0. -1.
          5    1    4    4  502    0 -0.94535749080E+02  0.50061611038E+02  0.90251433059E+02  0.14003779462E+03  0.47000000000E+01 0. -1.
         -5    1    4    4    0  502 -0.21932373913E+02 -0.58984470052E+02  0.72080818052E+02  0.95801519110E+02  0.47000000000E+01 0. -1.
<mgrwt>
<rscale>  0 0.37096948E+03</rscale>
<asrwt>0</asrwt>
<pdfrwt beam="1">  1       21 0.99836561E-01 0.37096948E+03</pdfrwt>
<pdfrwt beam="2">  1       21 0.81564287E-02 0.37096948E+03</pdfrwt>
<totfact> 0.90157462E+04</totfact>
</mgrwt>
</event>
<event>
 8    1  0.9175398E-006  0.3769560E+03  0.7546771E-02  0.1052065E+00
         21   -1    0    0  504  503  0.00000000000E+00  0.00000000000E+00  0.26827543781E+03  0.26827543781E+03  0.00000000000E+00 0. -1.
         21   -1    0    0  503  504 -0.00000000000E+00 -0.00000000000E+00 -0.13241596407E+03  0.13241596407E+03  0.00000000000E+00 0. -1.
         25    2    1    2    0    0  0.19833627115E+02  0.12483785451E+03  0.13728783986E+01  0.17777956034E+03  0.12500329834E+03 0.  0.
         25    2    1    2    0    0 -0.19833627115E+02 -0.12483785451E+03  0.13448659534E+03  0.22291184153E+03  0.12500072834E+03 0.  0.
          5    1    3    3  501    0  0.52378456112E+02  0.11060186752E+03 -0.34338514240E+02  0.12719079890E+03  0.47000000000E+01 0.  1.
         -5    1    3    3    0  501 -0.32544828997E+02  0.14235986994E+02  0.35711392639E+02  0.50588761443E+02  0.47000000000E+01 0.  1.
          5    1    4    4  502    0 -0.69405955627E+02 -0.51950097212E+02  0.47433132809E+02  0.98934278008E+02  0.47000000000E+01 0. -1.
         -5    1    4    4    0  502  0.49572328511E+02 -0.72887757302E+02  0.87053462532E+02  0.12397756352E+03  0.47000000000E+01 0. -1.
<mgrwt>
<rscale>  0 0.37695597E+03</rscale>
<asrwt>0</asrwt>
<pdfrwt beam="1">  1       21 0.41273144E-01 0.37695597E+03</pdfrwt>
<pdfrwt beam="2">  1       21 0.20371687E-01 0.37695597E+03</pdfrwt>
<totfact> 0.11969673E+05</totfact>
</mgrwt>
</event>
<event>
 8    1  0.9175398E-006  0.2914377E+03  0.7546771E-02  0.1089601E+00
         21   -1    0    0  504  503  0.00000000000E+00  0.00000000000E+00  0.81516719318E+03  0.81516719318E+03  0.00000000000E+00 0.  1.
         21   -1    0    0  503  504 -0.00000000000E+00 -0.00000000000E+00 -0.26048628222E+02  0.26048628222E+02  0.00000000000E+00 0.  1.
         25    2    1    2    0    0 -0.47581307362E+02  0.42947007127E+02  0.50660807940E+03  0.52572304452E+03  0.12499818876E+03 0.  0.
         25    2    1    2    0    0  0.47581307362E+02 -0.42947007127E+02  0.28251048555E+03  0.31549277688E+03  0.12496036005E+03 0.  0.
          5    1    3    3  501    0  0.10013384439E+02 -0.18406768490E+02  0.32279308257E+03  0.32350663231E+03  0.47000000000E+01 0.  1.
         -5    1    3    3    0  501 -0.57594691801E+02  0.61353775617E+02  0.18381499683E+03  0.20221641221E+03  0.47000000000E+01 0.  1.
          5    1    4    4  502    0  0.37446385797E+02 -0.23016322796E+02  0.28850453398E+03  0.29187144268E+03  0.47000000000E+01 0.  1.
         -5    1    4    4    0  502  0.10134921565E+02 -0.19930684331E+02 -0.59940484247E+01  0.23621334204E+02  0.47000000000E+01 0.  1.
<mgrwt>
<rscale>  0 0.29143773E+03</rscale>
<asrwt>0</asrwt>
<pdfrwt beam="1">  1       21 0.12541032E+00 0.29143773E+03</pdfrwt>
<pdfrwt beam="2">  1       21 0.40074819E-02 0.29143773E+03</pdfrwt>
<totfact> 0.17877961E+05</totfact>
</mgrwt>
</event>
<event>
 8    1  0.9175398E-006  0.4736408E+03  0.7546771E-02  0.1020898E+00
         21   -1    0    0  504  503  0.00000000000E+00  0.00000000000E+00  0.61084018686E+03  0.61084018686E+03  0.00000000000E+00 0. -1.
         21   -1    0    0  503  504 -0.00000000000E+00 -0.00000000000E+00 -0.91814359927E+02  0.91814359927E+02  0.00000000000E+00 0. -1.
         25    2    1    2    0    0 -0.19528445499E+03 -0.29954313366E+02  0.31543141675E+03  0.39263125045E+03  0.12501616259E+03 0.  0.
         25    2    1    2    0    0  0.19528445499E+03  0.29954313366E+02  0.20359441019E+03  0.31002329634E+03  0.12502192273E+03 0.  0.
          5    1    3    3  501    0 -0.96649820501E+02 -0.75837421335E+02  0.19251778984E+03  0.22842436753E+03  0.47000000000E+01 0. -1.
         -5    1    3    3    0  501 -0.98634634489E+02  0.45883107969E+02  0.12291362691E+03  0.16420688292E+03  0.47000000000E+01 0. -1.
          5    1    4    4  502    0  0.93335324564E+02 -0.47373260647E+02  0.77573626747E+02  0.13036666062E+03  0.47000000000E+01 0. -1.
         -5    1    4    4    0  502  0.10194913043E+03  0.77327574013E+02  0.12602078344E+03  0.17965663571E+03  0.47000000000E+01 0. -1.
<mgrwt>
<rscale>  0 0.47364080E+03</rscale>
<asrwt>0</asrwt>
<pdfrwt beam="1">  1       21 0.93975411E-01 0.47364080E+03</pdfrwt>
<pdfrwt beam="2">  1       21 0.14125286E-01 0.47364080E+03</pdfrwt>
<totfact> 0.37745424E+04</totfact>
</mgrwt>
</event>
<event>
 8    1  0.9175398E-006  0.3607586E+03  0.7546771E-02  0.1058284E+00
         21   -1    0    0  504  503  0.00000000000E+00  0.00000000000E+00  0.20665652942E+02  0.20665652942E+02  0.00000000000E+00 0.  1.
         21   -1    0    0  503  504 -0.00000000000E+00 -0.00000000000E+00 -0.15744332595E+04  0.15744332595E+04  0.00000000000E+00 0.  1.
         25    2    1    2    0    0 -0.10362751086E+03  0.26018805434E+02 -0.11046837874E+04  0.11168555916E+04  0.12499801159E+03 0.  0.
         25    2    1    2    0    0  0.10362751086E+03 -0.26018805434E+02 -0.44908381915E+03  0.47824332093E+03  0.12499903257E+03 0.  0.
          5    1    3    3  501    0 -0.10856890059E+02 -0.38379712596E+02 -0.50628876294E+03  0.50787919418E+03  0.47000000000E+01 0.  1.
         -5    1    3    3    0  501 -0.92770620800E+02  0.64398518031E+02 -0.59839502450E+03  0.60897639737E+03  0.47000000000E+01 0.  1.
          5    1    4    4  502    0  0.12818256498E+03 -0.21118621518E+01 -0.37828641888E+03  0.39944703608E+03  0.47000000000E+01 0. -1.
         -5    1    4    4    0  502 -0.24555054120E+02 -0.23906943282E+02 -0.70797400275E+02  0.78796284847E+02  0.47000000000E+01 0. -1.
<mgrwt>
<rscale>  0 0.36075860E+03</rscale>
<asrwt>0</asrwt>
<pdfrwt beam="1">  1       21 0.31793292E-02 0.36075860E+03</pdfrwt>
<pdfrwt beam="2">  1       21 0.24222066E+00 0.36075860E+03</pdfrwt>
<totfact> 0.38590606E+04</totfact>
</mgrwt>
</event>
<event>
 8    1  0.9175398E-006  0.2824776E+03  0.7546771E-02  0.1094343E+00
         21   -1    0    0  504  503  0.00000000000E+00  0.00000000000E+00  0.10679252523E+02  0.10679252523E+02  0.00000000000E+00 0. -1.
         21   -1    0    0  503  504 -0.00000000000E+00 -0.00000000000E+00 -0.18679585323E+04  0.18679585323E+04  0.00000000000E+00 0. -1.
         25    2    1    2    0    0 -0.60006514865E+02 -0.79161257989E+01 -0.75767423262E+03  0.77029666835E+03  0.12499307030E+03 0.  0.
         25    2    1    2    0    0  0.60006514865E+02  0.79161257989E+01 -0.10996050472E+04  0.11083411165E+04  0.12500129541E+03 0.  0.
          5    1    3    3  501    0 -0.93027323805E+02  0.17522666063E+02 -0.58314827863E+03  0.59080041611E+03  0.47000000000E+01 0.  1.
         -5    1    3    3    0  501  0.33020808940E+02 -0.25438791862E+02 -0.17452595398E+03  0.17949625224E+03  0.47000000000E+01 0.  1.
          5    1    4    4  502    0 -0.21880239304E+02  0.43729966939E+02 -0.42274219684E+03  0.42558678301E+03  0.47000000000E+01 0. -1.
         -5    1    4    4    0  502  0.81886754169E+02 -0.35813841140E+02 -0.67686285033E+03  0.68275433348E+03  0.47000000000E+01 0. -1.
<mgrwt>
<rscale>  0 0.28247762E+03</rscale>
<asrwt>0</asrwt>
<pdfrwt beam="1">  1       21 0.16429617E-02 0.28247762E+03</pdfrwt>
<pdfrwt beam="2">  1       21 0.28737827E+00 0.28247762E+03</pdfrwt>
<totfact> 0.64142766E+04</totfact>
</mgrwt>
</event>
<event>
 8    1  0.9175398E-006  0.4232758E+03  0.7546771E-02  0.1036005E+00
         21   -1    0    0  504  503  0.00000000000E+00  0.00000000000E+00  0.10544064564E+03  0.10544064564E+03  0.00000000000E+00 0.  1.
         21   -1    0    0  503  504 -0.00000000000E+00 -0.00000000000E+00 -0.42479443750E+03  0.42479443750E+03  0.00000000000E+00 0.  1.
         25    2    1    2    0    0 -0.48608743755E+02 -0.13474330977E+03 -0.27618822081E+03  0.33527943271E+03  0.12495517272E+03 0.  0.
         25    2    1    2    0    0  0.48608743755E+02  0.13474330977E+03 -0.43165571049E+02  0.19495565043E+03  0.12500347840E+03 0.  0.
          5    1    3    3  501    0 -0.69800078605E+02 -0.14861555225E+03 -0.23563657288E+03  0.28723738932E+03  0.47000000000E+01 0. -1.
         -5    1    3    3    0  501  0.21191334850E+02  0.13872242474E+02 -0.40551647922E+02  0.48042043391E+02  0.47000000000E+01 0. -1.
          5    1    4    4  502    0 -0.11581611040E+02  0.71785004214E+02  0.32215457702E+02  0.79668979278E+02  0.47000000000E+01 0.  1.
         -5    1    4    4    0  502  0.60190354796E+02  0.62958305559E+02 -0.75381028751E+02  0.11528667115E+03  0.47000000000E+01 0.  1.
<mgrwt>
<rscale>  0 0.42327580E+03</rscale>
<asrwt>0</asrwt>
<pdfrwt beam="1">  1       21 0.16221638E-01 0.42327580E+03</pdfrwt>
<pdfrwt beam="2">  1       21 0.65352990E-01 0.42327580E+03</pdfrwt>
<totfact> 0.68149881E+04</totfact>
</mgrwt>
</event>
<event>
 8    1  0.9175398E-006  0.2892714E+03  0.7546771E-02  0.1090730E+00
         21   -1    0    0  504  503  0.00000000000E+00  0.00000000000E+00  0.14078438434E+04  0.14078438434E+04  0.00000000000E+00 0.  1.
         21   -1    0    0  503  504 -0.00000000000E+00 -0.00000000000E+00 -0.14859239060E+02  0.14859239060E+02  0.00000000000E+00 0.  1.
         25    2    1    2    0    0 -0.27001432618E+02  0.59144131187E+02  0.85714937949E+03  0.86865125810E+03  0.12499137499E+03 0.  0.
         25    2    1    2    0    0  0.27001432618E+02 -0.59144131187E+02  0.53583522482E+03  0.55405182433E+03  0.12500772083E+03 0.  0.
          5    1    3    3  501    0 -0.59094993151E+02  0.77825744910E+02  0.49519115302E+03  0.50476274904E+03  0.47000000000E+01 0.  1.
         -5    1    3    3    0  501  0.32093560533E+02 -0.18681613722E+02  0.36195822647E+03  0.36388850906E+03  0.47000000000E+01 0.  1.
          5    1    4    4  502    0 -0.45529634441E+02 -0.48766595733E+02  0.28109044742E+03  0.28893781010E+03  0.47000000000E+01 0.  1.
         -5    1    4    4    0  502  0.72531067059E+02 -0.10377535454E+02  0.25474477740E+03  0.26511401423E+03  0.47000000000E+01 0.  1.
<mgrwt>
<rscale>  0 0.28927142E+03</rscale>
<asrwt>0</asrwt>
<pdfrwt beam="1">  1       21 0.21659126E+00 0.28927142E+03</pdfrwt>
<pdfrwt beam="2">  1       21 0.22860379E-02 0.28927142E+03</pdfrwt>
<totfact> 0.99369232E+04</totfact>
</mgrwt>
</event>
<event>
 8    1  0.9175398E-006  0.2614701E+03  0.7546771E-02  0.1106263E+00
         21   -1    0    0  504  503  0.00000000000E+00  0.00000000000E+00  0.70779160898E+03  0.70779160898E+03  0.00000000000E+00 0. -1.
         21   -1    0    0  503  504 -0.00000000000E+00 -0.00000000000E+00 -0.24147869032E+02  0.24147869032E+02  0.00000000000E+00 0. -1.
         25    2    1    2    0    0 -0.17016080686E+01  0.26675772468E+01  0.23497367274E+03  0.26617307965E+03  0.12500188002E+03 0.  0.
         25    2    1    2    0    0  0.17016080686E+01 -0.26675772468E+01  0.44867006721E+03  0.46576639837E+03  0.12499398866E+03 0.  0.
          5    1    3    3  501    0  0.18695820551E-01  0.62913939945E+02  0.14047262578E+03  0.15398965154E+03  0.47000000000E+01 0. -1.
         -5    1    3    3    0  501 -0.17203038892E+01 -0.60246362698E+02  0.94501046961E+02  0.11218342810E+03  0.47000000000E+01 0. -1.
          5    1    4    4  502    0  0.48961312578E+02 -0.14719084876E+02  0.88782792304E+02  0.10255893817E+03  0.47000000000E+01 0. -1.
         -5    1    4    4    0  502 -0.47259704509E+02  0.12051507629E+02  0.35988727491E+03  0.36320746020E+03  0.47000000000E+01 0. -1.
<mgrwt>
<rscale>  0 0.26147014E+03</rscale>
<asrwt>0</asrwt>
<pdfrwt beam="1">  1       21 0.10889100E+00 0.26147014E+03</pdfrwt>
<pdfrwt beam="2">  1       21 0.37150573E-02 0.26147014E+03</pdfrwt>
<totfact> 0.29088079E+05</totfact>
</mgrwt>
</event>
<event>
 8    1  0.9175398E-006  0.3825910E+03  0.7546771E-02  0.1049980E+00
         21   -1    0    0  504  503  0.00000000000E+00  0.00000000000E+00  0.28218092240E+03  0.28218092240E+03  0.00000000000E+00 0. -1.
         21   -1    0    0  503  504 -0.00000000000E+00 -0.00000000000E+00 -0.12968261173E+03  0.12968261173E+03  0.00000000000E+00 0. -1.
         25    2    1    2    0    0 -0.10082164213E+03 -0.10362913304E+03  0.67545842441E+02  0.20270966794E+03  0.12499907164E+03 0.  0.
         25    2    1    2    0    0  0.10082164213E+03  0.10362913304E+03  0.84952468224E+02  0.20915386619E+03  0.12499766857E+03 0.  0.
          5    1    3    3  501    0 -0.55609815252E+02 -0.31736479070E+02  0.93822878963E+02  0.11368587543E+03  0.47000000000E+01 0.  1.
         -5    1    3    3    0  501 -0.45211826882E+02 -0.71892653968E+02 -0.26277036522E+02  0.89023792510E+02  0.47000000000E+01 0.  1.
          5    1    4    4  502    0  0.11123721818E+02 -0.23648993629E+02 -0.80204785971E+01  0.27738604213E+02  0.47000000000E+01 0.  1.
         -5    1    4    4    0  502  0.89697920316E+02  0.12727812667E+03  0.92972946821E+02  0.18141526197E+03  0.47000000000E+01 0.  1.
<mgrwt>
<rscale>  0 0.38259095E+03</rscale>
<asrwt>0</asrwt>
<pdfrwt beam="1">  1       21 0.43412449E-01 0.38259095E+03</pdfrwt>
<pdfrwt beam="2">  1       21 0.19951171E-01 0.38259095E+03</pdfrwt>
<totfact> 0.11203474E+05</totfact>
</mgrwt>
</event>
<event>
 8    1  0.9175398E-006  0.2795748E+03  0.7546771E-02  0.1095921E+00
         21   -1    0    0  504  503  0.00000000000E+00  0.00000000000E+00  0.32790882324E+02  0.32790882324E+02  0.00000000000E+00 0. -1.
         21   -1    0    0  503  504 -0.00000000000E+00 -0.00000000000E+00 -0.59591313430E+03  0.59591313430E+03  0.00000000000E+00 0. -1.
         25    2    1    2    0    0 -0.38884468559E+02 -0.25572039287E+02 -0.37569996196E+03  0.39866182366E+03  0.12495942196E+03 0.  0.
         25    2    1    2    0    0  0.38884468559E+02  0.25572039287E+02 -0.18742229002E+03  0.23004219297E+03  0.12500545853E+03 0.  0.
          5    1    3    3  501    0 -0.73302945220E+02  0.18862517357E+02 -0.18965325497E+03  0.20425367428E+03  0.47000000000E+01 0. -1.
         -5    1    3    3    0  501  0.34418476661E+02 -0.44434556644E+02 -0.18604670699E+03  0.19440814937E+03  0.47000000000E+01 0. -1.
          5    1    4    4  502    0 -0.45657304079E+02  0.13591198189E+02 -0.68056922386E+02  0.83205437134E+02  0.47000000000E+01 0.  1.
         -5    1    4    4    0  502  0.84541772638E+02  0.11980841098E+02 -0.11936536763E+03  0.14683675584E+03  0.47000000000E+01 0.  1.
<mgrwt>
<rscale>  0 0.27957480E+03</rscale>
<asrwt>0</asrwt>
<pdfrwt beam="1">  1       21 0.50447517E-02 0.27957480E+03</pdfrwt>
<pdfrwt beam="2">  1       21 0.91678934E-01 0.27957480E+03</pdfrwt>
<totfact> 0.26027682E+05</totfact>
</mgrwt>
</event>
<event>
 8    1  0.9175398E-006  0.3151112E+03  0.7546771E-02  0.1077922E+00
         21   -1    0    0  504  503  0.00000000000E+00  0.00000000000E+00  0.94063230381E+02  0.94063230381E+02  0.00000000000E+00 0. -1.
         21   -1    0    0  503  504 -0.00000000000E+00 -0.00000000000E+00 -0.26390516629E+03  0.26390516629E+03  0.00000000000E+00 0. -1.
         25    2    1    2    0    0  0.64268367772E+02 -0.16962863654E+02 -0.63605249725E+01  0.14171393320E+03  0.12499688295E+03 0.  0.
         25    2    1    2    0    0 -0.64268367772E+02  0.16962863654E+02 -0.16348141093E+03  0.21625446346E+03  0.12498663692E+03 0.  0.
          5    1    3    3  501    0  0.79455269725E+01  0.51651319539E+02 -0.60616459364E+01  0.52818782270E+02  0.47000000000E+01 0. -1.
         -5    1    3    3    0  501  0.56322840800E+02 -0.68614183193E+02 -0.29887903611E+00  0.88895150934E+02  0.47000000000E+01 0. -1.
          5    1    4    4  502    0 -0.71744847296E+00  0.43816522490E+02 -0.13403363855E+03  0.14109397095E+03  0.47000000000E+01 0. -1.
         -5    1    4    4    0  502 -0.63550919299E+02 -0.26853658836E+02 -0.29447772385E+02  0.75160492515E+02  0.47000000000E+01 0. -1.
<mgrwt>
<rscale>  0 0.31511123E+03</rscale>
<asrwt>0</asrwt>
<pdfrwt beam="1">  1       21 0.14471266E-01 0.31511123E+03</pdfrwt>
<pdfrwt beam="2">  1       21 0.40600795E-01 0.31511123E+03</pdfrwt>
<totfact> 0.23741472E+05</totfact>
</mgrwt>
</event>
<event>
 8    1  0.9175398E-006  0.2967747E+03  0.7546771E-02  0.1086864E+00
         21   -1    0    0  504  503  0.00000000000E+00  0.00000000000E+00  0.13241285369E+02  0.13241285369E+02  0.00000000000E+00 0.  1.
         21   -1    0    0  503  504 -0.00000000000E+00 -0.00000000000E+00 -0.16628900267E+04  0.16628900267E+04  0.00000000000E+00 0.  1.
         25    2    1    2    0    0  0.66315660420E+02  0.22815381276E+02 -0.60789553359E+03  0.62456391384E+03  0.12499917707E+03 0.  0.
         25    2    1    2    0    0 -0.66315660420E+02 -0.22815381276E+02 -0.10417532078E+04  0.10515673983E+04  0.12500375493E+03 0.  0.
          5    1    3    3  501    0  0.38089462101E+02  0.38401905293E+02 -0.86337799436E+02  0.10198930858E+03  0.47000000000E+01 0.  1.
         -5    1    3    3    0  501  0.28226198319E+02 -0.15586524016E+02 -0.52155773416E+03  0.52257460526E+03  0.47000000000E+01 0.  1.
          5    1    4    4  502    0 -0.20702198892E+02  0.50274425324E+02 -0.50253755560E+03  0.50549202137E+03  0.47000000000E+01 0. -1.
         -5    1    4    4    0  502 -0.45613461528E+02 -0.73089806600E+02 -0.53921565217E+03  0.54607537689E+03  0.47000000000E+01 0. -1.
<mgrwt>
<rscale>  0 0.29677467E+03</rscale>
<asrwt>0</asrwt>
<pdfrwt beam="1">  1       21 0.20371204E-02 0.29677467E+03</pdfrwt>
<pdfrwt beam="2">  1       21 0.25582929E+00 0.29677467E+03</pdfrwt>
<totfact> 0.68862938E+04</totfact>
</mgrwt>
</event>
<event>
 8    1  0.9175398E-006  0.2587621E+03  0.7546771E-02  0.1107889E+00
         21   -1    0    0  504  503  0.00000000000E+00  0.00000000000E+00  0.23527464141E+03  0.23527464141E+03  0.00000000000E+00 0.  1.
         21   -1    0    0  503  504 -0.00000000000E+00 -0.00000000000E+00 -0.71148605159E+02  0.71148605159E+02  0.00000000000E+00 0.  1.
         25    2    1    2    0    0  0.63478434987E+01 -0.70074237189E+01  0.44101560261E+02  0.13287462302E+03  0.12498527401E+03 0.  0.
         25    2    1    2    0    0 -0.63478434987E+01  0.70074237189E+01  0.12002447599E+03  0.17354862355E+03  0.12499540310E+03 0.  0.
          5    1    3    3  501    0 -0.35569164453E+02 -0.28944702061E+02  0.66020578065E+02  0.80521847751E+02  0.47000000000E+01 0.  1.
         -5    1    3    3    0  501  0.41917007951E+02  0.21937278342E+02 -0.21919017803E+02  0.52352775267E+02  0.47000000000E+01 0.  1.
          5    1    4    4  502    0 -0.22322304473E+02  0.48612300268E+02  0.98306063215E+01  0.54590950120E+02  0.47000000000E+01 0. -1.
         -5    1    4    4    0  502  0.15974460974E+02 -0.41604876549E+02  0.11019386967E+03  0.11895767343E+03  0.47000000000E+01 0. -1.
<mgrwt>
<rscale>  0 0.25876215E+03</rscale>
<asrwt>0</asrwt>
<pdfrwt beam="1">  1       21 0.36196098E-01 0.25876215E+03</pdfrwt>
<pdfrwt beam="2">  1       21 0.10945939E-01 0.25876215E+03</pdfrwt>
<totfact> 0.50235341E+05</totfact>
</mgrwt>
</event>
<event>
 8    1  0.9175398E-006  0.3421111E+03  0.7546771E-02  0.1065900E+00
         21   -1    0    0  504  503  0.00000000000E+00  0.00000000000E+00  0.34231125973E+03  0.34231125973E+03  0.00000000000E+00 0. -1.
         21   -1    0    0  503  504 -0.00000000000E+00 -0.00000000000E+00 -0.85477747138E+02  0.85477747138E+02  0.00000000000E+00 0. -1.
         25    2    1    2    0    0  0.11125503934E+03  0.35438666623E+02  0.12674872317E+03  0.21289453547E+03  0.12500104615E+03 0.  0.
         25    2    1    2    0    0 -0.11125503934E+03 -0.35438666623E+02  0.13008478942E+03  0.21489447140E+03  0.12499599404E+03 0.  0.
          5    1    3    3  501    0  0.59714828820E+02  0.69260020554E+02  0.11964183794E+03  0.15066210743E+03  0.47000000000E+01 0.  1.
         -5    1    3    3    0  501  0.51540210523E+02 -0.33821353931E+02  0.71068852229E+01  0.62232428042E+02  0.47000000000E+01 0.  1.
          5    1    4    4  502    0 -0.10047614730E+02  0.11526329203E+02 -0.21386653599E+02  0.26707485446E+02  0.47000000000E+01 0.  1.
         -5    1    4    4    0  502 -0.10120742461E+03 -0.46964995826E+02  0.15147144302E+03  0.18818698595E+03  0.47000000000E+01 0.  1.
<mgrwt>
<rscale>  0 0.34211107E+03</rscale>
<asrwt>0</asrwt>
<pdfrwt beam="1">  1       21 0.52663270E-01 0.34211107E+03</pdfrwt>
<pdfrwt beam="2">  1       21 0.13150423E-01 0.34211107E+03</pdfrwt>
<totfact> 0.16338191E+05</totfact>
</mgrwt>
</event>
<event>
 8    1  0.9175398E-006  0.2637281E+03  0.7546771E-02  0.1104924E+00
         21   -1    0    0  504  503  0.00000000000E+00  0.00000000000E+00  0.85247997162E+02  0.85247997162E+02  0.00000000000E+00 0.  1.
         21   -1    0    0  503  504 -0.00000000000E+00 -0.00000000000E+00 -0.20397114702E+03  0.20397114702E+03  0.00000000000E+00 0.  1.
         25    2    1    2    0    0  0.16082913233E+02  0.38361859915E+02 -0.52994637791E+02  0.14199903081E+03  0.12500000289E+03 0.  0.
         25    2    1    2    0    0 -0.16082913233E+02 -0.38361859915E+02 -0.65728512063E+02  0.14722011337E+03  0.12499292815E+03 0.  0.
          5    1    3    3  501    0 -0.72901747269E+01  0.38403747987E+02  0.33861900625E+02  0.51929883699E+02  0.47000000000E+01 0.  1.
         -5    1    3    3    0  501  0.23373087960E+02 -0.41888072906E-01 -0.86856538416E+02  0.90069147109E+02  0.47000000000E+01 0.  1.
          5    1    4    4  502    0  0.36527444862E+02 -0.28945451321E+02 -0.79097296924E+02  0.91926958837E+02  0.47000000000E+01 0. -1.
         -5    1    4    4    0  502 -0.52610358095E+02 -0.94164085931E+01  0.13368784861E+02  0.55293154534E+02  0.47000000000E+01 0. -1.
<mgrwt>
<rscale>  0 0.26372813E+03</rscale>
<asrwt>0</asrwt>
<pdfrwt beam="1">  1       21 0.13115077E-01 0.26372813E+03</pdfrwt>
<pdfrwt beam="2">  1       21 0.31380176E-01 0.26372813E+03</pdfrwt>
<totfact> 0.48150204E+05</totfact>
</mgrwt>
</event>
<event>
 8    1  0.9175398E-006  0.3083320E+03  0.7546771E-02  0.1081148E+00
         21   -1    0    0  504  503  0.00000000000E+00  0.00000000000E+00  0.47067032337E+03  0.47067032337E+03  0.00000000000E+00 0.  1.
         21   -1    0    0  503  504 -0.00000000000E+00 -0.00000000000E+00 -0.50496410181E+02  0.50496410181E+02  0.00000000000E+00 0.  1.
         25    2    1    2    0    0  0.62129253789E+02  0.65216155499E+02  0.21916926482E+03  0.26790615798E+03  0.12500140689E+03 0.  0.
         25    2    1    2    0    0 -0.62129253789E+02 -0.65216155499E+02  0.20100464836E+03  0.25326057557E+03  0.12499943744E+03 0.  0.
          5    1    3    3  501    0  0.77438630287E+02  0.76040945561E+02  0.22313481171E+03  0.24817373160E+03  0.47000000000E+01 0.  1.
         -5    1    3    3    0  501 -0.15309376498E+02 -0.10824790062E+02 -0.39655468811E+01  0.19732426376E+02  0.47000000000E+01 0.  1.
          5    1    4    4  502    0 -0.89886054298E+01  0.36807306203E+02  0.61457955106E+02  0.72351524264E+02  0.47000000000E+01 0. -1.
         -5    1    4    4    0  502 -0.53140648360E+02 -0.10202346170E+03  0.13954669325E+03  0.18090905130E+03  0.47000000000E+01 0. -1.
<mgrwt>
<rscale>  0 0.30833204E+03</rscale>
<asrwt>0</asrwt>
<pdfrwt beam="1">  1       21 0.72410816E-01 0.30833204E+03</pdfrwt>
<pdfrwt beam="2">  1       21 0.77686788E-02 0.30833204E+03</pdfrwt>
<totfact> 0.21035038E+05</totfact>
</mgrwt>
</event>
<event>
 8    1  0.9175398E-006  0.3436065E+03  0.7546771E-02  0.1065270E+00
         21   -1    0    0  504  503  0.00000000000E+00  0.00000000000E+00  0.62368330461E+02  0.62368330461E+02  0.00000000000E+00 0.  1.
         21   -1    0    0  503  504 -0.00000000000E+00 -0.00000000000E+00 -0.47325860853E+03  0.47325860853E+03  0.00000000000E+00 0.  1.
         25    2    1    2    0    0  0.81305061386E+02  0.57358351055E+02 -0.10695731784E+03  0.19226295660E+03  0.12499873278E+03 0.  0.
         25    2    1    2    0    0 -0.81305061386E+02 -0.57358351055E+02 -0.30393296023E+03  0.34336398240E+03  0.12499234638E+03 0.  0.
          5    1    3    3  501    0  0.10907505892E+03  0.33802675389E+02 -0.50575916710E+02  0.12498000918E+03  0.47000000000E+01 0.  1.
         -5    1    3    3    0  501 -0.27769997539E+02  0.23555675665E+02 -0.56381401135E+02  0.67282947418E+02  0.47000000000E+01 0.  1.
          5    1    4    4  502    0 -0.37143980418E+02  0.24910546442E+02 -0.19356959379E+03  0.19872465435E+03  0.47000000000E+01 0. -1.
         -5    1    4    4    0  502 -0.44161080968E+02 -0.82268897497E+02 -0.11036336643E+03  0.14463932805E+03  0.47000000000E+01 0. -1.
<mgrwt>
<rscale>  0 0.34360646E+03</rscale>
<asrwt>0</asrwt>
<pdfrwt beam="1">  1       21 0.95951274E-02 0.34360646E+03</pdfrwt>
<pdfrwt beam="2">  1       21 0.72809019E-01 0.34360646E+03</pdfrwt>
<totfact> 0.14185629E+05</totfact>
</mgrwt>
</event>
<event>
 8    1  0.9175398E-006  0.2678002E+03  0.7546771E-02  0.1102545E+00
         21   -1    0    0  504  503  0.00000000000E+00  0.00000000000E+00  0.56155123819E+02  0.56155123819E+02  0.00000000000E+00 0.  1.
         21   -1    0    0  503  504 -0.00000000000E+00 -0.00000000000E+00 -0.31928047887E+03  0.31928047887E+03  0.00000000000E+00 0.  1.
         25    2    1    2    0    0 -0.28886269171E+02  0.20797773266E+02 -0.86396727571E+02  0.15606272230E+03  0.12499685931E+03 0.  0.
         25    2    1    2    0    0  0.28886269171E+02 -0.20797773266E+02 -0.17672862748E+03  0.21937288039E+03  0.12499795582E+03 0.  0.
          5    1    3    3  501    0  0.36184510248E+02  0.28738318124E+02 -0.76646934971E+02  0.89621718077E+02  0.47000000000E+01 0.  1.
         -5    1    3    3    0  501 -0.65070779419E+02 -0.79405448580E+01 -0.97497925995E+01  0.66441004226E+02  0.47000000000E+01 0.  1.
          5    1    4    4  502    0  0.77471577116E+02 -0.19934579881E+02 -0.12276151765E+03  0.14660052166E+03  0.47000000000E+01 0. -1.
         -5    1    4    4    0  502 -0.48585307945E+02 -0.86319338517E+00 -0.53967109834E+02  0.72772358728E+02  0.47000000000E+01 0. -1.
<mgrwt>
<rscale>  0 0.26780019E+03</rscale>
<asrwt>0</asrwt>
<pdfrwt beam="1">  1       21 0.86392497E-02 0.26780019E+03</pdfrwt>
<pdfrwt beam="2">  1       21 0.49120074E-01 0.26780019E+03</pdfrwt>
<totfact> 0.40818390E+05</totfact>
</mgrwt>
</event>
<event>
 8    1  0.9175398E-006  0.3128720E+03  0.7546771E-02  0.1078977E+00
         21   -1    0    0  504  503  0.00000000000E+00  0.00000000000E+00  0.11030198743E+03  0.11030198743E+03  0.00000000000E+00 0.  1.
         21   -1    0    0  503  504 -0.00000000000E+00 -0.00000000000E+00 -0.22186567606E+03  0.22186567606E+03  0.00000000000E+00 0.  1.
         25    2    1    2    0    0  0.25943927729E+02  0.80362448156E+02 -0.11783136129E+02  0.15130002082E+03  0.12498657346E+03 0.  0.
         25    2    1    2    0    0 -0.25943927729E+02 -0.80362448156E+02 -0.99780552499E+02  0.18086764266E+03  0.12500294015E+03 0.  0.
          5    1    3    3  501    0  0.60061994371E+02  0.29240012116E+02  0.33437545656E+02  0.74850390352E+02  0.47000000000E+01 0.  1.
         -5    1    3    3    0  501 -0.34118066642E+02  0.51122436039E+02 -0.45220681784E+02  0.76449630470E+02  0.47000000000E+01 0.  1.
          5    1    4    4  502    0 -0.30835991103E+02 -0.78296945811E+02 -0.12717651015E+03  0.15256875435E+03  0.47000000000E+01 0.  1.
         -5    1    4    4    0  502  0.48920633738E+01 -0.20655023449E+01  0.27395957651E+02  0.28298888310E+02  0.47000000000E+01 0.  1.
<mgrwt>
<rscale>  0 0.31287202E+03</rscale>
<asrwt>0</asrwt>
<pdfrwt beam="1">  1       21 0.16969537E-01 0.31287202E+03</pdfrwt>
<pdfrwt beam="2">  1       21 0.34133181E-01 0.31287202E+03</pdfrwt>
<totfact> 0.25143514E+05</totfact>
</mgrwt>
</event>
<event>
 8    1  0.9175398E-006  0.3326270E+03  0.7546771E-02  0.1069980E+00
         21   -1    0    0  504  503  0.00000000000E+00  0.00000000000E+00  0.23114691434E+03  0.23114691434E+03  0.00000000000E+00 0. -1.
         21   -1    0    0  503  504 -0.00000000000E+00 -0.00000000000E+00 -0.11966493002E+03  0.11966493002E+03  0.00000000000E+00 0. -1.
         25    2    1    2    0    0  0.55552333037E+01 -0.63078368639E+02  0.15019725816E+03  0.20541182455E+03  0.12500024039E+03 0.  0.
         25    2    1    2    0    0 -0.55552333037E+01  0.63078368639E+02 -0.38715273844E+02  0.14540001981E+03  0.12503020485E+03 0.  0.
          5    1    3    3  501    0  0.72631105674E+01 -0.11431691276E+02  0.15278787291E+03  0.15345898621E+03  0.47000000000E+01 0. -1.
         -5    1    3    3    0  501 -0.17078772637E+01 -0.51646677363E+02 -0.25906147428E+01  0.51952838345E+02  0.47000000000E+01 0. -1.
          5    1    4    4  502    0 -0.84323927991E+01 -0.34842344849E+02  0.75892108983E+01  0.36942933898E+02  0.47000000000E+01 0. -1.
         -5    1    4    4    0  502  0.28771594954E+01  0.97920713488E+02 -0.46304484742E+02  0.10845708591E+03  0.47000000000E+01 0. -1.
<mgrwt>
<rscale>  0 0.33262699E+03</rscale>
<asrwt>0</asrwt>
<pdfrwt beam="1">  1       21 0.35561064E-01 0.33262699E+03</pdfrwt>
<pdfrwt beam="2">  1       21 0.18409989E-01 0.33262699E+03</pdfrwt>
<totfact> 0.19809913E+05</totfact>
</mgrwt>
</event>
<event>
 8    1  0.9175398E-006  0.2754621E+03  0.7546771E-02  0.1098194E+00
         21   -1    0    0  504  503  0.00000000000E+00  0.00000000000E+00  0.11811035502E+04  0.11811035502E+04  0.00000000000E+00 0. -1.
         21   -1    0    0  503  504 -0.00000000000E+00 -0.00000000000E+00 -0.16061114166E+02  0.16061114166E+02  0.00000000000E+00 0. -1.
         25    2    1    2    0    0 -0.28586196033E+02  0.34478648757E+02  0.42346842490E+03  0.44379658790E+03  0.12499582684E+03 0.  0.
         25    2    1    2    0    0  0.28586196033E+02 -0.34478648757E+02  0.74157401111E+03  0.75336807644E+03  0.12500198724E+03 0.  0.
          5    1    3    3  501    0  0.46370609579E+02  0.33636416636E+02  0.17187310237E+03  0.18122939959E+03  0.47000000000E+01 0. -1.
         -5    1    3    3    0  501 -0.74956805611E+02  0.84223212019E+00  0.25159532253E+03  0.26256718832E+03  0.47000000000E+01 0. -1.
          5    1    4    4  502    0 -0.15152129335E+02 -0.69487462978E+02  0.51571334805E+03  0.52061544531E+03  0.47000000000E+01 0.  1.
         -5    1    4    4    0  502  0.43738325368E+02  0.35008814222E+02  0.22586066306E+03  0.23275263113E+03  0.47000000000E+01 0.  1.
<mgrwt>
<rscale>  0 0.27546208E+03</rscale>
<asrwt>0</asrwt>
<pdfrwt beam="1">  1       21 0.18170817E+00 0.27546208E+03</pdfrwt>
<pdfrwt beam="2">  1       21 0.24709416E-02 0.27546208E+03</pdfrwt>
<totfact> 0.14884895E+05</totfact>
</mgrwt>
</event>
<event>
 8    1  0.9175398E-006  0.3793927E+03  0.7546771E-02  0.1051158E+00
         21   -1    0    0  504  503  0.00000000000E+00  0.00000000000E+00  0.59257752913E+03  0.59257752913E+03  0.00000000000E+00 0. -1.
         21   -1    0    0  503  504 -0.00000000000E+00 -0.00000000000E+00 -0.60725726266E+02  0.60725726266E+02  0.00000000000E+00 0. -1.
         25    2    1    2    0    0 -0.82948456122E+02 -0.11510967080E+03  0.29203661611E+03  0.34790701676E+03  0.12499289771E+03 0.  0.
         25    2    1    2    0    0  0.82948456122E+02  0.11510967080E+03  0.23981518675E+03  0.30539623863E+03  0.12499942436E+03 0.  0.
          5    1    3    3  501    0  0.20099734648E+01 -0.83702033797E+02  0.74314630196E+02  0.11204831421E+03  0.47000000000E+01 0.  1.
         -5    1    3    3    0  501 -0.84958429587E+02 -0.31407637003E+02  0.21772198592E+03  0.23585870256E+03  0.47000000000E+01 0.  1.
          5    1    4    4  502    0 -0.17041491608E+02 -0.68173535259E+01  0.73600968951E+00  0.18961024645E+02  0.47000000000E+01 0. -1.
         -5    1    4    4    0  502  0.99989947730E+02  0.12192702433E+03  0.23907917706E+03  0.28643521399E+03  0.47000000000E+01 0. -1.
<mgrwt>
<rscale>  0 0.37939268E+03</rscale>
<asrwt>0</asrwt>
<pdfrwt beam="1">  1       21 0.91165770E-01 0.37939268E+03</pdfrwt>
<pdfrwt beam="2">  1       21 0.93424198E-02 0.37939268E+03</pdfrwt>
<totfact> 0.87826968E+04</totfact>
</mgrwt>
</event>
<event>
 8    1  0.9175398E-006  0.2907572E+03  0.7546771E-02  0.1089954E+00
         21   -1    0    0  504  503  0.00000000000E+00  0.00000000000E+00  0.16708282907E+04  0.16708282907E+04  0.00000000000E+00 0. -1.
         21   -1    0    0  503  504 -0.00000000000E+00 -0.00000000000E+00 -0.12649374479E+02  0.12649374479E+02  0.00000000000E+00 0. -1.
         25    2    1    2    0    0 -0.18554824464E+02  0.89559576302E+01  0.41593734129E+03  0.43479329520E+03  0.12496738368E+03 0.  0.
         25    2    1    2    0    0  0.18554824464E+02 -0.89559576302E+01  0.12422415750E+04  0.12486843700E+04  0.12499613855E+03 0.  0.
          5    1    3    3  501    0 -0.48977913199E+01  0.44875698007E+02  0.52917551700E+02  0.69714947532E+02  0.47000000000E+01 0. -1.
         -5    1    3    3    0  501 -0.13657033144E+02 -0.35919740376E+02  0.36301978959E+03  0.36507834767E+03  0.47000000000E+01 0. -1.
          5    1    4    4  502    0 -0.18034058492E+02 -0.49599231815E+02  0.94049277116E+03  0.94198410479E+03  0.47000000000E+01 0. -1.
         -5    1    4    4    0  502  0.36588882957E+02  0.40643274185E+02  0.30174880379E+03  0.30670026521E+03  0.47000000000E+01 0. -1.
<mgrwt>
<rscale>  0 0.29075717E+03</rscale>
<asrwt>0</asrwt>
<pdfrwt beam="1">  1       21 0.25705033E+00 0.29075717E+03</pdfrwt>
<pdfrwt beam="2">  1       21 0.19460589E-02 0.29075717E+03</pdfrwt>
<totfact> 0.73210538E+04</totfact>
</mgrwt>
</event>
<event>
 8    1  0.9175398E-006  0.3260353E+03  0.7546771E-02  0.1072905E+00
         21   -1    0    0  504  503  0.00000000000E+00  0.00000000000E+00  0.18561962851E+03  0.18561962851E+03  0.00000000000E+00 0.  1.
         21   -1    0    0  503  504 -0.00000000000E+00 -0.00000000000E+00 -0.14316781596E+03  0.14316781596E+03  0.00000000000E+00 0.  1.
         25    2    1    2    0    0  0.15387476013E+02 -0.80269360583E+02 -0.44661799869E+02  0.15588822668E+03  0.12500607259E+03 0.  0.
         25    2    1    2    0    0 -0.15387476013E+02  0.80269360583E+02  0.87113612428E+02  0.17289921779E+03  0.12500165349E+03 0.  0.
          5    1    3    3  501    0  0.47329694624E+02 -0.43540898631E+02  0.26357214266E+02  0.69661342153E+02  0.47000000000E+01 0.  1.
         -5    1    3    3    0  501 -0.31942218611E+02 -0.36728461952E+02 -0.71019014134E+02  0.86226884530E+02  0.47000000000E+01 0.  1.
          5    1    4    4  502    0 -0.24256216257E+02  0.10695787888E+03  0.92895374837E+02  0.14380539819E+03  0.47000000000E+01 0. -1.
         -5    1    4    4    0  502  0.88687402445E+01 -0.26688518296E+02 -0.57817624083E+01  0.29093819600E+02  0.47000000000E+01 0. -1.
<mgrwt>
<rscale>  0 0.32603532E+03</rscale>
<asrwt>0</asrwt>
<pdfrwt beam="1">  1       21 0.28556866E-01 0.32603532E+03</pdfrwt>
<pdfrwt beam="2">  1       21 0.22025818E-01 0.32603532E+03</pdfrwt>
<totfact> 0.21850225E+05</totfact>
</mgrwt>
</event>
<event>
 8    1  0.9175398E-006  0.3619931E+03  0.7546771E-02  0.1057797E+00
         21   -1    0    0  504  503  0.00000000000E+00  0.00000000000E+00  0.92976497951E+03  0.92976497951E+03  0.00000000000E+00 0.  1.
         21   -1    0    0  503  504 -0.00000000000E+00 -0.00000000000E+00 -0.35234439338E+02  0.35234439338E+02  0.00000000000E+00 0.  1.
         25    2    1    2    0    0  0.12887744893E+03  0.22637512057E+02  0.43749048789E+03  0.47343687369E+03  0.12499076997E+03 0.  0.
         25    2    1    2    0    0 -0.12887744893E+03 -0.22637512057E+02  0.45704005228E+03  0.49156254516E+03  0.12500509038E+03 0.  0.
          5    1    3    3  501    0  0.41252966495E+02  0.51628223564E+02  0.78398222510E+02  0.10264332421E+03  0.47000000000E+01 0. -1.
         -5    1    3    3    0  501  0.87624482430E+02 -0.28990711506E+02  0.35909226539E+03  0.37079354948E+03  0.47000000000E+01 0. -1.
          5    1    4    4  502    0 -0.70136974515E+02 -0.52138829225E+02  0.38107665580E+03  0.39099764744E+03  0.47000000000E+01 0.  1.
         -5    1    4    4    0  502 -0.58740474411E+02  0.29501317168E+02  0.75963396478E+02  0.10056489772E+03  0.47000000000E+01 0.  1.
<mgrwt>
<rscale>  0 0.36199308E+03</rscale>
<asrwt>0</asrwt>
<pdfrwt beam="1">  1       21 0.14304075E+00 0.36199308E+03</pdfrwt>
<pdfrwt beam="2">  1       21 0.54206837E-02 0.36199308E+03</pdfrwt>
<totfact> 0.74359261E+04</totfact>
</mgrwt>
</event>
<event>
 8    1  0.9175398E-006  0.2949391E+03  0.7546771E-02  0.1087798E+00
         21   -1    0    0  504  503  0.00000000000E+00  0.00000000000E+00  0.87262395322E+02  0.87262395322E+02  0.00000000000E+00 0. -1.
         21   -1    0    0  503  504 -0.00000000000E+00 -0.00000000000E+00 -0.24921693679E+03  0.24921693679E+03  0.00000000000E+00 0. -1.
         25    2    1    2    0    0  0.81896761443E+01 -0.77824661733E+02 -0.80927383942E+02  0.16821006691E+03  0.12498654475E+03 0.  0.
         25    2    1    2    0    0 -0.81896761443E+01  0.77824661733E+02 -0.81027157528E+02  0.16826926521E+03  0.12500158634E+03 0.  0.
          5    1    3    3  501    0  0.30450920231E+02 -0.10572990766E+03 -0.70363641585E+02  0.13068742852E+03  0.47000000000E+01 0.  1.
         -5    1    3    3    0  501 -0.22261244087E+02  0.27905245928E+02 -0.10563742357E+02  0.37522638383E+02  0.47000000000E+01 0.  1.
          5    1    4    4  502    0  0.54767310576E+01 -0.19981788577E+02 -0.64652965489E+02  0.68054113794E+02  0.47000000000E+01 0.  1.
         -5    1    4    4    0  502 -0.13666407202E+02  0.97806450310E+02 -0.16374192040E+02  0.10021515141E+03  0.47000000000E+01 0.  1.
<mgrwt>
<rscale>  0 0.29493909E+03</rscale>
<asrwt>0</asrwt>
<pdfrwt beam="1">  1       21 0.13424984E-01 0.29493909E+03</pdfrwt>
<pdfrwt beam="2">  1       21 0.38341067E-01 0.29493909E+03</pdfrwt>
<totfact> 0.30730378E+05</totfact>
</mgrwt>
</event>
<event>
 8    1  0.9175398E-006  0.3381238E+03  0.7546771E-02  0.1067598E+00
         21   -1    0    0  504  503  0.00000000000E+00  0.00000000000E+00  0.20200524454E+02  0.20200524454E+02  0.00000000000E+00 0. -1.
         21   -1    0    0  503  504 -0.00000000000E+00 -0.00000000000E+00 -0.14149101533E+04  0.14149101533E+04  0.00000000000E+00 0. -1.
         25    2    1    2    0    0 -0.40654406741E+02  0.33640306792E+02 -0.26921733432E+03  0.30146973482E+03  0.12498630678E+03 0.  0.
         25    2    1    2    0    0  0.40654406741E+02 -0.33640306792E+02 -0.11254922945E+04  0.11336409430E+04  0.12499772574E+03 0.  0.
          5    1    3    3  501    0 -0.25984675438E+02 -0.29768243930E+02 -0.21352188727E+02  0.45159247865E+02  0.47000000000E+01 0.  1.
         -5    1    3    3    0  501 -0.14669731303E+02  0.63408550721E+02 -0.24786514559E+03  0.25631048695E+03  0.47000000000E+01 0.  1.
          5    1    4    4  502    0 -0.26882804657E+02  0.23004736724E+02 -0.57588536066E+03  0.57699041736E+03  0.47000000000E+01 0. -1.
         -5    1    4    4    0  502  0.67537211398E+02 -0.56645043515E+02 -0.54960693388E+03  0.55665052560E+03  0.47000000000E+01 0. -1.
<mgrwt>
<rscale>  0 0.33812381E+03</rscale>
<asrwt>0</asrwt>
<pdfrwt beam="1">  1       21 0.31077714E-02 0.33812381E+03</pdfrwt>
<pdfrwt beam="2">  1       21 0.21767860E+00 0.33812381E+03</pdfrwt>
<totfact> 0.57515126E+04</totfact>
</mgrwt>
</event>
<event>
 8    1  0.9175398E-006  0.4864480E+03  0.7546771E-02  0.1017378E+00
         21   -1    0    0  504  503  0.00000000000E+00  0.00000000000E+00  0.87917497499E+02  0.87917497499E+02  0.00000000000E+00 0.  1.
         21   -1    0    0  503  504 -0.00000000000E+00 -0.00000000000E+00 -0.67287992915E+03  0.67287992915E+03  0.00000000000E+00 0.  1.
         25    2    1    2    0    0 -0.83282506796E+02  0.13521772401E+03 -0.50412412181E+03  0.54312882796E+03  0.12501193843E+03 0.  0.
         25    2    1    2    0    0  0.83282506796E+02 -0.13521772401E+03 -0.80838309846E+02  0.21766859869E+03  0.12499991077E+03 0.  0.
          5    1    3    3  501    0 -0.14043222290E+02  0.33217417914E+02 -0.31647056631E+03  0.31855347791E+03  0.47000000000E+01 0. -1.
         -5    1    3    3    0  501 -0.69239284505E+02  0.10200030610E+03 -0.18765355550E+03  0.22457535006E+03  0.47000000000E+01 0. -1.
          5    1    4    4  502    0 -0.20352966062E+01 -0.24521200127E+02  0.30105952618E+02  0.39164908669E+02  0.47000000000E+01 0.  1.
         -5    1    4    4    0  502  0.85317803402E+02 -0.11069652388E+03 -0.11094426246E+03  0.17850369002E+03  0.47000000000E+01 0.  1.
<mgrwt>
<rscale>  0 0.48644802E+03</rscale>
<asrwt>0</asrwt>
<pdfrwt beam="1">  1       21 0.13525769E-01 0.48644802E+03</pdfrwt>
<pdfrwt beam="2">  1       21 0.10351999E+00 0.48644802E+03</pdfrwt>
<totfact> 0.32243832E+04</totfact>
</mgrwt>
</event>
<event>
 8    1  0.9175398E-006  0.2635332E+03  0.7546771E-02  0.1105039E+00
         21   -1    0    0  504  503  0.00000000000E+00  0.00000000000E+00  0.29349511921E+03  0.29349511921E+03  0.00000000000E+00 0.  1.
         21   -1    0    0  503  504 -0.00000000000E+00 -0.00000000000E+00 -0.59157501430E+02  0.59157501430E+02  0.00000000000E+00 0.  1.
         25    2    1    2    0    0 -0.38095422344E+02 -0.16405502527E+02  0.12268144982E+03  0.17998791012E+03  0.12499803175E+03 0.  0.
         25    2    1    2    0    0  0.38095422344E+02  0.16405502527E+02  0.11165616796E+03  0.17266471052E+03  0.12500240277E+03 0.  0.
          5    1    3    3  501    0 -0.21782697109E+02 -0.24162025795E+02 -0.18405677790E+02  0.37671585562E+02  0.47000000000E+01 0.  1.
         -5    1    3    3    0  501 -0.16312725236E+02  0.77565232685E+01  0.14108712761E+03  0.14231632456E+03  0.47000000000E+01 0.  1.
          5    1    4    4  502    0  0.65272186946E+02  0.45613052017E+02  0.10512857526E+03  0.13196634510E+03  0.47000000000E+01 0. -1.
         -5    1    4    4    0  502 -0.27176764601E+02 -0.29207549490E+02  0.65275926982E+01  0.40698365420E+02  0.47000000000E+01 0. -1.
<mgrwt>
<rscale>  0 0.26353321E+03</rscale>
<asrwt>0</asrwt>
<pdfrwt beam="1">  1       21 0.45153095E-01 0.26353321E+03</pdfrwt>
<pdfrwt beam="2">  1       21 0.91011542E-02 0.26353321E+03</pdfrwt>
<totfact> 0.44409455E+05</totfact>
</mgrwt>
</event>
<event>
 8    1  0.9175398E-006  0.3861317E+03  0.7546771E-02  0.1048690E+00
         21   -1    0    0  504  503  0.00000000000E+00  0.00000000000E+00  0.13937793395E+03  0.13937793395E+03  0.00000000000E+00 0.  1.
         21   -1    0    0  503  504 -0.00000000000E+00 -0.00000000000E+00 -0.26743416518E+03  0.26743416518E+03  0.00000000000E+00 0.  1.
         25    2    1    2    0    0 -0.14573097649E+03  0.26941759979E+01 -0.85232463638E+02  0.21008183387E+03  0.12500011189E+03 0.  0.
         25    2    1    2    0    0  0.14573097649E+03 -0.26941759979E+01 -0.42823767595E+02  0.19673026525E+03  0.12499658436E+03 0.  0.
          5    1    3    3  501    0 -0.18939780501E+02 -0.50330663344E+02 -0.17163750341E+02  0.56644287301E+02  0.47000000000E+01 0.  1.
         -5    1    3    3    0  501 -0.12679119599E+03  0.53024839342E+02 -0.68068713297E+02  0.15343754657E+03  0.47000000000E+01 0.  1.
          5    1    4    4  502    0  0.40423318594E+02  0.38920975867E+02  0.28206505761E+02  0.62980822603E+02  0.47000000000E+01 0.  1.
         -5    1    4    4    0  502  0.10530765789E+03 -0.41615151865E+02 -0.71030273356E+02  0.13374944265E+03  0.47000000000E+01 0.  1.
<mgrwt>
<rscale>  0 0.38613169E+03</rscale>
<asrwt>0</asrwt>
<pdfrwt beam="1">  1       21 0.21442759E-01 0.38613169E+03</pdfrwt>
<pdfrwt beam="2">  1       21 0.41143717E-01 0.38613169E+03</pdfrwt>
<totfact> 0.10906071E+05</totfact>
</mgrwt>
</event>
<event>
 8    1  0.9175398E-006  0.3090086E+03  0.7546771E-02  0.1080822E+00
         21   -1    0    0  504  503  0.00000000000E+00  0.00000000000E+00  0.40020254844E+03  0.40020254844E+03  0.00000000000E+00 0. -1.
         21   -1    0    0  503  504 -0.00000000000E+00 -0.00000000000E+00 -0.59648750405E+02  0.59648750405E+02  0.00000000000E+00 0. -1.
         25    2    1    2    0    0 -0.55423951439E+02  0.34227839249E+02  0.26444531258E+03  0.29966717724E+03  0.12500293757E+03 0.  0.
         25    2    1    2    0    0  0.55423951439E+02 -0.34227839249E+02  0.76108485464E+02  0.16018412161E+03  0.12499236730E+03 0.  0.
          5    1    3    3  501    0 -0.76975213039E+02 -0.21034957464E+02  0.12947332465E+03  0.15216137701E+03  0.47000000000E+01 0.  1.
         -5    1    3    3    0  501  0.21551261600E+02  0.55262796713E+02  0.13497198793E+03  0.14750580023E+03  0.47000000000E+01 0.  1.
          5    1    4    4  502    0  0.34699447360E+01 -0.14515252938E+02 -0.33628407504E+02  0.37090333991E+02  0.47000000000E+01 0.  1.
         -5    1    4    4    0  502  0.51954006703E+02 -0.19712586310E+02  0.10973689297E+03  0.12309378762E+03  0.47000000000E+01 0.  1.
<mgrwt>
<rscale>  0 0.30900862E+03</rscale>
<asrwt>0</asrwt>
<pdfrwt beam="1">  1       21 0.61569621E-01 0.30900862E+03</pdfrwt>
<pdfrwt beam="2">  1       21 0.91767311E-02 0.30900862E+03</pdfrwt>
<totfact> 0.22443696E+05</totfact>
</mgrwt>
</event>
<event>
 8    1  0.9175398E-006  0.2717804E+03  0.7546771E-02  0.1100265E+00
         21   -1    0    0  504  503  0.00000000000E+00  0.00000000000E+00  0.75977929545E+03  0.75977929545E+03  0.00000000000E+00 0. -1.
         21   -1    0    0  503  504 -0.00000000000E+00 -0.00000000000E+00 -0.24304610303E+02  0.24304610303E+02  0.00000000000E+00 0. -1.
         25    2    1    2    0    0 -0.31886237341E+02  0.42175887003E+02  0.38738052496E+03  0.41046791351E+03  0.12499879732E+03 0.  0.
         25    2    1    2    0    0  0.31886237341E+02 -0.42175887003E+02  0.34809416019E+03  0.37361599224E+03  0.12499531081E+03 0.  0.
          5    1    3    3  501    0 -0.18725248914E+02  0.72505996205E+02  0.12367270161E+03  0.14465400636E+03  0.47000000000E+01 0. -1.
         -5    1    3    3    0  501 -0.13160988426E+02 -0.30330109202E+02  0.26370782335E+03  0.26581390715E+03  0.47000000000E+01 0. -1.
          5    1    4    4  502    0  0.10008263028E+02 -0.48004148421E+02  0.34698649044E+03  0.35046580167E+03  0.47000000000E+01 0. -1.
         -5    1    4    4    0  502  0.21877974312E+02  0.58282614176E+01  0.11076697512E+01  0.23150190570E+02  0.47000000000E+01 0. -1.
<mgrwt>
<rscale>  0 0.27178035E+03</rscale>
<asrwt>0</asrwt>
<pdfrwt beam="1">  1       21 0.11688910E+00 0.27178035E+03</pdfrwt>
<pdfrwt beam="2">  1       21 0.37391714E-02 0.27178035E+03</pdfrwt>
<totfact> 0.24111909E+05</totfact>
</mgrwt>
</event>
<event>
 8    1  0.9175398E-006  0.3824113E+03  0.7546771E-02  0.1050046E+00
         21   -1    0    0  504  503  0.00000000000E+00  0.00000000000E+00  0.11333872665E+03  0.11333872665E+03  0.00000000000E+00 0. -1.
         21   -1    0    0  503  504 -0.00000000000E+00 -0.00000000000E+00 -0.32256929601E+03  0.32256929601E+03  0.00000000000E+00 0. -1.
         25    2    1    2    0    0  0.10254741397E+03  0.82282362771E+02 -0.35764549929E+02  0.18490558942E+03  0.12499845853E+03 0.  0.
         25    2    1    2    0    0 -0.10254741397E+03 -0.82282362771E+02 -0.17346601943E+03  0.25100243323E+03  0.12500160902E+03 0.  0.
          5    1    3    3  501    0  0.57297127263E+02 -0.19886836834E+02 -0.40305821312E+02  0.72973257454E+02  0.47000000000E+01 0. -1.
         -5    1    3    3    0  501  0.45250286703E+02  0.10216919960E+03  0.45412713826E+01  0.11193233197E+03  0.47000000000E+01 0. -1.
          5    1    4    4  502    0 -0.59632098636E+02 -0.10609063030E+03 -0.15767166213E+03  0.19923265812E+03  0.47000000000E+01 0. -1.
         -5    1    4    4    0  502 -0.42915315330E+02  0.23808267525E+02 -0.15794357303E+02  0.51769775110E+02  0.47000000000E+01 0. -1.
<mgrwt>
<rscale>  0 0.38241126E+03</rscale>
<asrwt>0</asrwt>
<pdfrwt beam="1">  1       21 0.17436727E-01 0.38241126E+03</pdfrwt>
<pdfrwt beam="2">  1       21 0.49626046E-01 0.38241126E+03</pdfrwt>
<totfact> 0.10909251E+05</totfact>
</mgrwt>
</event>
<event>
 8    1  0.9175398E-006  0.3579469E+03  0.7546771E-02  0.1059400E+00
         21   -1    0    0  504  503  0.00000000000E+00  0.00000000000E+00  0.77707038785E+02  0.77707038785E+02  0.00000000000E+00 0.  1.
         21   -1    0    0  503  504 -0.00000000000E+00 -0.00000000000E+00 -0.41220838642E+03  0.41220838642E+03  0.00000000000E+00 0.  1.
         25    2    1    2    0    0 -0.62109690744E+02 -0.96929621153E+02 -0.24410435086E+03  0.29743080769E+03  0.12500074445E+03 0.  0.
         25    2    1    2    0    0  0.62109690744E+02  0.96929621153E+02 -0.90396996782E+02  0.19248461752E+03  0.12500298322E+03 0.  0.
          5    1    3    3  501    0  0.29705255736E+02  0.74019920758E+00 -0.19588689329E+02  0.35899259920E+02  0.47000000000E+01 0. -1.
         -5    1    3    3    0  501 -0.91814946480E+02 -0.97669820361E+02 -0.22451566153E+03  0.26153154777E+03  0.47000000000E+01 0. -1.
          5    1    4    4  502    0 -0.27707479442E+02 -0.11274284310E+01 -0.42710717197E+02  0.51139719156E+02  0.47000000000E+01 0.  1.
         -5    1    4    4    0  502  0.89817170185E+02  0.98057049584E+02 -0.47686279584E+02  0.14134489836E+03  0.47000000000E+01 0.  1.
<mgrwt>
<rscale>  0 0.35794688E+03</rscale>
<asrwt>0</asrwt>
<pdfrwt beam="1">  1       21 0.11954929E-01 0.35794688E+03</pdfrwt>
<pdfrwt beam="2">  1       21 0.63416676E-01 0.35794688E+03</pdfrwt>
<totfact> 0.12950476E+05</totfact>
</mgrwt>
</event>
<event>
 8    1  0.9175398E-006  0.2581938E+03  0.7546771E-02  0.1108233E+00
         21   -1    0    0  504  503  0.00000000000E+00  0.00000000000E+00  0.66264386795E+03  0.66264386795E+03  0.00000000000E+00 0.  1.
         21   -1    0    0  503  504 -0.00000000000E+00 -0.00000000000E+00 -0.25150781023E+02  0.25150781023E+02  0.00000000000E+00 0.  1.
         25    2    1    2    0    0  0.31102108491E+02 -0.85605673294E+01  0.31734034687E+03  0.34259474522E+03  0.12500255691E+03 0.  0.
         25    2    1    2    0    0 -0.31102108491E+02  0.85605673294E+01  0.32015274005E+03  0.34519990375E+03  0.12499828847E+03 0.  0.
          5    1    3    3  501    0  0.16970269139E+02 -0.66735084987E+02  0.17325490266E+03  0.18649641525E+03  0.47000000000E+01 0.  1.
         -5    1    3    3    0  501  0.14131839352E+02  0.58174517657E+02  0.14408544421E+03  0.15609832998E+03  0.47000000000E+01 0.  1.
          5    1    4    4  502    0  0.44069103646E+02 -0.10208051357E+02  0.71728811171E+02  0.84931752371E+02  0.47000000000E+01 0.  1.
         -5    1    4    4    0  502 -0.75171212138E+02  0.18768618687E+02  0.24842392888E+03  0.26026815138E+03  0.47000000000E+01 0.  1.
<mgrwt>
<rscale>  0 0.25819381E+03</rscale>
<asrwt>0</asrwt>
<pdfrwt beam="1">  1       21 0.10194520E+00 0.25819381E+03</pdfrwt>
<pdfrwt beam="2">  1       21 0.38693514E-02 0.25819381E+03</pdfrwt>
<totfact> 0.31895221E+05</totfact>
</mgrwt>
</event>
<event>
 8    1  0.9175398E-006  0.3487601E+03  0.7546771E-02  0.1063125E+00
         21   -1    0    0  504  503  0.00000000000E+00  0.00000000000E+00  0.28486217384E+03  0.28486217384E+03  0.00000000000E+00 0. -1.
         21   -1    0    0  503  504 -0.00000000000E+00 -0.00000000000E+00 -0.10674776351E+03  0.10674776351E+03  0.00000000000E+00 0. -1.
         25    2    1    2    0    0  0.98932744384E+02  0.73597273824E+01  0.16799153928E+03  0.23170836591E+03  0.12500302422E+03 0.  0.
         25    2    1    2    0    0 -0.98932744384E+02 -0.73597273824E+01  0.10122871051E+02  0.15990157144E+03  0.12499674609E+03 0.  0.
          5    1    3    3  501    0  0.43251998378E+02 -0.52458514898E+02  0.37832828161E+02  0.77948983545E+02  0.47000000000E+01 0.  1.
         -5    1    3    3    0  501  0.55680746006E+02  0.59818242280E+02  0.13015871112E+03  0.15375938236E+03  0.47000000000E+01 0.  1.
          5    1    4    4  502    0 -0.37737384346E+02 -0.46159338698E+02  0.49199500866E+02  0.77443370354E+02  0.47000000000E+01 0. -1.
         -5    1    4    4    0  502 -0.61195360039E+02  0.38799611316E+02 -0.39076629815E+02  0.82458201086E+02  0.47000000000E+01 0. -1.
<mgrwt>
<rscale>  0 0.34876009E+03</rscale>
<asrwt>0</asrwt>
<pdfrwt beam="1">  1       21 0.43824949E-01 0.34876009E+03</pdfrwt>
<pdfrwt beam="2">  1       21 0.16422733E-01 0.34876009E+03</pdfrwt>
<totfact> 0.15943298E+05</totfact>
</mgrwt>
</event>
<event>
 8    1  0.9175398E-006  0.3557203E+03  0.7546771E-02  0.1060291E+00
         21   -1    0    0  504  503  0.00000000000E+00  0.00000000000E+00  0.44911234134E+03  0.44911234134E+03  0.00000000000E+00 0.  1.
         21   -1    0    0  503  504 -0.00000000000E+00 -0.00000000000E+00 -0.70437240015E+02  0.70437240015E+02  0.00000000000E+00 0.  1.
         25    2    1    2    0    0  0.82270937671E+02  0.96140042277E+02  0.18879697207E+03  0.25937626267E+03  0.12498133484E+03 0.  0.
         25    2    1    2    0    0 -0.82270937671E+02 -0.96140042277E+02  0.18987812925E+03  0.26017331869E+03  0.12500014750E+03 0.  0.
          5    1    3    3  501    0  0.85107612427E+02  0.16322648659E+02  0.52784106099E+02  0.10157748968E+03  0.47000000000E+01 0.  1.
         -5    1    3    3    0  501 -0.28366747557E+01  0.79817393617E+02  0.13601286597E+03  0.15779877299E+03  0.47000000000E+01 0.  1.
          5    1    4    4  502    0 -0.38232380138E+01 -0.93136613646E+02  0.69440946955E+02  0.11633220132E+03  0.47000000000E+01 0.  1.
         -5    1    4    4    0  502 -0.78447699657E+02 -0.30034286306E+01  0.12043718230E+03  0.14384111737E+03  0.47000000000E+01 0.  1.
<mgrwt>
<rscale>  0 0.35572030E+03</rscale>
<asrwt>0</asrwt>
<pdfrwt beam="1">  1       21 0.69094205E-01 0.35572030E+03</pdfrwt>
<pdfrwt beam="2">  1       21 0.10836499E-01 0.35572030E+03</pdfrwt>
<totfact> 0.12793827E+05</totfact>
</mgrwt>
</event>
<event>
 8    1  0.9175398E-006  0.5429633E+03  0.7546771E-02  0.1003136E+00
         21   -1    0    0  504  503  0.00000000000E+00  0.00000000000E+00  0.41798672007E+03  0.41798672007E+03  0.00000000000E+00 0.  1.
         21   -1    0    0  503  504 -0.00000000000E+00 -0.00000000000E+00 -0.17632687812E+03  0.17632687812E+03  0.00000000000E+00 0.  1.
         25    2    1    2    0    0  0.94480714564E+02  0.52370043759E+02 -0.11497011538E+03  0.20127892717E+03  0.12500340870E+03 0.  0.
         25    2    1    2    0    0 -0.94480714564E+02 -0.52370043759E+02  0.35662995733E+03  0.39303467102E+03  0.12498839647E+03 0.  0.
          5    1    3    3  501    0  0.69476342862E+02 -0.17193330650E+02 -0.10409655121E+03  0.12641501022E+03  0.47000000000E+01 0.  1.
         -5    1    3    3    0  501  0.25004371702E+02  0.69563374409E+02 -0.10873564174E+02  0.74863916951E+02  0.47000000000E+01 0.  1.
          5    1    4    4  502    0  0.30298438634E+02 -0.18406625084E+02  0.73921713909E+02  0.82117653509E+02  0.47000000000E+01 0.  1.
         -5    1    4    4    0  502 -0.12477915320E+03 -0.33963418674E+02  0.28270824342E+03  0.31091701751E+03  0.47000000000E+01 0.  1.
<mgrwt>
<rscale>  0 0.54296333E+03</rscale>
<asrwt>0</asrwt>
<pdfrwt beam="1">  1       21 0.64305649E-01 0.54296333E+03</pdfrwt>
<pdfrwt beam="2">  1       21 0.27127212E-01 0.54296333E+03</pdfrwt>
<totfact> 0.25724224E+04</totfact>
</mgrwt>
</event>
<event>
 8    1  0.9175398E-006  0.6745970E+03  0.7546771E-02  0.9761689E-01
         21   -1    0    0  504  503  0.00000000000E+00  0.00000000000E+00  0.34002851355E+03  0.34002851355E+03  0.00000000000E+00 0. -1.
         21   -1    0    0  503  504 -0.00000000000E+00 -0.00000000000E+00 -0.33459043174E+03  0.33459043174E+03  0.00000000000E+00 0. -1.
         25    2    1    2    0    0  0.86936574166E+02  0.29780937745E+03  0.46193923360E+02  0.33767038545E+03  0.12505605714E+03 0.  0.
         25    2    1    2    0    0 -0.86936574166E+02 -0.29780937745E+03 -0.40755841546E+02  0.33694855984E+03  0.12499960051E+03 0.  0.
          5    1    3    3  501    0  0.10672055984E+03  0.14375240449E+03  0.23862522638E+02  0.18068077284E+03  0.47000000000E+01 0.  1.
         -5    1    3    3    0  501 -0.19783985671E+02  0.15405697297E+03  0.22331400721E+02  0.15698961261E+03  0.47000000000E+01 0.  1.
          5    1    4    4  502    0 -0.93135726844E+02 -0.10969669801E+03 -0.36917939448E+02  0.14863597620E+03  0.47000000000E+01 0.  1.
         -5    1    4    4    0  502  0.61991526775E+01 -0.18811267945E+03 -0.38379020987E+01  0.18831258363E+03  0.47000000000E+01 0.  1.
<mgrwt>
<rscale>  0 0.67459703E+03</rscale>
<asrwt>0</asrwt>
<pdfrwt beam="1">  1       21 0.52312079E-01 0.67459703E+03</pdfrwt>
<pdfrwt beam="2">  1       21 0.51475451E-01 0.67459703E+03</pdfrwt>
<totfact> 0.10553996E+04</totfact>
</mgrwt>
</event>
<event>
 8    1  0.9175398E-006  0.2557565E+03  0.7546771E-02  0.1109720E+00
         21   -1    0    0  504  503  0.00000000000E+00  0.00000000000E+00  0.96036994054E+02  0.96036994054E+02  0.00000000000E+00 0.  1.
         21   -1    0    0  503  504 -0.00000000000E+00 -0.00000000000E+00 -0.17027647772E+03  0.17027647772E+03  0.00000000000E+00 0.  1.
         25    2    1    2    0    0 -0.65054318096E+01  0.23490048821E+02 -0.25139844910E+02  0.12980835950E+03  0.12499638138E+03 0.  0.
         25    2    1    2    0    0  0.65054318096E+01 -0.23490048821E+02 -0.49099638752E+02  0.13650511226E+03  0.12501507154E+03 0.  0.
          5    1    3    3  501    0  0.41505829533E+02  0.16910713603E+02  0.31602510798E+02  0.55041028411E+02  0.47000000000E+01 0. -1.
         -5    1    3    3    0  501 -0.48011261342E+02  0.65793352178E+01 -0.56742355708E+02  0.74767331093E+02  0.47000000000E+01 0. -1.
          5    1    4    4  502    0 -0.25401322304E+02 -0.28379748650E+02 -0.81776564293E+02  0.90333458783E+02  0.47000000000E+01 0. -1.
         -5    1    4    4    0  502  0.31906754113E+02  0.48896998293E+01  0.32676925540E+02  0.46171653482E+02  0.47000000000E+01 0. -1.
<mgrwt>
<rscale>  0 0.25575646E+03</rscale>
<asrwt>0</asrwt>
<pdfrwt beam="1">  1       21 0.14774922E-01 0.25575646E+03</pdfrwt>
<pdfrwt beam="2">  1       21 0.26196381E-01 0.25575646E+03</pdfrwt>
<totfact> 0.55204929E+05</totfact>
</mgrwt>
</event>
<event>
 8    1  0.9175398E-006  0.2762286E+03  0.7546771E-02  0.1097767E+00
         21   -1    0    0  504  503  0.00000000000E+00  0.00000000000E+00  0.44269176295E+03  0.44269176295E+03  0.00000000000E+00 0. -1.
         21   -1    0    0  503  504 -0.00000000000E+00 -0.00000000000E+00 -0.43089926969E+02  0.43089926969E+02  0.00000000000E+00 0. -1.
         25    2    1    2    0    0 -0.34430716769E+02 -0.23407350881E+02  0.27270178100E+03  0.30286154545E+03  0.12500190406E+03 0.  0.
         25    2    1    2    0    0  0.34430716769E+02  0.23407350881E+02  0.12690005498E+03  0.18292014447E+03  0.12499110755E+03 0.  0.
          5    1    3    3  501    0 -0.21978315555E+02  0.51225776482E+02  0.11478560358E+03  0.12769084274E+03  0.47000000000E+01 0. -1.
         -5    1    3    3    0  501 -0.12452401214E+02 -0.74633127363E+02  0.15791617742E+03  0.17517070271E+03  0.47000000000E+01 0. -1.
          5    1    4    4  502    0  0.45148466101E+00  0.72029399207E+02  0.72167810566E+02  0.10207213660E+03  0.47000000000E+01 0.  1.
         -5    1    4    4    0  502  0.33979232107E+02 -0.48622048325E+02  0.54732244417E+02  0.80848007872E+02  0.47000000000E+01 0.  1.
<mgrwt>
<rscale>  0 0.27622857E+03</rscale>
<asrwt>0</asrwt>
<pdfrwt beam="1">  1       21 0.68106422E-01 0.27622857E+03</pdfrwt>
<pdfrwt beam="2">  1       21 0.66292199E-02 0.27622857E+03</pdfrwt>
<totfact> 0.32032685E+05</totfact>
</mgrwt>
</event>
<event>
 8    1  0.9175398E-006  0.2545164E+03  0.7546771E-02  0.1110483E+00
         21   -1    0    0  504  503  0.00000000000E+00  0.00000000000E+00  0.55742455411E+03  0.55742455411E+03  0.00000000000E+00 0.  1.
         21   -1    0    0  503  504 -0.00000000000E+00 -0.00000000000E+00 -0.29052634215E+02  0.29052634215E+02  0.00000000000E+00 0.  1.
         25    2    1    2    0    0  0.15281189351E+02 -0.12764550719E+02  0.23377734815E+03  0.26584221533E+03  0.12499514567E+03 0.  0.
         25    2    1    2    0    0 -0.15281189351E+02  0.12764550719E+02  0.29459457175E+03  0.32063497299E+03  0.12499750278E+03 0.  0.
          5    1    3    3  501    0  0.23963413510E+02 -0.65975287073E+02  0.15555655793E+03  0.17072468013E+03  0.47000000000E+01 0.  1.
         -5    1    3    3    0  501 -0.86822241588E+01  0.53210736354E+02  0.78220790216E+02  0.95117535196E+02  0.47000000000E+01 0.  1.
          5    1    4    4  502    0  0.46009148851E+02  0.38031855025E+01  0.21348421330E+03  0.21846946086E+03  0.47000000000E+01 0. -1.
         -5    1    4    4    0  502 -0.61290338201E+02  0.89613652167E+01  0.81110358444E+02  0.10216551214E+03  0.47000000000E+01 0. -1.
<mgrwt>
<rscale>  0 0.25451642E+03</rscale>
<asrwt>0</asrwt>
<pdfrwt beam="1">  1       21 0.85757615E-01 0.25451642E+03</pdfrwt>
<pdfrwt beam="2">  1       21 0.44696365E-02 0.25451642E+03</pdfrwt>
<totfact> 0.37586136E+05</totfact>
</mgrwt>
</event>
<event>
 8    1  0.9175398E-006  0.2733469E+03  0.7546771E-02  0.1099379E+00
         21   -1    0    0  504  503  0.00000000000E+00  0.00000000000E+00  0.17687243167E+02  0.17687243167E+02  0.00000000000E+00 0. -1.
         21   -1    0    0  503  504 -0.00000000000E+00 -0.00000000000E+00 -0.10561075764E+04  0.10561075764E+04  0.00000000000E+00 0. -1.
         25    2    1    2    0    0 -0.48504421747E+02  0.21000501820E+02 -0.45578286985E+03  0.47555953576E+03  0.12500059041E+03 0.  0.
         25    2    1    2    0    0  0.48504421747E+02 -0.21000501820E+02 -0.58263746343E+03  0.59823528385E+03  0.12500136417E+03 0.  0.
          5    1    3    3  501    0 -0.63317395772E+02  0.54671480336E+02 -0.39926281716E+03  0.40795949619E+03  0.47000000000E+01 0. -1.
         -5    1    3    3    0  501  0.14812974025E+02 -0.33670978517E+02 -0.56520052691E+02  0.67600039570E+02  0.47000000000E+01 0. -1.
          5    1    4    4  502    0  0.11491928796E+02  0.37904304166E+02 -0.67526082349E+02  0.78426159534E+02  0.47000000000E+01 0.  1.
         -5    1    4    4    0  502  0.37012492952E+02 -0.58904805986E+02 -0.51511138108E+03  0.51980912432E+03  0.47000000000E+01 0.  1.
<mgrwt>
<rscale>  0 0.27334690E+03</rscale>
<asrwt>0</asrwt>
<pdfrwt beam="1">  1       21 0.27211143E-02 0.27334690E+03</pdfrwt>
<pdfrwt beam="2">  1       21 0.16247809E+00 0.27334690E+03</pdfrwt>
<totfact> 0.17384121E+05</totfact>
</mgrwt>
</event>
<event>
 8    1  0.9175398E-006  0.4288007E+03  0.7546771E-02  0.1034239E+00
         21   -1    0    0  504  503  0.00000000000E+00  0.00000000000E+00  0.33795099245E+02  0.33795099245E+02  0.00000000000E+00 0. -1.
         21   -1    0    0  503  504 -0.00000000000E+00 -0.00000000000E+00 -0.13601828910E+04  0.13601828910E+04  0.00000000000E+00 0. -1.
         25    2    1    2    0    0  0.44826376862E+02  0.11975512698E+03 -0.27868304276E+03  0.33112173524E+03  0.12500668273E+03 0.  0.
         25    2    1    2    0    0 -0.44826376862E+02 -0.11975512698E+03 -0.10477047490E+04  0.10628562550E+04  0.12500993255E+03 0.  0.
          5    1    3    3  501    0  0.20422109712E+02  0.54199158747E+02 -0.24778267367E+03  0.25450531379E+03  0.47000000000E+01 0. -1.
         -5    1    3    3    0  501  0.24404267149E+02  0.65555968234E+02 -0.30900369084E+02  0.76616421449E+02  0.47000000000E+01 0. -1.
          5    1    4    4  502    0  0.26487214894E+02 -0.98685596539E+02 -0.68315210844E+03  0.69076719145E+03  0.47000000000E+01 0.  1.
         -5    1    4    4    0  502 -0.71313591756E+02 -0.21069530441E+02 -0.36455264060E+03  0.37208906360E+03  0.47000000000E+01 0.  1.
<mgrwt>
<rscale>  0 0.42880073E+03</rscale>
<asrwt>0</asrwt>
<pdfrwt beam="1">  1       21 0.51992466E-02 0.42880073E+03</pdfrwt>
<pdfrwt beam="2">  1       21 0.20925888E+00 0.42880073E+03</pdfrwt>
<totfact> 0.26263306E+04</totfact>
</mgrwt>
</event>
<event>
 8    1  0.9175398E-006  0.3249774E+03  0.7546771E-02  0.1073381E+00
         21   -1    0    0  504  503  0.00000000000E+00  0.00000000000E+00  0.25529287116E+03  0.25529287116E+03  0.00000000000E+00 0. -1.
         21   -1    0    0  503  504 -0.00000000000E+00 -0.00000000000E+00 -0.10342072699E+03  0.10342072699E+03  0.00000000000E+00 0. -1.
         25    2    1    2    0    0  0.14569736516E+02  0.62807528215E+02 -0.13869882821E+02  0.14133392268E+03  0.12500336486E+03 0.  0.
         25    2    1    2    0    0 -0.14569736516E+02 -0.62807528215E+02  0.16574202699E+03  0.21737967548E+03  0.12500576378E+03 0.  0.
          5    1    3    3  501    0  0.11483893872E+02  0.53195218329E+02  0.51469691857E+02  0.75052183522E+02  0.47000000000E+01 0.  1.
         -5    1    3    3    0  501  0.30858426432E+01  0.96123098861E+01 -0.65339574678E+02  0.66281739153E+02  0.47000000000E+01 0.  1.
          5    1    4    4  502    0 -0.57340556385E+02 -0.23409024118E+02  0.28673792457E+02  0.68411974029E+02  0.47000000000E+01 0. -1.
         -5    1    4    4    0  502  0.42770819870E+02 -0.39398504097E+02  0.13706823453E+03  0.14896770145E+03  0.47000000000E+01 0. -1.
<mgrwt>
<rscale>  0 0.32497738E+03</rscale>
<asrwt>0</asrwt>
<pdfrwt beam="1">  1       21 0.39275826E-01 0.32497738E+03</pdfrwt>
<pdfrwt beam="2">  1       21 0.15910881E-01 0.32497738E+03</pdfrwt>
<totfact> 0.21289524E+05</totfact>
</mgrwt>
</event>
<event>
 8    1  0.9175398E-006  0.3333901E+03  0.7546771E-02  0.1069647E+00
         21   -1    0    0  504  503  0.00000000000E+00  0.00000000000E+00  0.11740978758E+03  0.11740978758E+03  0.00000000000E+00 0. -1.
         21   -1    0    0  503  504 -0.00000000000E+00 -0.00000000000E+00 -0.23666878986E+03  0.23666878986E+03  0.00000000000E+00 0. -1.
         25    2    1    2    0    0  0.48114804328E+02 -0.71371306511E+01  0.45487233238E+02  0.14163705538E+03  0.12500397610E+03 0.  0.
         25    2    1    2    0    0 -0.48114804328E+02  0.71371306511E+01 -0.16474623552E+03  0.21244152206E+03  0.12499642055E+03 0.  0.
          5    1    3    3  501    0 -0.41926994265E+01  0.47938762049E+02  0.44222954669E+02  0.65524524836E+02  0.47000000000E+01 0. -1.
         -5    1    3    3    0  501  0.52307503754E+02 -0.55075892700E+02  0.12642785686E+01  0.76112530545E+02  0.47000000000E+01 0. -1.
          5    1    4    4  502    0 -0.12338140789E+02  0.50322981232E+02 -0.17635468077E+02  0.54933886559E+02  0.47000000000E+01 0.  1.
         -5    1    4    4    0  502 -0.35776663539E+02 -0.43185850581E+02 -0.14711076744E+03  0.15750763551E+03  0.47000000000E+01 0.  1.
<mgrwt>
<rscale>  0 0.33339006E+03</rscale>
<asrwt>0</asrwt>
<pdfrwt beam="1">  1       21 0.18063045E-01 0.33339006E+03</pdfrwt>
<pdfrwt beam="2">  1       21 0.36410582E-01 0.33339006E+03</pdfrwt>
<totfact> 0.19571120E+05</totfact>
</mgrwt>
</event>
<event>
 8    1  0.9175398E-006  0.2709848E+03  0.7546771E-02  0.1100717E+00
         21   -1    0    0  504  503  0.00000000000E+00  0.00000000000E+00  0.15158341117E+03  0.15158341117E+03  0.00000000000E+00 0.  1.
         21   -1    0    0  503  504 -0.00000000000E+00 -0.00000000000E+00 -0.12110945448E+03  0.12110945448E+03  0.00000000000E+00 0.  1.
         25    2    1    2    0    0  0.30419540675E+02 -0.23778984265E+01 -0.27456685600E+02  0.13159557912E+03  0.12503009240E+03 0.  0.
         25    2    1    2    0    0 -0.30419540675E+02  0.23778984265E+01  0.57930642291E+02  0.14109728653E+03  0.12498592758E+03 0.  0.
          5    1    3    3  501    0  0.76488317301E+02 -0.19050132457E+02 -0.11158153977E+02  0.79749386394E+02  0.47000000000E+01 0.  1.
         -5    1    3    3    0  501 -0.46068776625E+02  0.16672234031E+02 -0.16298531624E+02  0.51846192728E+02  0.47000000000E+01 0.  1.
          5    1    4    4  502    0  0.33180083051E+02 -0.29964007703E+00  0.68632163719E+02  0.76377166694E+02  0.47000000000E+01 0. -1.
         -5    1    4    4    0  502 -0.63599623726E+02  0.26775385035E+01 -0.10701521429E+02  0.64720119835E+02  0.47000000000E+01 0. -1.
<mgrwt>
<rscale>  0 0.27098475E+03</rscale>
<asrwt>0</asrwt>
<pdfrwt beam="1">  1       21 0.23320525E-01 0.27098475E+03</pdfrwt>
<pdfrwt beam="2">  1       21 0.18632224E-01 0.27098475E+03</pdfrwt>
<totfact> 0.44827573E+05</totfact>
</mgrwt>
</event>
<event>
 8    1  0.9175398E-006  0.2709825E+03  0.7546771E-02  0.1100719E+00
         21   -1    0    0  504  503  0.00000000000E+00  0.00000000000E+00  0.25223134050E+02  0.25223134050E+02  0.00000000000E+00 0.  1.
         21   -1    0    0  503  504 -0.00000000000E+00 -0.00000000000E+00 -0.72781903922E+03  0.72781903922E+03  0.00000000000E+00 0.  1.
         25    2    1    2    0    0 -0.75808024766E+01 -0.30606592286E+02 -0.46717472906E+03  0.48463600036E+03  0.12500237324E+03 0.  0.
         25    2    1    2    0    0  0.75808024766E+01  0.30606592286E+02 -0.23542117611E+03  0.26840617291E+03  0.12499804574E+03 0.  0.
          5    1    3    3  501    0 -0.62503524980E+02 -0.28309534488E+02 -0.32355080966E+03  0.33077989179E+03  0.47000000000E+01 0. -1.
         -5    1    3    3    0  501  0.54922722503E+02 -0.22970577980E+01 -0.14362391940E+03  0.15385610857E+03  0.47000000000E+01 0. -1.
          5    1    4    4  502    0 -0.17437782516E+02 -0.12424467263E+02 -0.21211369037E+03  0.21324340855E+03  0.47000000000E+01 0. -1.
         -5    1    4    4    0  502  0.25018584993E+02  0.43031059549E+02 -0.23307485740E+02  0.55162764366E+02  0.47000000000E+01 0. -1.
<mgrwt>
<rscale>  0 0.27098249E+03</rscale>
<asrwt>0</asrwt>
<pdfrwt beam="1">  1       21 0.38804827E-02 0.27098249E+03</pdfrwt>
<pdfrwt beam="2">  1       21 0.11197214E+00 0.27098249E+03</pdfrwt>
<totfact> 0.25184493E+05</totfact>
</mgrwt>
</event>
<event>
 8    1  0.9175398E-006  0.3590120E+03  0.7546771E-02  0.1058976E+00
         21   -1    0    0  504  503  0.00000000000E+00  0.00000000000E+00  0.19120278872E+03  0.19120278872E+03  0.00000000000E+00 0.  1.
         21   -1    0    0  503  504 -0.00000000000E+00 -0.00000000000E+00 -0.16852471845E+03  0.16852471845E+03  0.00000000000E+00 0.  1.
         25    2    1    2    0    0  0.12552212284E+03  0.21708073226E+02  0.30681934362E+02  0.18108063339E+03  0.12498708305E+03 0.  0.
         25    2    1    2    0    0 -0.12552212284E+03 -0.21708073226E+02 -0.80038640943E+01  0.17864687378E+03  0.12499439949E+03 0.  0.
          5    1    3    3  501    0  0.28566285167E+02 -0.67549808078E+01 -0.45566124769E+02  0.54406103889E+02  0.47000000000E+01 0.  1.
         -5    1    3    3    0  501  0.96955837671E+02  0.28463054033E+02  0.76248059131E+02  0.12667452950E+03  0.47000000000E+01 0.  1.
          5    1    4    4  502    0 -0.11140071071E+03 -0.10795195068E+02  0.46360430340E+02  0.12123544896E+03  0.47000000000E+01 0. -1.
         -5    1    4    4    0  502 -0.14121412129E+02 -0.10912878157E+02 -0.54364294435E+02  0.57411424817E+02  0.47000000000E+01 0. -1.
<mgrwt>
<rscale>  0 0.35901196E+03</rscale>
<asrwt>0</asrwt>
<pdfrwt beam="1">  1       21 0.29415814E-01 0.35901196E+03</pdfrwt>
<pdfrwt beam="2">  1       21 0.25926880E-01 0.35901196E+03</pdfrwt>
<totfact> 0.14957323E+05</totfact>
</mgrwt>
</event>
<event>
 8    1  0.9175398E-006  0.3315502E+03  0.7546771E-02  0.1070453E+00
         21   -1    0    0  504  503  0.00000000000E+00  0.00000000000E+00  0.72714230380E+02  0.72714230380E+02  0.00000000000E+00 0.  1.
         21   -1    0    0  503  504 -0.00000000000E+00 -0.00000000000E+00 -0.37793678794E+03  0.37793678794E+03  0.00000000000E+00 0.  1.
         25    2    1    2    0    0 -0.87651799854E+02 -0.45546634288E+02 -0.21489087947E+03  0.26751184896E+03  0.12500866107E+03 0.  0.
         25    2    1    2    0    0  0.87651799854E+02  0.45546634288E+02 -0.90331678091E+02  0.18313916936E+03  0.12499123719E+03 0.  0.
          5    1    3    3  501    0  0.59044246109E+01  0.27367516912E+02 -0.88759981136E+01  0.29744185220E+02  0.47000000000E+01 0.  1.
         -5    1    3    3    0  501 -0.93556224465E+02 -0.72914151200E+02 -0.20601488135E+03  0.23776766374E+03  0.47000000000E+01 0.  1.
          5    1    4    4  502    0 -0.77890465104E+01  0.40388068705E+01  0.25484572223E+02  0.27359360882E+02  0.47000000000E+01 0. -1.
         -5    1    4    4    0  502  0.95440846364E+02  0.41507827418E+02 -0.11581625031E+03  0.15577980848E+03  0.47000000000E+01 0. -1.
<mgrwt>
<rscale>  0 0.33155019E+03</rscale>
<asrwt>0</asrwt>
<pdfrwt beam="1">  1       21 0.11186805E-01 0.33155019E+03</pdfrwt>
<pdfrwt beam="2">  1       21 0.58144122E-01 0.33155019E+03</pdfrwt>
<totfact> 0.17750061E+05</totfact>
</mgrwt>
</event>
<event>
 8    1  0.9175398E-006  0.2618768E+03  0.7546771E-02  0.1106021E+00
         21   -1    0    0  504  503  0.00000000000E+00  0.00000000000E+00  0.25963595729E+03  0.25963595729E+03  0.00000000000E+00 0. -1.
         21   -1    0    0  503  504 -0.00000000000E+00 -0.00000000000E+00 -0.66034237653E+02  0.66034237653E+02  0.00000000000E+00 0. -1.
         25    2    1    2    0    0  0.25091257710E+02  0.12411994839E+02  0.13063034796E+03  0.18295892866E+03  0.12500421168E+03 0.  0.
         25    2    1    2    0    0 -0.25091257710E+02 -0.12411994839E+02  0.62971371674E+02  0.14271126629E+03  0.12496992856E+03 0.  0.
          5    1    3    3  501    0  0.22301923609E+01  0.88669822629E+01 -0.24224176987E+02  0.26315354512E+02  0.47000000000E+01 0. -1.
         -5    1    3    3    0  501  0.22861065349E+02  0.35450125763E+01  0.15485452495E+03  0.15664357414E+03  0.47000000000E+01 0. -1.
          5    1    4    4  502    0 -0.51193063891E+02 -0.55140384467E+02  0.50993153953E+02  0.91014194166E+02  0.47000000000E+01 0.  1.
         -5    1    4    4    0  502  0.26101806180E+02  0.42728389628E+02  0.11978217721E+02  0.51697072121E+02  0.47000000000E+01 0.  1.
<mgrwt>
<rscale>  0 0.26187678E+03</rscale>
<asrwt>0</asrwt>
<pdfrwt beam="1">  1       21 0.39943993E-01 0.26187678E+03</pdfrwt>
<pdfrwt beam="2">  1       21 0.10159114E-01 0.26187678E+03</pdfrwt>
<totfact> 0.47004754E+05</totfact>
</mgrwt>
</event>
<event>
 8    1  0.9175398E-006  0.3663778E+03  0.7546771E-02  0.1056087E+00
         21   -1    0    0  504  503  0.00000000000E+00  0.00000000000E+00  0.10172695705E+04  0.10172695705E+04  0.00000000000E+00 0. -1.
         21   -1    0    0  503  504 -0.00000000000E+00 -0.00000000000E+00 -0.32988475718E+02  0.32988475718E+02  0.00000000000E+00 0. -1.
         25    2    1    2    0    0 -0.12556192581E+03 -0.40628246541E+02  0.55757646646E+03  0.58645894110E+03  0.12500448800E+03 0.  0.
         25    2    1    2    0    0  0.12556192581E+03  0.40628246541E+02  0.42670462828E+03  0.46379910508E+03  0.12496526894E+03 0.  0.
          5    1    3    3  501    0 -0.10614950836E+03 -0.81674270781E+02  0.37379869382E+03  0.39709691277E+03  0.47000000000E+01 0. -1.
         -5    1    3    3    0  501 -0.19412417452E+02  0.41046024240E+02  0.18377777264E+03  0.18936202834E+03  0.47000000000E+01 0. -1.
          5    1    4    4  502    0  0.11529524993E+03  0.62307274116E+02  0.22352025477E+03  0.25914973540E+03  0.47000000000E+01 0.  1.
         -5    1    4    4    0  502  0.10266675879E+02 -0.21679027575E+02  0.20318437351E+03  0.20464936968E+03  0.47000000000E+01 0.  1.
<mgrwt>
<rscale>  0 0.36637780E+03</rscale>
<asrwt>0</asrwt>
<pdfrwt beam="1">  1       21 0.15650299E+00 0.36637780E+03</pdfrwt>
<pdfrwt beam="2">  1       21 0.50751509E-02 0.36637780E+03</pdfrwt>
<totfact> 0.65278024E+04</totfact>
</mgrwt>
</event>
<event>
 8    1  0.9175398E-006  0.3599400E+03  0.7546771E-02  0.1058608E+00
         21   -1    0    0  504  503  0.00000000000E+00  0.00000000000E+00  0.56718568942E+03  0.56718568942E+03  0.00000000000E+00 0.  1.
         21   -1    0    0  503  504 -0.00000000000E+00 -0.00000000000E+00 -0.57105099595E+02  0.57105099595E+02  0.00000000000E+00 0.  1.
         25    2    1    2    0    0 -0.45934149197E+02 -0.12089423277E+03  0.26586521663E+03  0.32099105855E+03  0.12500233867E+03 0.  0.
         25    2    1    2    0    0  0.45934149197E+02  0.12089423277E+03  0.24421537319E+03  0.30329973046E+03  0.12499686563E+03 0.  0.
          5    1    3    3  501    0  0.14099180243E+02 -0.23031171369E+02  0.16751528443E+03  0.16974298882E+03  0.47000000000E+01 0.  1.
         -5    1    3    3    0  501 -0.60033329439E+02 -0.97863061404E+02  0.98349932206E+02  0.15124806973E+03  0.47000000000E+01 0.  1.
          5    1    4    4  502    0  0.70876632373E+02  0.11388399056E+03  0.13279876634E+03  0.18881383070E+03  0.47000000000E+01 0.  1.
         -5    1    4    4    0  502 -0.24942483176E+02  0.70102422133E+01  0.11141660685E+03  0.11448589976E+03  0.47000000000E+01 0.  1.
<mgrwt>
<rscale>  0 0.35993997E+03</rscale>
<asrwt>0</asrwt>
<pdfrwt beam="1">  1       21 0.87259333E-01 0.35993997E+03</pdfrwt>
<pdfrwt beam="2">  1       21 0.87854003E-02 0.35993997E+03</pdfrwt>
<totfact> 0.10911571E+05</totfact>
</mgrwt>
</event>
<event>
 8    1  0.9175398E-006  0.3101550E+03  0.7546771E-02  0.1080272E+00
         21   -1    0    0  504  503  0.00000000000E+00  0.00000000000E+00  0.11619065464E+03  0.11619065464E+03  0.00000000000E+00 0. -1.
         21   -1    0    0  503  504 -0.00000000000E+00 -0.00000000000E+00 -0.20697908267E+03  0.20697908267E+03  0.00000000000E+00 0. -1.
         25    2    1    2    0    0 -0.59112155001E+02  0.18733266590E+02 -0.11589863583E+03  0.18139353251E+03  0.12500375076E+03 0.  0.
         25    2    1    2    0    0  0.59112155001E+02 -0.18733266590E+02  0.25110207796E+02  0.14177620479E+03  0.12499915025E+03 0.  0.
          5    1    3    3  501    0 -0.63211955494E+02  0.60924336558E+02 -0.10580532011E+03  0.13756591826E+03  0.47000000000E+01 0.  1.
         -5    1    3    3    0  501  0.40998004929E+01 -0.42191069968E+02 -0.10093315716E+02  0.43827614255E+02  0.47000000000E+01 0.  1.
          5    1    4    4  502    0 -0.12597153927E+02 -0.56433088589E+02  0.15569488523E+02  0.60065636994E+02  0.47000000000E+01 0.  1.
         -5    1    4    4    0  502  0.71709308928E+02  0.37699821998E+02  0.95407192733E+01  0.81710567798E+02  0.47000000000E+01 0.  1.
<mgrwt>
<rscale>  0 0.31015503E+03</rscale>
<asrwt>0</asrwt>
<pdfrwt beam="1">  1       21 0.17875485E-01 0.31015503E+03</pdfrwt>
<pdfrwt beam="2">  1       21 0.31842936E-01 0.31015503E+03</pdfrwt>
<totfact> 0.26222488E+05</totfact>
</mgrwt>
</event>
<event>
 8    1  0.9175398E-006  0.2584750E+03  0.7546771E-02  0.1108063E+00
         21   -1    0    0  504  503  0.00000000000E+00  0.00000000000E+00  0.16533746310E+03  0.16533746310E+03  0.00000000000E+00 0. -1.
         21   -1    0    0  503  504 -0.00000000000E+00 -0.00000000000E+00 -0.10101967944E+03  0.10101967944E+03  0.00000000000E+00 0. -1.
         25    2    1    2    0    0 -0.29668104088E+01  0.24223818919E+02  0.95587920160E+01  0.12772375955E+03  0.12500557140E+03 0.  0.
         25    2    1    2    0    0  0.29668104088E+01 -0.24223818919E+02  0.54758991642E+02  0.13863338300E+03  0.12500028940E+03 0.  0.
          5    1    3    3  501    0 -0.29363217598E+02 -0.44385294288E+02 -0.13924107690E+00  0.53426232178E+02  0.47000000000E+01 0.  1.
         -5    1    3    3    0  501  0.26396407189E+02  0.68609113207E+02  0.96980330929E+01  0.74297527371E+02  0.47000000000E+01 0.  1.
          5    1    4    4  502    0 -0.59385843697E+02 -0.75572887125E+01  0.40319535617E+02  0.72329426906E+02  0.47000000000E+01 0.  1.
         -5    1    4    4    0  502  0.62352654106E+02 -0.16666530207E+02  0.14439456025E+02  0.66303956092E+02  0.47000000000E+01 0.  1.
<mgrwt>
<rscale>  0 0.25847505E+03</rscale>
<asrwt>0</asrwt>
<pdfrwt beam="1">  1       21 0.25436533E-01 0.25847505E+03</pdfrwt>
<pdfrwt beam="2">  1       21 0.15541489E-01 0.25847505E+03</pdfrwt>
<totfact> 0.53227142E+05</totfact>
</mgrwt>
</event>
<event>
 8    1  0.9175398E-006  0.3203408E+03  0.7546771E-02  0.1075493E+00
         21   -1    0    0  504  503  0.00000000000E+00  0.00000000000E+00  0.11196530827E+03  0.11196530827E+03  0.00000000000E+00 0. -1.
         21   -1    0    0  503  504 -0.00000000000E+00 -0.00000000000E+00 -0.22912956804E+03  0.22912956804E+03  0.00000000000E+00 0. -1.
         25    2    1    2    0    0 -0.13205386765E+02 -0.11717455746E+02  0.46385458770E+02  0.13449034819E+03  0.12499744782E+03 0.  0.
         25    2    1    2    0    0  0.13205386765E+02  0.11717455746E+02 -0.16354971854E+03  0.20660452811E+03  0.12500095837E+03 0.  0.
          5    1    3    3  501    0  0.45284171280E+02 -0.34761604818E+02  0.18605772370E+01  0.57311230014E+02  0.47000000000E+01 0.  1.
         -5    1    3    3    0  501 -0.58489558044E+02  0.23044149072E+02  0.44524881533E+02  0.77179118174E+02  0.47000000000E+01 0.  1.
          5    1    4    4  502    0  0.21211986368E+02  0.65860577020E+02 -0.10896773360E+03  0.12916509179E+03  0.47000000000E+01 0.  1.
         -5    1    4    4    0  502 -0.80065996034E+01 -0.54143121274E+02 -0.54581984941E+02  0.77439436327E+02  0.47000000000E+01 0.  1.
<mgrwt>
<rscale>  0 0.32034084E+03</rscale>
<asrwt>0</asrwt>
<pdfrwt beam="1">  1       21 0.17225432E-01 0.32034084E+03</pdfrwt>
<pdfrwt beam="2">  1       21 0.35250703E-01 0.32034084E+03</pdfrwt>
<totfact> 0.22888287E+05</totfact>
</mgrwt>
</event>
<event>
 8    1  0.9175398E-006  0.2566954E+03  0.7546771E-02  0.1109145E+00
         21   -1    0    0  504  503  0.00000000000E+00  0.00000000000E+00  0.18407882100E+03  0.18407882100E+03  0.00000000000E+00 0.  1.
         21   -1    0    0  503  504 -0.00000000000E+00 -0.00000000000E+00 -0.89489575059E+02  0.89489575059E+02  0.00000000000E+00 0.  1.
         25    2    1    2    0    0 -0.16869873953E+02 -0.23850790009E+02  0.47995664025E+02  0.13701090214E+03  0.12495979637E+03 0.  0.
         25    2    1    2    0    0  0.16869873953E+02  0.23850790009E+02  0.46593581912E+02  0.13655749391E+03  0.12499413761E+03 0.  0.
          5    1    3    3  501    0 -0.17660897590E+02  0.66582515295E+01 -0.39606961598E+02  0.44125287808E+02  0.47000000000E+01 0.  1.
         -5    1    3    3    0  501  0.79102363741E+00 -0.30509041538E+02  0.87602625623E+02  0.92885614333E+02  0.47000000000E+01 0.  1.
          5    1    4    4  502    0  0.64025146571E+02  0.38275284849E+02  0.44482334277E+02  0.86976921573E+02  0.47000000000E+01 0.  1.
         -5    1    4    4    0  502 -0.47155272618E+02 -0.14424494840E+02  0.21112476354E+01  0.49580572341E+02  0.47000000000E+01 0.  1.
<mgrwt>
<rscale>  0 0.25669543E+03</rscale>
<asrwt>0</asrwt>
<pdfrwt beam="1">  1       21 0.28319818E-01 0.25669543E+03</pdfrwt>
<pdfrwt beam="2">  1       21 0.13767627E-01 0.25669543E+03</pdfrwt>
<totfact> 0.53977232E+05</totfact>
</mgrwt>
</event>
<event>
 8    1  0.9175398E-006  0.3124242E+03  0.7546771E-02  0.1079190E+00
         21   -1    0    0  504  503  0.00000000000E+00  0.00000000000E+00  0.10746363509E+03  0.10746363509E+03  0.00000000000E+00 0.  1.
         21   -1    0    0  503  504 -0.00000000000E+00 -0.00000000000E+00 -0.22707422019E+03  0.22707422019E+03  0.00000000000E+00 0.  1.
         25    2    1    2    0    0 -0.77523115602E+02  0.29837694181E+02 -0.10618551627E+03  0.18385533322E+03  0.12500919263E+03 0.  0.
         25    2    1    2    0    0  0.77523115602E+02 -0.29837694181E+02 -0.13425068821E+02  0.15068252206E+03  0.12499947414E+03 0.  0.
          5    1    3    3  501    0 -0.81875878072E+01 -0.44929412186E+02 -0.19278577209E+02  0.49793997758E+02  0.47000000000E+01 0.  1.
         -5    1    3    3    0  501 -0.69335527794E+02  0.74767106368E+02 -0.86906939066E+02  0.13406133547E+03  0.47000000000E+01 0.  1.
          5    1    4    4  502    0  0.76518136484E+02 -0.67561808744E+02  0.14898210604E+02  0.10326504680E+03  0.47000000000E+01 0. -1.
         -5    1    4    4    0  502  0.10049791173E+01  0.37724114562E+02 -0.28323279425E+02  0.47417475259E+02  0.47000000000E+01 0. -1.
<mgrwt>
<rscale>  0 0.31242421E+03</rscale>
<asrwt>0</asrwt>
<pdfrwt beam="1">  1       21 0.16532867E-01 0.31242421E+03</pdfrwt>
<pdfrwt beam="2">  1       21 0.34934496E-01 0.31242421E+03</pdfrwt>
<totfact> 0.25194118E+05</totfact>
</mgrwt>
</event>
<event>
 8    1  0.9175398E-006  0.3840909E+03  0.7546771E-02  0.1049432E+00
         21   -1    0    0  504  503  0.00000000000E+00  0.00000000000E+00  0.44050939460E+02  0.44050939460E+02  0.00000000000E+00 0.  1.
         21   -1    0    0  503  504 -0.00000000000E+00 -0.00000000000E+00 -0.83724560100E+03  0.83724560100E+03  0.00000000000E+00 0.  1.
         25    2    1    2    0    0 -0.72357655958E+02 -0.88665910590E+02 -0.60383651850E+03  0.62716898236E+03  0.12500046916E+03 0.  0.
         25    2    1    2    0    0  0.72357655958E+02  0.88665910590E+02 -0.18935814304E+03  0.25412755809E+03  0.12500814122E+03 0.  0.
          5    1    3    3  501    0  0.11990703359E+02 -0.83866010455E+02 -0.30610256140E+03  0.31764469580E+03  0.47000000000E+01 0. -1.
         -5    1    3    3    0  501 -0.84348359316E+02 -0.47999001351E+01 -0.29773395710E+03  0.30952428656E+03  0.47000000000E+01 0. -1.
          5    1    4    4  502    0  0.75333783111E+02  0.33138023211E+02 -0.17940991225E+03  0.19744192583E+03  0.47000000000E+01 0. -1.
         -5    1    4    4    0  502 -0.29761271532E+01  0.55527887380E+02 -0.99482307855E+01  0.56685632266E+02  0.47000000000E+01 0. -1.
<mgrwt>
<rscale>  0 0.38409090E+03</rscale>
<asrwt>0</asrwt>
<pdfrwt beam="1">  1       21 0.67770682E-02 0.38409090E+03</pdfrwt>
<pdfrwt beam="2">  1       21 0.12880700E+00 0.38409090E+03</pdfrwt>
<totfact> 0.65948827E+04</totfact>
</mgrwt>
</event>
<event>
 8    1  0.9175398E-006  0.2991179E+03  0.7546771E-02  0.1085682E+00
         21   -1    0    0  504  503  0.00000000000E+00  0.00000000000E+00  0.43917202870E+02  0.43917202870E+02  0.00000000000E+00 0.  1.
         21   -1    0    0  503  504 -0.00000000000E+00 -0.00000000000E+00 -0.50931928776E+03  0.50931928776E+03  0.00000000000E+00 0.  1.
         25    2    1    2    0    0 -0.22007209779E+02  0.55324964687E+01 -0.86752583636E+02  0.15383958906E+03  0.12500273035E+03 0.  0.
         25    2    1    2    0    0  0.22007209779E+02 -0.55324964687E+01 -0.37864950126E+03  0.39939690157E+03  0.12501005713E+03 0.  0.
          5    1    3    3  501    0 -0.58563140175E+02  0.36234346526E+02 -0.20427364885E+02  0.71985668653E+02  0.47000000000E+01 0.  1.
         -5    1    3    3    0  501  0.36555930395E+02 -0.30701850057E+02 -0.66325218751E+02  0.81853920410E+02  0.47000000000E+01 0.  1.
          5    1    4    4  502    0  0.22827334299E+02 -0.41000178807E+02 -0.49731206865E+02  0.68537469968E+02  0.47000000000E+01 0. -1.
         -5    1    4    4    0  502 -0.82012451991E+00  0.35467682338E+02 -0.32891829439E+03  0.33085943160E+03  0.47000000000E+01 0. -1.
<mgrwt>
<rscale>  0 0.29911789E+03</rscale>
<asrwt>0</asrwt>
<pdfrwt beam="1">  1       21 0.67564924E-02 0.29911789E+03</pdfrwt>
<pdfrwt beam="2">  1       21 0.78356817E-01 0.29911789E+03</pdfrwt>
<totfact> 0.22506820E+05</totfact>
</mgrwt>
</event>
<event>
 8    1  0.9175398E-006  0.3516816E+03  0.7546771E-02  0.1061927E+00
         21   -1    0    0  504  503  0.00000000000E+00  0.00000000000E+00  0.72732975987E+03  0.72732975987E+03  0.00000000000E+00 0. -1.
         21   -1    0    0  503  504 -0.00000000000E+00 -0.00000000000E+00 -0.42511648031E+02  0.42511648031E+02  0.00000000000E+00 0. -1.
         25    2    1    2    0    0  0.33764416373E+02  0.11898140762E+03  0.33925297584E+03  0.38210928048E+03  0.12497323491E+03 0.  0.
         25    2    1    2    0    0 -0.33764416373E+02 -0.11898140762E+03  0.34556513600E+03  0.38773212742E+03  0.12499731293E+03 0.  0.
          5    1    3    3  501    0 -0.21311646523E+00 -0.26037431096E+02  0.43017192646E+02  0.50503090003E+02  0.47000000000E+01 0. -1.
         -5    1    3    3    0  501  0.33977532838E+02  0.14501883872E+03  0.29623578319E+03  0.33160619048E+03  0.47000000000E+01 0. -1.
          5    1    4    4  502    0 -0.24873096187E+02  0.84273846099E+01  0.16124686141E+03  0.16343907746E+03  0.47000000000E+01 0. -1.
         -5    1    4    4    0  502 -0.88913201856E+01 -0.12740879223E+03  0.18431827459E+03  0.22429304996E+03  0.47000000000E+01 0. -1.
<mgrwt>
<rscale>  0 0.35168160E+03</rscale>
<asrwt>0</asrwt>
<pdfrwt beam="1">  1       21 0.11189688E+00 0.35168160E+03</pdfrwt>
<pdfrwt beam="2">  1       21 0.65402541E-02 0.35168160E+03</pdfrwt>
<totfact> 0.10096343E+05</totfact>
</mgrwt>
</event>
<event>
 8    1  0.9175398E-006  0.2512224E+03  0.7546771E-02  0.1112535E+00
         21   -1    0    0  504  503  0.00000000000E+00  0.00000000000E+00  0.78275587402E+03  0.78275587402E+03  0.00000000000E+00 0.  1.
         21   -1    0    0  503  504 -0.00000000000E+00 -0.00000000000E+00 -0.20157202279E+02  0.20157202279E+02  0.00000000000E+00 0.  1.
         25    2    1    2    0    0 -0.58341066641E+01 -0.10557396565E+02  0.37054426868E+03  0.39123550190E+03  0.12496666543E+03 0.  0.
         25    2    1    2    0    0  0.58341066641E+01  0.10557396565E+02  0.39205440306E+03  0.41167757440E+03  0.12500509944E+03 0.  0.
          5    1    3    3  501    0 -0.64830693884E+01  0.56866061489E+02  0.18823735692E+03  0.19680236705E+03  0.47000000000E+01 0.  1.
         -5    1    3    3    0  501  0.64896272428E+00 -0.67423458054E+02  0.18230691177E+03  0.19443313485E+03  0.47000000000E+01 0.  1.
          5    1    4    4  502    0 -0.32414140442E+02 -0.41158853961E+02  0.25278085628E+03  0.25819562169E+03  0.47000000000E+01 0.  1.
         -5    1    4    4    0  502  0.38248247106E+02  0.51716250526E+02  0.13927354679E+03  0.15348195271E+03  0.47000000000E+01 0.  1.
<mgrwt>
<rscale>  0 0.25122236E+03</rscale>
<asrwt>0</asrwt>
<pdfrwt beam="1">  1       21 0.12042396E+00 0.25122236E+03</pdfrwt>
<pdfrwt beam="2">  1       21 0.31011087E-02 0.25122236E+03</pdfrwt>
<totfact> 0.30801360E+05</totfact>
</mgrwt>
</event>
<event>
 8    1  0.9175398E-006  0.3074049E+03  0.7546771E-02  0.1081596E+00
         21   -1    0    0  504  503  0.00000000000E+00  0.00000000000E+00  0.66861026318E+02  0.66861026318E+02  0.00000000000E+00 0.  1.
         21   -1    0    0  503  504 -0.00000000000E+00 -0.00000000000E+00 -0.35333649222E+03  0.35333649222E+03  0.00000000000E+00 0.  1.
         25    2    1    2    0    0  0.54133383348E+02  0.58138370791E+02 -0.19937344158E+03  0.24836403632E+03  0.12499772790E+03 0.  0.
         25    2    1    2    0    0 -0.54133383348E+02 -0.58138370791E+02 -0.87102024317E+02  0.17183348221E+03  0.12501795718E+03 0.  0.
          5    1    3    3  501    0  0.69604817061E+02  0.38176808401E+02 -0.44010799245E+02  0.90891912225E+02  0.47000000000E+01 0.  1.
         -5    1    3    3    0  501 -0.15471433713E+02  0.19961562390E+02 -0.15536264234E+03  0.15747212410E+03  0.47000000000E+01 0.  1.
          5    1    4    4  502    0 -0.56590591006E+02 -0.95078399886E+02 -0.63051614039E+02  0.12743623169E+03  0.47000000000E+01 0. -1.
         -5    1    4    4    0  502  0.24572076577E+01  0.36940029095E+02 -0.24050410277E+02  0.44397250518E+02  0.47000000000E+01 0. -1.
<mgrwt>
<rscale>  0 0.30740488E+03</rscale>
<asrwt>0</asrwt>
<pdfrwt beam="1">  1       21 0.10286312E-01 0.30740488E+03</pdfrwt>
<pdfrwt beam="2">  1       21 0.54359461E-01 0.30740488E+03</pdfrwt>
<totfact> 0.23971549E+05</totfact>
</mgrwt>
</event>
<event>
 8    1  0.9175398E-006  0.3887463E+03  0.7546771E-02  0.1047748E+00
         21   -1    0    0  504  503  0.00000000000E+00  0.00000000000E+00  0.46140591111E+02  0.46140591111E+02  0.00000000000E+00 0. -1.
         21   -1    0    0  503  504 -0.00000000000E+00 -0.00000000000E+00 -0.81882165688E+03  0.81882165688E+03  0.00000000000E+00 0. -1.
         25    2    1    2    0    0 -0.37297131833E+02 -0.59732178984E+02 -0.94554473109E+02  0.17182493749E+03  0.12499700600E+03 0.  0.
         25    2    1    2    0    0  0.37297131833E+02  0.59732178984E+02 -0.67812659266E+03  0.69313731051E+03  0.12499858517E+03 0.  0.
          5    1    3    3  501    0  0.82672422085E+01  0.27960342461E+02 -0.60271236476E+02  0.67118104790E+02  0.47000000000E+01 0.  1.
         -5    1    3    3    0  501 -0.45564374041E+02 -0.87692521445E+02 -0.34283236633E+02  0.10470683270E+03  0.47000000000E+01 0.  1.
          5    1    4    4  502    0 -0.46050724261E+02  0.26117737651E+02 -0.27477172160E+03  0.27986495746E+03  0.47000000000E+01 0. -1.
         -5    1    4    4    0  502  0.83347856093E+02  0.33614441333E+02 -0.40335487106E+03  0.41327235305E+03  0.47000000000E+01 0. -1.
<mgrwt>
<rscale>  0 0.38874627E+03</rscale>
<asrwt>0</asrwt>
<pdfrwt beam="1">  1       21 0.70985529E-02 0.38874627E+03</pdfrwt>
<pdfrwt beam="2">  1       21 0.12597255E+00 0.38874627E+03</pdfrwt>
<totfact> 0.64304472E+04</totfact>
</mgrwt>
</event>
<event>
 8    1  0.9175398E-006  0.4012181E+03  0.7546771E-02  0.1043359E+00
         21   -1    0    0  504  503  0.00000000000E+00  0.00000000000E+00  0.51706087199E+03  0.51706087199E+03  0.00000000000E+00 0. -1.
         21   -1    0    0  503  504 -0.00000000000E+00 -0.00000000000E+00 -0.77832221156E+02  0.77832221156E+02  0.00000000000E+00 0. -1.
         25    2    1    2    0    0  0.96797105674E+02 -0.11933488538E+03  0.26671324755E+03  0.33222068356E+03  0.12499652648E+03 0.  0.
         25    2    1    2    0    0 -0.96797105674E+02  0.11933488538E+03  0.17251540328E+03  0.26267240958E+03  0.12499894339E+03 0.  0.
          5    1    3    3  501    0  0.34103904288E+02  0.11776791715E+02  0.12106525924E+03  0.12641461983E+03  0.47000000000E+01 0.  1.
         -5    1    3    3    0  501  0.62693201386E+02 -0.13111167710E+03  0.14564798831E+03  0.20580606373E+03  0.47000000000E+01 0.  1.
          5    1    4    4  502    0 -0.57333702353E+02  0.11676838363E+03  0.60029184846E+02  0.14334434720E+03  0.47000000000E+01 0.  1.
         -5    1    4    4    0  502 -0.39463403321E+02  0.25665017507E+01  0.11248621844E+03  0.11932806238E+03  0.47000000000E+01 0.  1.
<mgrwt>
<rscale>  0 0.40121813E+03</rscale>
<asrwt>0</asrwt>
<pdfrwt beam="1">  1       21 0.79547824E-01 0.40121813E+03</pdfrwt>
<pdfrwt beam="2">  1       21 0.11974188E-01 0.40121813E+03</pdfrwt>
<totfact> 0.76804908E+04</totfact>
</mgrwt>
</event>
<event>
 8    1  0.9175398E-006  0.2681576E+03  0.7546771E-02  0.1102339E+00
         21   -1    0    0  504  503  0.00000000000E+00  0.00000000000E+00  0.40979341417E+03  0.40979341417E+03  0.00000000000E+00 0.  1.
         21   -1    0    0  503  504 -0.00000000000E+00 -0.00000000000E+00 -0.43868752262E+02  0.43868752262E+02  0.00000000000E+00 0.  1.
         25    2    1    2    0    0 -0.60935558385E+01 -0.48043451735E+02  0.18416098225E+03  0.22780905941E+03  0.12504557365E+03 0.  0.
         25    2    1    2    0    0  0.60935558385E+01  0.48043451735E+02  0.18176367965E+03  0.22585310702E+03  0.12500514402E+03 0.  0.
          5    1    3    3  501    0 -0.10824345927E+02  0.24079476559E+02  0.14092887848E+03  0.14345740289E+03  0.47000000000E+01 0.  1.
         -5    1    3    3    0  501  0.47307900884E+01 -0.72122928294E+02  0.43232103774E+02  0.84351656518E+02  0.47000000000E+01 0.  1.
          5    1    4    4  502    0  0.81783332455E+00  0.46107771362E+02  0.20047212771E+03  0.20576141383E+03  0.47000000000E+01 0.  1.
         -5    1    4    4    0  502  0.52757225139E+01  0.19356803731E+01 -0.18708448058E+02  0.20091693191E+02  0.47000000000E+01 0.  1.
<mgrwt>
<rscale>  0 0.26815761E+03</rscale>
<asrwt>0</asrwt>
<pdfrwt beam="1">  1       21 0.63045138E-01 0.26815761E+03</pdfrwt>
<pdfrwt beam="2">  1       21 0.67490391E-02 0.26815761E+03</pdfrwt>
<totfact> 0.36861002E+05</totfact>
</mgrwt>
</event>
<event>
 8    1  0.9175398E-006  0.3761351E+03  0.7546771E-02  0.1052372E+00
         21   -1    0    0  504  503  0.00000000000E+00  0.00000000000E+00  0.19866835435E+03  0.19866835435E+03  0.00000000000E+00 0. -1.
         21   -1    0    0  503  504 -0.00000000000E+00 -0.00000000000E+00 -0.17803240910E+03  0.17803240910E+03  0.00000000000E+00 0. -1.
         25    2    1    2    0    0  0.28551569747E+02  0.11953471686E+03  0.78534375049E+02  0.19209402436E+03  0.12501490095E+03 0.  0.
         25    2    1    2    0    0 -0.28551569747E+02 -0.11953471686E+03 -0.57898429800E+02  0.18460673909E+03  0.12499471698E+03 0.  0.
          5    1    3    3  501    0 -0.81033154160E+01  0.99886839165E+02  0.10286008388E+03  0.14368483293E+03  0.47000000000E+01 0.  1.
         -5    1    3    3    0  501  0.36654885163E+02  0.19647877696E+02 -0.24325708830E+02  0.48409191424E+02  0.47000000000E+01 0.  1.
          5    1    4    4  502    0 -0.35995471737E+02 -0.12277639505E+03 -0.21232585266E+01  0.12804809797E+03  0.47000000000E+01 0. -1.
         -5    1    4    4    0  502  0.74439019904E+01  0.32416781922E+01 -0.55775171273E+02  0.56558641116E+02  0.47000000000E+01 0. -1.
<mgrwt>
<rscale>  0 0.37613511E+03</rscale>
<asrwt>0</asrwt>
<pdfrwt beam="1">  1       21 0.30564362E-01 0.37613511E+03</pdfrwt>
<pdfrwt beam="2">  1       21 0.27389601E-01 0.37613511E+03</pdfrwt>
<totfact> 0.12414090E+05</totfact>
</mgrwt>
</event>
<event>
 8    1  0.9175398E-006  0.2962478E+03  0.7546771E-02  0.1087131E+00
         21   -1    0    0  504  503  0.00000000000E+00  0.00000000000E+00  0.69161137142E+03  0.69161137142E+03  0.00000000000E+00 0. -1.
         21   -1    0    0  503  504 -0.00000000000E+00 -0.00000000000E+00 -0.31724025774E+02  0.31724025774E+02  0.00000000000E+00 0. -1.
         25    2    1    2    0    0  0.47840033984E+02 -0.46588465799E+02  0.43514279660E+03  0.45763849972E+03  0.12499835595E+03 0.  0.
         25    2    1    2    0    0 -0.47840033984E+02  0.46588465799E+02  0.22474454904E+03  0.26569689748E+03  0.12500230001E+03 0.  0.
          5    1    3    3  501    0  0.67535958328E+02  0.19886950543E+02  0.18420804793E+03  0.19725945197E+03  0.47000000000E+01 0. -1.
         -5    1    3    3    0  501 -0.19695924344E+02 -0.66475416342E+02  0.25093474867E+03  0.26037904774E+03  0.47000000000E+01 0. -1.
          5    1    4    4  502    0  0.20859942720E+02  0.21312997172E+02  0.17376599208E+03  0.17636918966E+03  0.47000000000E+01 0.  1.
         -5    1    4    4    0  502 -0.68699976704E+02  0.25275468627E+02  0.50978556961E+02  0.89327707814E+02  0.47000000000E+01 0.  1.
<mgrwt>
<rscale>  0 0.29624785E+03</rscale>
<asrwt>0</asrwt>
<pdfrwt beam="1">  1       21 0.10640174E+00 0.29624785E+03</pdfrwt>
<pdfrwt beam="2">  1       21 0.48806199E-02 0.29624785E+03</pdfrwt>
<totfact> 0.19204908E+05</totfact>
</mgrwt>
</event>
<event>
 8    1  0.9175398E-006  0.2569295E+03  0.7546771E-02  0.1109002E+00
         21   -1    0    0  504  503  0.00000000000E+00  0.00000000000E+00  0.37170755358E+03  0.37170755358E+03  0.00000000000E+00 0.  1.
         21   -1    0    0  503  504 -0.00000000000E+00 -0.00000000000E+00 -0.44398319939E+02  0.44398319939E+02  0.00000000000E+00 0.  1.
         25    2    1    2    0    0 -0.19519091854E+02  0.22230989201E+02  0.16085878586E+03  0.20585373993E+03  0.12500000572E+03 0.  0.
         25    2    1    2    0    0  0.19519091854E+02 -0.22230989201E+02  0.16645044778E+03  0.21025213358E+03  0.12499998512E+03 0.  0.
          5    1    3    3  501    0 -0.27129206652E+02 -0.47613445326E+02  0.48917492683E+02  0.73607371368E+02  0.47000000000E+01 0.  1.
         -5    1    3    3    0  501  0.76101147980E+01  0.69844434527E+02  0.11194129317E+03  0.13224636857E+03  0.47000000000E+01 0.  1.
          5    1    4    4  502    0 -0.35862931762E+02  0.24189329097E+02  0.22208847773E+02  0.48852803769E+02  0.47000000000E+01 0.  1.
         -5    1    4    4    0  502  0.55382023616E+02 -0.46420318298E+02  0.14424160001E+03  0.16139932981E+03  0.47000000000E+01 0.  1.
<mgrwt>
<rscale>  0 0.25692949E+03</rscale>
<asrwt>0</asrwt>
<pdfrwt beam="1">  1       21 0.57185776E-01 0.25692949E+03</pdfrwt>
<pdfrwt beam="2">  1       21 0.68305110E-02 0.25692949E+03</pdfrwt>
<totfact> 0.44688096E+05</totfact>
</mgrwt>
</event>
<event>
 8    1  0.9175398E-006  0.2694378E+03  0.7546771E-02  0.1101602E+00
         21   -1    0    0  504  503  0.00000000000E+00  0.00000000000E+00  0.73881106321E+02  0.73881106321E+02  0.00000000000E+00 0. -1.
         21   -1    0    0  503  504 -0.00000000000E+00 -0.00000000000E+00 -0.24565393340E+03  0.24565393340E+03  0.00000000000E+00 0. -1.
         25    2    1    2    0    0 -0.26966197095E+02  0.65382853217E+01 -0.13556056335E+03  0.18647088144E+03  0.12499919331E+03 0.  0.
         25    2    1    2    0    0  0.26966197095E+02 -0.65382853217E+01 -0.36212263726E+02  0.13306415828E+03  0.12499926885E+03 0.  0.
          5    1    3    3  501    0  0.12812356527E+02  0.56241635457E+02 -0.93710205101E+02  0.11014068539E+03  0.47000000000E+01 0. -1.
         -5    1    3    3    0  501 -0.39778553622E+02 -0.49703350136E+02 -0.41850358249E+02  0.76330196047E+02  0.47000000000E+01 0. -1.
          5    1    4    4  502    0  0.31003782383E+02  0.35397553963E+02 -0.66043743243E+02  0.81228611771E+02  0.47000000000E+01 0. -1.
         -5    1    4    4    0  502 -0.40375852883E+01 -0.41935839285E+02  0.29831479517E+02  0.51835546507E+02  0.47000000000E+01 0. -1.
<mgrwt>
<rscale>  0 0.26943782E+03</rscale>
<asrwt>0</asrwt>
<pdfrwt beam="1">  1       21 0.11366324E-01 0.26943782E+03</pdfrwt>
<pdfrwt beam="2">  1       21 0.37792913E-01 0.26943782E+03</pdfrwt>
<totfact> 0.42962002E+05</totfact>
</mgrwt>
</event>
<event>
 8    1  0.9175398E-006  0.2779142E+03  0.7546771E-02  0.1096834E+00
         21   -1    0    0  504  503  0.00000000000E+00  0.00000000000E+00  0.13663331912E+03  0.13663331912E+03  0.00000000000E+00 0. -1.
         21   -1    0    0  503  504 -0.00000000000E+00 -0.00000000000E+00 -0.14132039367E+03  0.14132039367E+03  0.00000000000E+00 0. -1.
         25    2    1    2    0    0  0.26271393759E+01 -0.48344268556E+02  0.34266349786E+02  0.13835892490E+03  0.12499975683E+03 0.  0.
         25    2    1    2    0    0 -0.26271393759E+01  0.48344268556E+02 -0.38953424338E+02  0.13959478789E+03  0.12500106150E+03 0.  0.
          5    1    3    3  501    0 -0.20179635969E+02 -0.39464945523E+02 -0.40082182084E+02  0.59944732492E+02  0.47000000000E+01 0. -1.
         -5    1    3    3    0  501  0.22806775344E+02 -0.88793230332E+01  0.74348531870E+02  0.78414192404E+02  0.47000000000E+01 0. -1.
          5    1    4    4  502    0  0.12004372724E+02  0.89335841421E+02 -0.25394755300E+02  0.93765564701E+02  0.47000000000E+01 0.  1.
         -5    1    4    4    0  502 -0.14631512100E+02 -0.40991572865E+02 -0.13558669038E+02  0.45829223192E+02  0.47000000000E+01 0.  1.
<mgrwt>
<rscale>  0 0.27791419E+03</rscale>
<asrwt>0</asrwt>
<pdfrwt beam="1">  1       21 0.21020511E-01 0.27791419E+03</pdfrwt>
<pdfrwt beam="2">  1       21 0.21741599E-01 0.27791419E+03</pdfrwt>
<totfact> 0.40781293E+05</totfact>
</mgrwt>
</event>
<event>
 8    1  0.9175398E-006  0.2960579E+03  0.7546771E-02  0.1087228E+00
         21   -1    0    0  504  503  0.00000000000E+00  0.00000000000E+00  0.68973367481E+02  0.68973367481E+02  0.00000000000E+00 0. -1.
         21   -1    0    0  503  504 -0.00000000000E+00 -0.00000000000E+00 -0.31769601846E+03  0.31769601846E+03  0.00000000000E+00 0. -1.
         25    2    1    2    0    0  0.69402486639E+02 -0.10275772210E+02 -0.17261252414E+03  0.22437203155E+03  0.12500171361E+03 0.  0.
         25    2    1    2    0    0 -0.69402486639E+02  0.10275772210E+02 -0.76110126840E+02  0.16229735439E+03  0.12500153274E+03 0.  0.
          5    1    3    3  501    0  0.96402931024E+02  0.32260123879E+01 -0.75543353623E+02  0.12260840323E+03  0.47000000000E+01 0.  1.
         -5    1    3    3    0  501 -0.27000444384E+02 -0.13501784598E+02 -0.97069170516E+02  0.10176362832E+03  0.47000000000E+01 0.  1.
          5    1    4    4  502    0 -0.93887043834E+02  0.28680379913E+02 -0.23205258746E+02  0.10098472768E+03  0.47000000000E+01 0. -1.
         -5    1    4    4    0  502  0.24484557194E+02 -0.18404607703E+02 -0.52904868094E+02  0.61312626707E+02  0.47000000000E+01 0. -1.
<mgrwt>
<rscale>  0 0.29605786E+03</rscale>
<asrwt>0</asrwt>
<pdfrwt beam="1">  1       21 0.10611287E-01 0.29605786E+03</pdfrwt>
<pdfrwt beam="2">  1       21 0.48876310E-01 0.29605786E+03</pdfrwt>
<totfact> 0.28466331E+05</totfact>
</mgrwt>
</event>
<event>
 8    1  0.9175398E-006  0.3090321E+03  0.7546771E-02  0.1080811E+00
         21   -1    0    0  504  503  0.00000000000E+00  0.00000000000E+00  0.37716914346E+02  0.37716914346E+02  0.00000000000E+00 0. -1.
         21   -1    0    0  503  504 -0.00000000000E+00 -0.00000000000E+00 -0.63301069822E+03  0.63301069822E+03  0.00000000000E+00 0. -1.
         25    2    1    2    0    0 -0.82870371333E+02 -0.34986935244E+02 -0.27031207110E+03  0.31110228410E+03  0.12499772522E+03 0.  0.
         25    2    1    2    0    0  0.82870371333E+02  0.34986935244E+02 -0.32498171278E+03  0.35962532846E+03  0.12500271658E+03 0.  0.
          5    1    3    3  501    0 -0.30522161721E+02  0.40885051241E+02 -0.15588850343E+03  0.16409297753E+03  0.47000000000E+01 0. -1.
         -5    1    3    3    0  501 -0.52348209612E+02 -0.75871986485E+02 -0.11442356767E+03  0.14700930658E+03  0.47000000000E+01 0. -1.
          5    1    4    4  502    0  0.10993036356E+03  0.50414232979E+01 -0.26696110363E+03  0.28879131156E+03  0.47000000000E+01 0.  1.
         -5    1    4    4    0  502 -0.27059992227E+02  0.29945511946E+02 -0.58020609148E+02  0.70834016906E+02  0.47000000000E+01 0.  1.
<mgrwt>
<rscale>  0 0.30903210E+03</rscale>
<asrwt>0</asrwt>
<pdfrwt beam="1">  1       21 0.58026022E-02 0.30903210E+03</pdfrwt>
<pdfrwt beam="2">  1       21 0.97386261E-01 0.30903210E+03</pdfrwt>
<totfact> 0.17612716E+05</totfact>
</mgrwt>
</event>
<event>
 8    1  0.9175398E-006  0.2689157E+03  0.7546771E-02  0.1101902E+00
         21   -1    0    0  504  503  0.00000000000E+00  0.00000000000E+00  0.22079674361E+03  0.22079674361E+03  0.00000000000E+00 0. -1.
         21   -1    0    0  503  504 -0.00000000000E+00 -0.00000000000E+00 -0.81880357561E+02  0.81880357561E+02  0.00000000000E+00 0. -1.
         25    2    1    2    0    0  0.15242295396E+02 -0.46411086264E+02  0.60199250566E+02  0.14708765422E+03  0.12499804702E+03 0.  0.
         25    2    1    2    0    0 -0.15242295396E+02  0.46411086264E+02  0.78717135483E+02  0.15558944695E+03  0.12500148833E+03 0.  0.
          5    1    3    3  501    0 -0.22894023020E+02 -0.73601809946E+02  0.63388041668E+02  0.99907439882E+02  0.47000000000E+01 0.  1.
         -5    1    3    3    0  501  0.38136318417E+02  0.27190723681E+02 -0.31887911020E+01  0.47180214343E+02  0.47000000000E+01 0.  1.
          5    1    4    4  502    0  0.30394426750E+02 -0.22849458638E+02  0.58761205757E+02  0.70149043041E+02  0.47000000000E+01 0. -1.
         -5    1    4    4    0  502 -0.45636722147E+02  0.69260544902E+02  0.19955929727E+02  0.85440403906E+02  0.47000000000E+01 0. -1.
<mgrwt>
<rscale>  0 0.26891572E+03</rscale>
<asrwt>0</asrwt>
<pdfrwt beam="1">  1       21 0.33968730E-01 0.26891572E+03</pdfrwt>
<pdfrwt beam="2">  1       21 0.12596978E-01 0.26891572E+03</pdfrwt>
<totfact> 0.44221263E+05</totfact>
</mgrwt>
</event>
<event>
 8    1  0.9175398E-006  0.3021019E+03  0.7546771E-02  0.1084195E+00
         21   -1    0    0  504  503  0.00000000000E+00  0.00000000000E+00  0.51875776512E+02  0.51875776512E+02  0.00000000000E+00 0.  1.
         21   -1    0    0  503  504 -0.00000000000E+00 -0.00000000000E+00 -0.43982743984E+03  0.43982743984E+03  0.00000000000E+00 0.  1.
         25    2    1    2    0    0 -0.41297093483E+02 -0.74033765724E+02 -0.19781988822E+03  0.24888747106E+03  0.12500326666E+03 0.  0.
         25    2    1    2    0    0  0.41297093483E+02  0.74033765724E+02 -0.19013177511E+03  0.24281574530E+03  0.12499178317E+03 0.  0.
          5    1    3    3  501    0  0.38957746009E+02  0.27557742562E+01 -0.61165477845E+02  0.72722802104E+02  0.47000000000E+01 0.  1.
         -5    1    3    3    0  501 -0.80254839493E+02 -0.76789539981E+02 -0.13665441037E+03  0.17616466895E+03  0.47000000000E+01 0.  1.
          5    1    4    4  502    0  0.40690901596E+02  0.99720088342E+02 -0.18786321038E+03  0.21659760226E+03  0.47000000000E+01 0.  1.
         -5    1    4    4    0  502  0.60619188730E+00 -0.25686322617E+02 -0.22685647291E+01  0.26218143033E+02  0.47000000000E+01 0.  1.
<mgrwt>
<rscale>  0 0.30210190E+03</rscale>
<asrwt>0</asrwt>
<pdfrwt beam="1">  1       21 0.79808889E-02 0.30210190E+03</pdfrwt>
<pdfrwt beam="2">  1       21 0.67665758E-01 0.30210190E+03</pdfrwt>
<totfact> 0.23369703E+05</totfact>
</mgrwt>
</event>
<event>
 8    1  0.9175398E-006  0.3175954E+03  0.7546771E-02  0.1076761E+00
         21   -1    0    0  504  503  0.00000000000E+00  0.00000000000E+00  0.68528919946E+03  0.68528919946E+03  0.00000000000E+00 0. -1.
         21   -1    0    0  503  504 -0.00000000000E+00 -0.00000000000E+00 -0.36797173265E+02  0.36797173265E+02  0.00000000000E+00 0. -1.
         25    2    1    2    0    0 -0.58135488563E+02  0.18104726622E+02  0.49866000339E+03  0.51768318086E+03  0.12500624227E+03 0.  0.
         25    2    1    2    0    0  0.58135488563E+02 -0.18104726622E+02  0.14983202280E+03  0.20440319186E+03  0.12499405438E+03 0.  0.
          5    1    3    3  501    0 -0.17546294228E+02 -0.52953160272E+02  0.23497372719E+03  0.24155051665E+03  0.47000000000E+01 0.  1.
         -5    1    3    3    0  501 -0.40589194335E+02  0.71057886894E+02  0.26368627620E+03  0.27613266420E+03  0.47000000000E+01 0.  1.
          5    1    4    4  502    0  0.54395956877E+02 -0.27233703254E+02  0.72955299196E+01  0.61448429388E+02  0.47000000000E+01 0. -1.
         -5    1    4    4    0  502  0.37395316867E+01  0.91289766327E+01  0.14253649288E+03  0.14295476248E+03  0.47000000000E+01 0. -1.
<mgrwt>
<rscale>  0 0.31759537E+03</rscale>
<asrwt>0</asrwt>
<pdfrwt beam="1">  1       21 0.10542910E+00 0.31759537E+03</pdfrwt>
<pdfrwt beam="2">  1       21 0.56611041E-02 0.31759537E+03</pdfrwt>
<totfact> 0.15141007E+05</totfact>
</mgrwt>
</event>
<event>
 8    1  0.9175398E-006  0.2864037E+03  0.7546771E-02  0.1092242E+00
         21   -1    0    0  504  503  0.00000000000E+00  0.00000000000E+00  0.45845540110E+03  0.45845540110E+03  0.00000000000E+00 0.  1.
         21   -1    0    0  503  504 -0.00000000000E+00 -0.00000000000E+00 -0.44730129121E+02  0.44730129121E+02  0.00000000000E+00 0.  1.
         25    2    1    2    0    0  0.20840809953E+02  0.61726632929E+02  0.25122604408E+03  0.28806899780E+03  0.12499882278E+03 0.  0.
         25    2    1    2    0    0 -0.20840809953E+02 -0.61726632929E+02  0.16249922790E+03  0.21511653242E+03  0.12499842751E+03 0.  0.
          5    1    3    3  501    0 -0.35467627058E+02  0.55139008948E+02  0.61559772729E+02  0.90055307980E+02  0.47000000000E+01 0. -1.
         -5    1    3    3    0  501  0.56308437011E+02  0.65876239806E+01  0.18966627135E+03  0.19801368982E+03  0.47000000000E+01 0. -1.
          5    1    4    4  502    0  0.24123908639E+02  0.23239334606E+02  0.10883990217E+02  0.35532814186E+02  0.47000000000E+01 0. -1.
         -5    1    4    4    0  502 -0.44964718593E+02 -0.84965967535E+02  0.15161523769E+03  0.17958371824E+03  0.47000000000E+01 0. -1.
<mgrwt>
<rscale>  0 0.28640370E+03</rscale>
<asrwt>0</asrwt>
<pdfrwt beam="1">  1       21 0.70531597E-01 0.28640370E+03</pdfrwt>
<pdfrwt beam="2">  1       21 0.68815586E-02 0.28640370E+03</pdfrwt>
<totfact> 0.27711812E+05</totfact>
</mgrwt>
</event>
<event>
 8    1  0.9175398E-006  0.6136236E+03  0.7546771E-02  0.9877538E-01
         21   -1    0    0  504  503  0.00000000000E+00  0.00000000000E+00  0.23380737786E+03  0.23380737786E+03  0.00000000000E+00 0.  1.
         21   -1    0    0  503  504 -0.00000000000E+00 -0.00000000000E+00 -0.40261127275E+03  0.40261127275E+03  0.00000000000E+00 0.  1.
         25    2    1    2    0    0  0.24329728682E+03  0.96433853634E+02  0.19344371388E+02  0.29068014516E+03  0.12501073627E+03 0.  0.
         25    2    1    2    0    0 -0.24329728682E+03 -0.96433853634E+02 -0.18814826628E+03  0.34573850545E+03  0.12506912548E+03 0.  0.
          5    1    3    3  501    0  0.17239131097E+03  0.29529005768E+02 -0.35782281395E+02  0.17858663988E+03  0.47000000000E+01 0.  1.
         -5    1    3    3    0  501  0.70905975850E+02  0.66904847867E+02  0.55126652783E+02  0.11209350528E+03  0.47000000000E+01 0.  1.
          5    1    4    4  502    0 -0.39321660414E+02 -0.32902190562E+02 -0.10405330205E+03  0.11609447355E+03  0.47000000000E+01 0.  1.
         -5    1    4    4    0  502 -0.20397562641E+03 -0.63531663072E+02 -0.84094964232E+02  0.22964403191E+03  0.47000000000E+01 0.  1.
<mgrwt>
<rscale>  0 0.61362362E+03</rscale>
<asrwt>0</asrwt>
<pdfrwt beam="1">  1       21 0.35970366E-01 0.61362362E+03</pdfrwt>
<pdfrwt beam="2">  1       21 0.61940196E-01 0.61362362E+03</pdfrwt>
<totfact> 0.15646836E+04</totfact>
</mgrwt>
</event>
<event>
 8    1  0.9175398E-006  0.3358604E+03  0.7546771E-02  0.1068573E+00
         21   -1    0    0  504  503  0.00000000000E+00  0.00000000000E+00  0.12881070210E+03  0.12881070210E+03  0.00000000000E+00 0.  1.
         21   -1    0    0  503  504 -0.00000000000E+00 -0.00000000000E+00 -0.21893021819E+03  0.21893021819E+03  0.00000000000E+00 0.  1.
         25    2    1    2    0    0  0.35069848716E+02  0.84172535536E+02  0.22531812327E+02  0.15635748493E+03  0.12500028200E+03 0.  0.
         25    2    1    2    0    0 -0.35069848716E+02 -0.84172535536E+02 -0.11265132841E+03  0.19138343535E+03  0.12498954959E+03 0.  0.
          5    1    3    3  501    0  0.39219319227E+02  0.10496594738E+03  0.48769819611E+02  0.12229713984E+03  0.47000000000E+01 0. -1.
         -5    1    3    3    0  501 -0.41494705105E+01 -0.20793411839E+02 -0.26238007284E+02  0.34060345090E+02  0.47000000000E+01 0. -1.
          5    1    4    4  502    0 -0.19975378810E+02  0.21342196125E+02 -0.70862430774E+02  0.76798953047E+02  0.47000000000E+01 0.  1.
         -5    1    4    4    0  502 -0.15094469906E+02 -0.10551473166E+03 -0.41788897641E+02  0.11458448231E+03  0.47000000000E+01 0.  1.
<mgrwt>
<rscale>  0 0.33586042E+03</rscale>
<asrwt>0</asrwt>
<pdfrwt beam="1">  1       21 0.19817031E-01 0.33586042E+03</pdfrwt>
<pdfrwt beam="2">  1       21 0.33681572E-01 0.33586042E+03</pdfrwt>
<totfact> 0.19218301E+05</totfact>
</mgrwt>
</event>
<event>
 8    1  0.9175398E-006  0.3501440E+03  0.7546771E-02  0.1062556E+00
         21   -1    0    0  504  503  0.00000000000E+00  0.00000000000E+00  0.31576937253E+03  0.31576937253E+03  0.00000000000E+00 0.  1.
         21   -1    0    0  503  504 -0.00000000000E+00 -0.00000000000E+00 -0.97065180001E+02  0.97065180001E+02  0.00000000000E+00 0.  1.
         25    2    1    2    0    0  0.34585457409E+02  0.80079898822E+02  0.21089284217E+03  0.26021129249E+03  0.12500072721E+03 0.  0.
         25    2    1    2    0    0 -0.34585457409E+02 -0.80079898822E+02  0.78113503678E+01  0.15262326005E+03  0.12499559294E+03 0.  0.
          5    1    3    3  501    0  0.92991637828E+00  0.74116028972E+02  0.21306774124E+03  0.22564131459E+03  0.47000000000E+01 0. -1.
         -5    1    3    3    0  501  0.33655541031E+02  0.59638698500E+01 -0.21748990717E+01  0.34569977895E+02  0.47000000000E+01 0. -1.
          5    1    4    4  502    0 -0.65121206383E+02 -0.89304307921E+02 -0.17018776849E+02  0.11192747518E+03  0.47000000000E+01 0. -1.
         -5    1    4    4    0  502  0.30535748974E+02  0.92244090996E+01  0.24830127217E+02  0.40695784870E+02  0.47000000000E+01 0. -1.
<mgrwt>
<rscale>  0 0.35014403E+03</rscale>
<asrwt>0</asrwt>
<pdfrwt beam="1">  1       21 0.48579903E-01 0.35014403E+03</pdfrwt>
<pdfrwt beam="2">  1       21 0.14933105E-01 0.35014403E+03</pdfrwt>
<totfact> 0.15325099E+05</totfact>
</mgrwt>
</event>
<event>
 8    1  0.9175398E-006  0.3996284E+03  0.7546771E-02  0.1043908E+00
         21   -1    0    0  504  503  0.00000000000E+00  0.00000000000E+00  0.91868265031E+02  0.91868265031E+02  0.00000000000E+00 0.  1.
         21   -1    0    0  503  504 -0.00000000000E+00 -0.00000000000E+00 -0.43459744452E+03  0.43459744452E+03  0.00000000000E+00 0.  1.
         25    2    1    2    0    0 -0.17685227248E+01  0.12953658115E+03 -0.57156661454E+02  0.18888459954E+03  0.12501061742E+03 0.  0.
         25    2    1    2    0    0  0.17685227248E+01 -0.12953658115E+03 -0.28557251804E+03  0.33758111001E+03  0.12500595687E+03 0.  0.
          5    1    3    3  501    0  0.22217136933E+02  0.13489336252E+02 -0.64869542126E+02  0.70040779990E+02  0.47000000000E+01 0.  1.
         -5    1    3    3    0  501 -0.23985659658E+02  0.11604724489E+03  0.77128806717E+01  0.11884381955E+03  0.47000000000E+01 0.  1.
          5    1    4    4  502    0 -0.53535033838E+02 -0.10746697394E+03 -0.19696959822E+03  0.23072551432E+03  0.47000000000E+01 0.  1.
         -5    1    4    4    0  502  0.55303556563E+02 -0.22069607208E+02 -0.88602919820E+02  0.10685559570E+03  0.47000000000E+01 0.  1.
<mgrwt>
<rscale>  0 0.39962839E+03</rscale>
<asrwt>0</asrwt>
<pdfrwt beam="1">  1       21 0.14133579E-01 0.39962839E+03</pdfrwt>
<pdfrwt beam="2">  1       21 0.66861145E-01 0.39962839E+03</pdfrwt>
<totfact> 0.84057540E+04</totfact>
</mgrwt>
</event>
<event>
 8    1  0.9175398E-006  0.2676654E+03  0.7546771E-02  0.1102623E+00
         21   -1    0    0  504  503  0.00000000000E+00  0.00000000000E+00  0.98425712614E+03  0.98425712614E+03  0.00000000000E+00 0. -1.
         21   -1    0    0  503  504 -0.00000000000E+00 -0.00000000000E+00 -0.18197678324E+02  0.18197678324E+02  0.00000000000E+00 0. -1.
         25    2    1    2    0    0 -0.20023007859E+02 -0.60067031977E+01  0.64416905921E+03  0.65651504368E+03  0.12498489670E+03 0.  0.
         25    2    1    2    0    0  0.20023007859E+02  0.60067031977E+01  0.32189038860E+03  0.34593976078E+03  0.12499557788E+03 0.  0.
          5    1    3    3  501    0 -0.69878383482E+02  0.12817284746E+02  0.30849643148E+03  0.31660607938E+03  0.47000000000E+01 0.  1.
         -5    1    3    3    0  501  0.49855375623E+02 -0.18823987943E+02  0.33567262773E+03  0.33990896430E+03  0.47000000000E+01 0.  1.
          5    1    4    4  502    0  0.51827258052E+01 -0.35471387851E+02  0.21011997186E+02  0.41817149934E+02  0.47000000000E+01 0. -1.
         -5    1    4    4    0  502  0.14840282054E+02  0.41478091049E+02  0.30087839142E+03  0.30412261085E+03  0.47000000000E+01 0. -1.
<mgrwt>
<rscale>  0 0.26766542E+03</rscale>
<asrwt>0</asrwt>
<pdfrwt beam="1">  1       21 0.15142413E+00 0.26766542E+03</pdfrwt>
<pdfrwt beam="2">  1       21 0.27996436E-02 0.26766542E+03</pdfrwt>
<totfact> 0.20111823E+05</totfact>
</mgrwt>
</event>
<event>
 8    1  0.9175398E-006  0.2629011E+03  0.7546771E-02  0.1105413E+00
         21   -1    0    0  504  503  0.00000000000E+00  0.00000000000E+00  0.71547172979E+02  0.71547172979E+02  0.00000000000E+00 0. -1.
         21   -1    0    0  503  504 -0.00000000000E+00 -0.00000000000E+00 -0.24150851954E+03  0.24150851954E+03  0.00000000000E+00 0. -1.
         25    2    1    2    0    0  0.21473464934E+02  0.49398139511E+01 -0.12568669140E+03  0.17862549911E+03  0.12499765230E+03 0.  0.
         25    2    1    2    0    0 -0.21473464934E+02 -0.49398139511E+01 -0.44274655163E+02  0.13443019341E+03  0.12500288137E+03 0.  0.
          5    1    3    3  501    0  0.47757071581E+02 -0.34763625618E+02 -0.11534264798E+03  0.12967368274E+03  0.47000000000E+01 0. -1.
         -5    1    3    3    0  501 -0.26283606647E+02  0.39703439569E+02 -0.10344043418E+02  0.48951816373E+02  0.47000000000E+01 0. -1.
          5    1    4    4  502    0  0.37067042821E+02 -0.31605047001E+02  0.10218022983E+02  0.49993426099E+02  0.47000000000E+01 0. -1.
         -5    1    4    4    0  502 -0.58540507755E+02  0.26665233050E+02 -0.54492678146E+02  0.84436767307E+02  0.47000000000E+01 0. -1.
<mgrwt>
<rscale>  0 0.26290114E+03</rscale>
<asrwt>0</asrwt>
<pdfrwt beam="1">  1       21 0.11007258E-01 0.26290114E+03</pdfrwt>
<pdfrwt beam="2">  1       21 0.37155156E-01 0.26290114E+03</pdfrwt>
<totfact> 0.47152872E+05</totfact>
</mgrwt>
</event>
<event>
 8    1  0.9175398E-006  0.3262008E+03  0.7546771E-02  0.1072830E+00
         21   -1    0    0  504  503  0.00000000000E+00  0.00000000000E+00  0.98264958062E+02  0.98264958062E+02  0.00000000000E+00 0.  1.
         21   -1    0    0  503  504 -0.00000000000E+00 -0.00000000000E+00 -0.27071439184E+03  0.27071439184E+03  0.00000000000E+00 0.  1.
         25    2    1    2    0    0 -0.20537578238E+02 -0.82189690463E+02 -0.16511026795E+02  0.15190718118E+03  0.12500496130E+03 0.  0.
         25    2    1    2    0    0  0.20537578238E+02  0.82189690463E+02 -0.15593840698E+03  0.21707216873E+03  0.12500640913E+03 0.  0.
          5    1    3    3  501    0 -0.19147131184E+02 -0.78708638502E+02 -0.64431758688E+02  0.10361082924E+03  0.47000000000E+01 0. -1.
         -5    1    3    3    0  501 -0.13904470539E+01 -0.34810519615E+01  0.47920731893E+02  0.48296351942E+02  0.47000000000E+01 0. -1.
          5    1    4    4  502    0 -0.17995602650E+02 -0.67984659512E+01 -0.10611633509E+03  0.10794826273E+03  0.47000000000E+01 0. -1.
         -5    1    4    4    0  502  0.38533180888E+02  0.88988156414E+02 -0.49822071895E+02  0.10912390599E+03  0.47000000000E+01 0. -1.
<mgrwt>
<rscale>  0 0.32620079E+03</rscale>
<asrwt>0</asrwt>
<pdfrwt beam="1">  1       21 0.15117686E-01 0.32620079E+03</pdfrwt>
<pdfrwt beam="2">  1       21 0.41648368E-01 0.32620079E+03</pdfrwt>
<totfact> 0.20744164E+05</totfact>
</mgrwt>
</event>
<event>
 8    1  0.9175398E-006  0.2909626E+03  0.7546771E-02  0.1089848E+00
         21   -1    0    0  504  503  0.00000000000E+00  0.00000000000E+00  0.19924165753E+03  0.19924165753E+03  0.00000000000E+00 0. -1.
         21   -1    0    0  503  504 -0.00000000000E+00 -0.00000000000E+00 -0.10622683751E+03  0.10622683751E+03  0.00000000000E+00 0. -1.
         25    2    1    2    0    0 -0.17810304148E+02  0.22978604287E+02 -0.25455073641E+02  0.13083706946E+03  0.12500061912E+03 0.  0.
         25    2    1    2    0    0  0.17810304148E+02 -0.22978604287E+02  0.11846989367E+03  0.17463142558E+03  0.12496317820E+03 0.  0.
          5    1    3    3  501    0 -0.52192478502E+02 -0.31459041788E+02 -0.25634381233E+02  0.66279239763E+02  0.47000000000E+01 0.  1.
         -5    1    3    3    0  501  0.34382174354E+02  0.54437646075E+02  0.17930759258E+00  0.64557829693E+02  0.47000000000E+01 0.  1.
          5    1    4    4  502    0  0.19498729408E+02 -0.23643043935E+02  0.14466810548E+03  0.14795318421E+03  0.47000000000E+01 0.  1.
         -5    1    4    4    0  502 -0.16884252596E+01  0.66443964832E+00 -0.26198211818E+02  0.26678241366E+02  0.47000000000E+01 0.  1.
<mgrwt>
<rscale>  0 0.29096262E+03</rscale>
<asrwt>0</asrwt>
<pdfrwt beam="1">  1       21 0.30652563E-01 0.29096262E+03</pdfrwt>
<pdfrwt beam="2">  1       21 0.16342590E-01 0.29096262E+03</pdfrwt>
<totfact> 0.33529736E+05</totfact>
</mgrwt>
</event>
<event>
 8    1  0.9175398E-006  0.2861195E+03  0.7546771E-02  0.1092393E+00
         21   -1    0    0  504  503  0.00000000000E+00  0.00000000000E+00  0.10474890970E+04  0.10474890970E+04  0.00000000000E+00 0.  1.
         21   -1    0    0  503  504 -0.00000000000E+00 -0.00000000000E+00 -0.19538236696E+02  0.19538236696E+02  0.00000000000E+00 0.  1.
         25    2    1    2    0    0  0.35306296682E+02 -0.55888023868E+02  0.43285668876E+03  0.45536720371E+03  0.12499748563E+03 0.  0.
         25    2    1    2    0    0 -0.35306296682E+02  0.55888023868E+02  0.59509417155E+03  0.61166012999E+03  0.12498414224E+03 0.  0.
          5    1    3    3  501    0  0.50154290583E+02  0.25440361379E+02  0.13771592234E+03  0.14883020566E+03  0.47000000000E+01 0.  1.
         -5    1    3    3    0  501 -0.14847993901E+02 -0.81328385247E+02  0.29514076643E+03  0.30653699806E+03  0.47000000000E+01 0.  1.
          5    1    4    4  502    0 -0.79895957856E+02  0.21580063958E+02  0.40323439637E+03  0.41166628677E+03  0.47000000000E+01 0.  1.
         -5    1    4    4    0  502  0.44589661174E+02  0.34307959910E+02  0.19185977517E+03  0.19999384322E+03  0.47000000000E+01 0.  1.
<mgrwt>
<rscale>  0 0.28611948E+03</rscale>
<asrwt>0</asrwt>
<pdfrwt beam="1">  1       21 0.16115212E+00 0.28611948E+03</pdfrwt>
<pdfrwt beam="2">  1       21 0.30058834E-02 0.28611948E+03</pdfrwt>
<totfact> 0.15001050E+05</totfact>
</mgrwt>
</event>
<event>
 8    1  0.9175398E-006  0.3150298E+03  0.7546771E-02  0.1077960E+00
         21   -1    0    0  504  503  0.00000000000E+00  0.00000000000E+00  0.11906488357E+03  0.11906488357E+03  0.00000000000E+00 0.  1.
         21   -1    0    0  503  504 -0.00000000000E+00 -0.00000000000E+00 -0.20838165822E+03  0.20838165822E+03  0.00000000000E+00 0.  1.
         25    2    1    2    0    0  0.79634153171E+02 -0.52474002048E+02 -0.34720967017E+02  0.16101504235E+03  0.12500071628E+03 0.  0.
         25    2    1    2    0    0 -0.79634153171E+02  0.52474002048E+02 -0.54595807634E+02  0.16643149943E+03  0.12499449008E+03 0.  0.
          5    1    3    3  501    0  0.30568973377E+02 -0.87635177172E+02 -0.37951314230E+02  0.10038315926E+03  0.47000000000E+01 0. -1.
         -5    1    3    3    0  501  0.49065179794E+02  0.35161175124E+02  0.32303472132E+01  0.60631883093E+02  0.47000000000E+01 0. -1.
          5    1    4    4  502    0 -0.10084665069E+03  0.11881211978E+02 -0.63052146008E+02  0.11961970268E+03  0.47000000000E+01 0. -1.
         -5    1    4    4    0  502  0.21212497515E+02  0.40592790070E+02  0.84563383738E+01  0.46811796752E+02  0.47000000000E+01 0. -1.
<mgrwt>
<rscale>  0 0.31502976E+03</rscale>
<asrwt>0</asrwt>
<pdfrwt beam="1">  1       21 0.18317675E-01 0.31502976E+03</pdfrwt>
<pdfrwt beam="2">  1       21 0.32058716E-01 0.31502976E+03</pdfrwt>
<totfact> 0.24693592E+05</totfact>
</mgrwt>
</event>
<event>
 8    1  0.9175398E-006  0.2711428E+03  0.7546771E-02  0.1100627E+00
         21   -1    0    0  504  503  0.00000000000E+00  0.00000000000E+00  0.12897514212E+03  0.12897514212E+03  0.00000000000E+00 0.  1.
         21   -1    0    0  503  504 -0.00000000000E+00 -0.00000000000E+00 -0.14250506678E+03  0.14250506678E+03  0.00000000000E+00 0.  1.
         25    2    1    2    0    0  0.41825335795E+02 -0.23527884457E+02  0.14513283741E+02  0.13467800730E+03  0.12499844073E+03 0.  0.
         25    2    1    2    0    0 -0.41825335795E+02  0.23527884457E+02 -0.28043208406E+02  0.13680220159E+03  0.12500200303E+03 0.  0.
          5    1    3    3  501    0  0.73500770001E+02 -0.29496451902E+02 -0.25265817225E+02  0.83263769946E+02  0.47000000000E+01 0.  1.
         -5    1    3    3    0  501 -0.31675434205E+02  0.59685674449E+01  0.39779100966E+02  0.51414237358E+02  0.47000000000E+01 0.  1.
          5    1    4    4  502    0 -0.64653709700E+02 -0.10791630170E+02  0.24253302118E+02  0.70049083672E+02  0.47000000000E+01 0. -1.
         -5    1    4    4    0  502  0.22828373904E+02  0.34319514627E+02 -0.52296510524E+02  0.66753117922E+02  0.47000000000E+01 0. -1.
<mgrwt>
<rscale>  0 0.27114285E+03</rscale>
<asrwt>0</asrwt>
<pdfrwt beam="1">  1       21 0.19842330E-01 0.27114285E+03</pdfrwt>
<pdfrwt beam="2">  1       21 0.21923856E-01 0.27114285E+03</pdfrwt>
<totfact> 0.44809247E+05</totfact>
</mgrwt>
</event>
<event>
 8    1  0.9175398E-006  0.2699310E+03  0.7546771E-02  0.1101319E+00
         21   -1    0    0  504  503  0.00000000000E+00  0.00000000000E+00  0.56691424368E+02  0.56691424368E+02  0.00000000000E+00 0. -1.
         21   -1    0    0  503  504 -0.00000000000E+00 -0.00000000000E+00 -0.32131297949E+03  0.32131297949E+03  0.00000000000E+00 0. -1.
         25    2    1    2    0    0  0.20531840311E+02 -0.14174371804E+02 -0.19443451676E+03  0.23249307289E+03  0.12500311337E+03 0.  0.
         25    2    1    2    0    0 -0.20531840311E+02  0.14174371804E+02 -0.70187038366E+02  0.14551133097E+03  0.12499943121E+03 0.  0.
          5    1    3    3  501    0 -0.33097997084E+02 -0.49416504622E+02 -0.66853520598E+02  0.89604417059E+02  0.47000000000E+01 0.  1.
         -5    1    3    3    0  501  0.53629837396E+02  0.35242132818E+02 -0.12758099616E+03  0.14288865583E+03  0.47000000000E+01 0.  1.
          5    1    4    4  502    0  0.30819543283E+02 -0.65493214071E+00 -0.84423945274E+02  0.89998698435E+02  0.47000000000E+01 0. -1.
         -5    1    4    4    0  502 -0.51351383595E+02  0.14829303945E+02  0.14236906908E+02  0.55512632534E+02  0.47000000000E+01 0. -1.
<mgrwt>
<rscale>  0 0.26993103E+03</rscale>
<asrwt>0</asrwt>
<pdfrwt beam="1">  1       21 0.87217575E-02 0.26993103E+03</pdfrwt>
<pdfrwt beam="2">  1       21 0.49432767E-01 0.26993103E+03</pdfrwt>
<totfact> 0.39593226E+05</totfact>
</mgrwt>
</event>
<event>
 8    1  0.9175398E-006  0.3783795E+03  0.7546771E-02  0.1051534E+00
         21   -1    0    0  504  503  0.00000000000E+00  0.00000000000E+00  0.14636057813E+04  0.14636057813E+04  0.00000000000E+00 0.  1.
         21   -1    0    0  503  504 -0.00000000000E+00 -0.00000000000E+00 -0.24455196867E+02  0.24455196867E+02  0.00000000000E+00 0.  1.
         25    2    1    2    0    0 -0.27607804401E+02  0.11522324099E+03  0.10274889270E+04  0.10418225596E+04  0.12498865686E+03 0.  0.
         25    2    1    2    0    0  0.27607804401E+02 -0.11522324099E+03  0.41166165737E+03  0.44623841856E+03  0.12499927967E+03 0.  0.
          5    1    3    3  501    0 -0.13361071199E+02  0.12213636244E+03  0.10111173372E+04  0.10185657410E+04  0.47000000000E+01 0. -1.
         -5    1    3    3    0  501 -0.14246733202E+02 -0.69131214500E+01  0.16371589881E+02  0.23256818577E+02  0.47000000000E+01 0. -1.
          5    1    4    4  502    0  0.47051086594E+02 -0.85967411979E+02  0.39513507853E+03  0.40713391035E+03  0.47000000000E+01 0.  1.
         -5    1    4    4    0  502 -0.19443282194E+02 -0.29255829016E+02  0.16526578839E+02  0.39104508206E+02  0.47000000000E+01 0.  1.
<mgrwt>
<rscale>  0 0.37837953E+03</rscale>
<asrwt>0</asrwt>
<pdfrwt beam="1">  1       21 0.22517005E+00 0.37837953E+03</pdfrwt>
<pdfrwt beam="2">  1       21 0.37623391E-02 0.37837953E+03</pdfrwt>
<totfact> 0.36794094E+04</totfact>
</mgrwt>
</event>
<event>
 8    1  0.9175398E-006  0.3209843E+03  0.7546771E-02  0.1075197E+00
         21   -1    0    0  504  503  0.00000000000E+00  0.00000000000E+00  0.24967448087E+03  0.24967448087E+03  0.00000000000E+00 0.  1.
         21   -1    0    0  503  504 -0.00000000000E+00 -0.00000000000E+00 -0.10316525661E+03  0.10316525661E+03  0.00000000000E+00 0.  1.
         25    2    1    2    0    0  0.34921412037E+02  0.32632223443E+01 -0.30461914187E+02  0.13335060261E+03  0.12499720542E+03 0.  0.
         25    2    1    2    0    0 -0.34921412037E+02 -0.32632223443E+01  0.17697113845E+03  0.21948913487E+03  0.12500617123E+03 0.  0.
          5    1    3    3  501    0  0.54021400347E+01  0.59774304654E+02  0.47080831356E+01  0.60385483857E+02  0.47000000000E+01 0. -1.
         -5    1    3    3    0  501  0.29519272002E+02 -0.56511082310E+02 -0.35169997323E+02  0.72965118756E+02  0.47000000000E+01 0. -1.
          5    1    4    4  502    0 -0.58206825017E+02 -0.48919574382E+02  0.12473906619E+03  0.14616115719E+03  0.47000000000E+01 0.  1.
         -5    1    4    4    0  502  0.23285412980E+02  0.45656352038E+02  0.52232072254E+02  0.73327977682E+02  0.47000000000E+01 0.  1.
<mgrwt>
<rscale>  0 0.32098431E+03</rscale>
<asrwt>0</asrwt>
<pdfrwt beam="1">  1       21 0.38411459E-01 0.32098431E+03</pdfrwt>
<pdfrwt beam="2">  1       21 0.15871578E-01 0.32098431E+03</pdfrwt>
<totfact> 0.22396534E+05</totfact>
</mgrwt>
</event>
<event>
 8    1  0.9175398E-006  0.2633387E+03  0.7546771E-02  0.1105154E+00
         21   -1    0    0  504  503  0.00000000000E+00  0.00000000000E+00  0.20450840078E+03  0.20450840078E+03  0.00000000000E+00 0. -1.
         21   -1    0    0  503  504 -0.00000000000E+00 -0.00000000000E+00 -0.84773138876E+02  0.84773138876E+02  0.00000000000E+00 0. -1.
         25    2    1    2    0    0 -0.26942539364E+02  0.93370932520E+00  0.94341908250E+02  0.15890911845E+03  0.12499976013E+03 0.  0.
         25    2    1    2    0    0  0.26942539364E+02 -0.93370932520E+00  0.25393353658E+02  0.13037242121E+03  0.12500149424E+03 0.  0.
          5    1    3    3  501    0 -0.26425376776E+01  0.60725201602E+02  0.60474417938E+02  0.85870707112E+02  0.47000000000E+01 0. -1.
         -5    1    3    3    0  501 -0.24300001686E+02 -0.59791492277E+02  0.33867490312E+02  0.73038411337E+02  0.47000000000E+01 0. -1.
          5    1    4    4  502    0  0.37494945745E+02 -0.55948410211E+02 -0.26190854189E+01  0.67565117997E+02  0.47000000000E+01 0.  1.
         -5    1    4    4    0  502 -0.10552406381E+02  0.55014700885E+02  0.28012439077E+02  0.62807303213E+02  0.47000000000E+01 0.  1.
<mgrwt>
<rscale>  0 0.26333871E+03</rscale>
<asrwt>0</asrwt>
<pdfrwt beam="1">  1       21 0.31462831E-01 0.26333871E+03</pdfrwt>
<pdfrwt beam="2">  1       21 0.13042021E-01 0.26333871E+03</pdfrwt>
<totfact> 0.48392063E+05</totfact>
</mgrwt>
</event>
<event>
 8    1  0.9175398E-006  0.4345977E+03  0.7546771E-02  0.1032417E+00
         21   -1    0    0  504  503  0.00000000000E+00  0.00000000000E+00  0.22785147407E+03  0.22785147407E+03  0.00000000000E+00 0.  1.
         21   -1    0    0  503  504 -0.00000000000E+00 -0.00000000000E+00 -0.20723494740E+03  0.20723494740E+03  0.00000000000E+00 0.  1.
         25    2    1    2    0    0  0.16201456808E+03 -0.40504262507E+01 -0.62764009037E+02  0.21407939894E+03  0.12500216797E+03 0.  0.
         25    2    1    2    0    0 -0.16201456808E+03  0.40504262507E+01  0.83380535713E+02  0.22100702253E+03  0.12500665602E+03 0.  0.
          5    1    3    3  501    0  0.14686732099E+03  0.91704613743E+00  0.22624111389E+01  0.14696278254E+03  0.47000000000E+01 0.  1.
         -5    1    3    3    0  501  0.15147247097E+02 -0.49674723881E+01 -0.65026420176E+02  0.67116616403E+02  0.47000000000E+01 0.  1.
          5    1    4    4  502    0 -0.96407165591E+02  0.47613247794E+02  0.19747252264E+01  0.10764456550E+03  0.47000000000E+01 0. -1.
         -5    1    4    4    0  502 -0.65607402491E+02 -0.43562821543E+02  0.81405810487E+02  0.11336245703E+03  0.47000000000E+01 0. -1.
<mgrwt>
<rscale>  0 0.43459769E+03</rscale>
<asrwt>0</asrwt>
<pdfrwt beam="1">  1       21 0.35054073E-01 0.43459769E+03</pdfrwt>
<pdfrwt beam="2">  1       21 0.31882300E-01 0.43459769E+03</pdfrwt>
<totfact> 0.69002809E+04</totfact>
</mgrwt>
</event>
<event>
 8    1  0.9175398E-006  0.3277842E+03  0.7546771E-02  0.1072122E+00
         21   -1    0    0  504  503  0.00000000000E+00  0.00000000000E+00  0.58069081516E+02  0.58069081516E+02  0.00000000000E+00 0.  1.
         21   -1    0    0  503  504 -0.00000000000E+00 -0.00000000000E+00 -0.46256328038E+03  0.46256328038E+03  0.00000000000E+00 0.  1.
         25    2    1    2    0    0  0.34896097067E+02  0.95663960850E+02 -0.24900028657E+03  0.29663931755E+03  0.12499764402E+03 0.  0.
         25    2    1    2    0    0 -0.34896097067E+02 -0.95663960850E+02 -0.15549391230E+03  0.22399304435E+03  0.12500078463E+03 0.  0.
          5    1    3    3  501    0  0.27426001602E+02  0.12481119748E+03 -0.17607861205E+03  0.21761385112E+03  0.47000000000E+01 0.  1.
         -5    1    3    3    0  501  0.74700954654E+01 -0.29147236631E+02 -0.72921674519E+02  0.79025466428E+02  0.47000000000E+01 0.  1.
          5    1    4    4  502    0 -0.51085018657E+02  0.11019969554E+02 -0.40963793561E+02  0.66567569004E+02  0.47000000000E+01 0. -1.
         -5    1    4    4    0  502  0.16188921590E+02 -0.10668393040E+03 -0.11453011874E+03  0.15742547534E+03  0.47000000000E+01 0. -1.
<mgrwt>
<rscale>  0 0.32778423E+03</rscale>
<asrwt>0</asrwt>
<pdfrwt beam="1">  1       21 0.89337048E-02 0.32778423E+03</pdfrwt>
<pdfrwt beam="2">  1       21 0.71163582E-01 0.32778423E+03</pdfrwt>
<totfact> 0.17017867E+05</totfact>
</mgrwt>
</event>
<event>
 8    1  0.9175398E-006  0.3046910E+03  0.7546771E-02  0.1082919E+00
         21   -1    0    0  504  503  0.00000000000E+00  0.00000000000E+00  0.21356649545E+03  0.21356649545E+03  0.00000000000E+00 0. -1.
         21   -1    0    0  503  504 -0.00000000000E+00 -0.00000000000E+00 -0.10867409233E+03  0.10867409233E+03  0.00000000000E+00 0. -1.
         25    2    1    2    0    0  0.15834046661E+00 -0.87059606475E+02  0.54742789065E+02  0.16186619010E+03  0.12499796154E+03 0.  0.
         25    2    1    2    0    0 -0.15834046661E+00  0.87059606475E+02  0.50149614058E+02  0.16037439768E+03  0.12500225394E+03 0.  0.
          5    1    3    3  501    0  0.47481881396E+02 -0.92828917687E+02  0.39434678524E+02  0.11157473231E+03  0.47000000000E+01 0.  1.
         -5    1    3    3    0  501 -0.47323540929E+02  0.57693112115E+01  0.15308110541E+02  0.50291457786E+02  0.47000000000E+01 0.  1.
          5    1    4    4  502    0 -0.39168470681E+01  0.80385013749E+02 -0.25220447355E+02  0.84470427317E+02  0.47000000000E+01 0.  1.
         -5    1    4    4    0  502  0.37585066014E+01  0.66745927268E+01  0.75370061413E+02  0.75903970366E+02  0.47000000000E+01 0.  1.
<mgrwt>
<rscale>  0 0.30469096E+03</rscale>
<asrwt>0</asrwt>
<pdfrwt beam="1">  1       21 0.32856384E-01 0.30469096E+03</pdfrwt>
<pdfrwt beam="2">  1       21 0.16719091E-01 0.30469096E+03</pdfrwt>
<totfact> 0.27936868E+05</totfact>
</mgrwt>
</event>
<event>
 8    1  0.9175398E-006  0.3646068E+03  0.7546771E-02  0.1056775E+00
         21   -1    0    0  504  503  0.00000000000E+00  0.00000000000E+00  0.11437686112E+02  0.11437686112E+02  0.00000000000E+00 0.  1.
         21   -1    0    0  503  504 -0.00000000000E+00 -0.00000000000E+00 -0.29057038683E+04  0.29057038683E+04  0.00000000000E+00 0.  1.
         25    2    1    2    0    0  0.79486825500E+02  0.10082599732E+03 -0.11788031590E+04  0.11923453666E+04  0.12500619356E+03 0.  0.
         25    2    1    2    0    0 -0.79486825500E+02 -0.10082599732E+03 -0.17154630233E+04  0.17247961879E+04  0.12499787353E+03 0.  0.
          5    1    3    3  501    0  0.10259597812E+03  0.56784864186E+02 -0.99417830251E+03  0.10010809371E+04  0.47000000000E+01 0. -1.
         -5    1    3    3    0  501 -0.23109152624E+02  0.44041133137E+02 -0.18462485647E+03  0.19126442944E+03  0.47000000000E+01 0. -1.
          5    1    4    4  502    0 -0.87702413337E+02 -0.12467979487E+03 -0.13966607833E+04  0.14049627034E+04  0.47000000000E+01 0. -1.
         -5    1    4    4    0  502  0.82155878369E+01  0.23853797552E+02 -0.31880223999E+03  0.31983348443E+03  0.47000000000E+01 0. -1.
<mgrwt>
<rscale>  0 0.36460680E+03</rscale>
<asrwt>0</asrwt>
<pdfrwt beam="1">  1       21 0.17596434E-02 0.36460680E+03</pdfrwt>
<pdfrwt beam="2">  1       21 0.44703152E+00 0.36460680E+03</pdfrwt>
<totfact> 0.55821616E+03</totfact>
</mgrwt>
</event>
<event>
 8    1  0.9175398E-006  0.2907501E+03  0.7546771E-02  0.1089958E+00
         21   -1    0    0  504  503  0.00000000000E+00  0.00000000000E+00  0.73799488135E+02  0.73799488135E+02  0.00000000000E+00 0.  1.
         21   -1    0    0  503  504 -0.00000000000E+00 -0.00000000000E+00 -0.28636929336E+03  0.28636929336E+03  0.00000000000E+00 0.  1.
         25    2    1    2    0    0 -0.35730185977E+02  0.59833287380E+02 -0.13790462018E+03  0.19874623025E+03  0.12500284518E+03 0.  0.
         25    2    1    2    0    0  0.35730185977E+02 -0.59833287380E+02 -0.74665185039E+02  0.16142255124E+03  0.12500272686E+03 0.  0.
          5    1    3    3  501    0  0.24233303942E+02  0.31689153599E+02 -0.12473924722E+03  0.13104741612E+03  0.47000000000E+01 0. -1.
         -5    1    3    3    0  501 -0.59963489918E+02  0.28144133781E+02 -0.13165372963E+02  0.67698814131E+02  0.47000000000E+01 0. -1.
          5    1    4    4  502    0 -0.25960752664E+02 -0.69044778163E+02 -0.15916270024E+02  0.75607934253E+02  0.47000000000E+01 0. -1.
         -5    1    4    4    0  502  0.61690938641E+02  0.92114907834E+01 -0.58748915015E+02  0.85814616985E+02  0.47000000000E+01 0. -1.
<mgrwt>
<rscale>  0 0.29075011E+03</rscale>
<asrwt>0</asrwt>
<pdfrwt beam="1">  1       21 0.11353767E-01 0.29075011E+03</pdfrwt>
<pdfrwt beam="2">  1       21 0.44056815E-01 0.29075011E+03</pdfrwt>
<totfact> 0.31335293E+05</totfact>
</mgrwt>
</event>
<event>
 8    1  0.9175398E-006  0.3665305E+03  0.7546771E-02  0.1056028E+00
         21   -1    0    0  504  503  0.00000000000E+00  0.00000000000E+00  0.59272595187E+02  0.59272595187E+02  0.00000000000E+00 0. -1.
         21   -1    0    0  503  504 -0.00000000000E+00 -0.00000000000E+00 -0.56663872573E+03  0.56663872573E+03  0.00000000000E+00 0. -1.
         25    2    1    2    0    0  0.10597263607E+02 -0.12506740183E+03 -0.33390502638E+03  0.37798438232E+03  0.12500187855E+03 0.  0.
         25    2    1    2    0    0 -0.10597263607E+02  0.12506740183E+03 -0.17346110416E+03  0.24792693859E+03  0.12499942091E+03 0.  0.
          5    1    3    3  501    0  0.38881943763E+02 -0.13906583307E+03 -0.25908575279E+03  0.29664562828E+03  0.47000000000E+01 0.  1.
         -5    1    3    3    0  501 -0.28284680156E+02  0.13998431240E+02 -0.74819273591E+02  0.81338754043E+02  0.47000000000E+01 0.  1.
          5    1    4    4  502    0  0.51845271121E+02  0.27240329765E+02 -0.40411908977E+02  0.71310448677E+02  0.47000000000E+01 0.  1.
         -5    1    4    4    0  502 -0.62442534728E+02  0.97827072063E+02 -0.13304919518E+03  0.17661648992E+03  0.47000000000E+01 0.  1.
<mgrwt>
<rscale>  0 0.36653048E+03</rscale>
<asrwt>0</asrwt>
<pdfrwt beam="1">  1       21 0.91188607E-02 0.36653048E+03</pdfrwt>
<pdfrwt beam="2">  1       21 0.87175189E-01 0.36653048E+03</pdfrwt>
<totfact> 0.10219478E+05</totfact>
</mgrwt>
</event>
<event>
 8    1  0.9175398E-006  0.2818894E+03  0.7546771E-02  0.1094661E+00
         21   -1    0    0  504  503  0.00000000000E+00  0.00000000000E+00  0.28483996363E+02  0.28483996363E+02  0.00000000000E+00 0. -1.
         21   -1    0    0  503  504 -0.00000000000E+00 -0.00000000000E+00 -0.69742337307E+03  0.69742337307E+03  0.00000000000E+00 0. -1.
         25    2    1    2    0    0  0.49144499061E+02 -0.37114423223E+02 -0.38887648458E+03  0.41309053465E+03  0.12500482933E+03 0.  0.
         25    2    1    2    0    0 -0.49144499061E+02  0.37114423223E+02 -0.28006289212E+03  0.31281683478E+03  0.12500594538E+03 0.  0.
          5    1    3    3  501    0  0.40772649513E+01 -0.25544687361E+02 -0.35343760944E+03  0.35441414886E+03  0.47000000000E+01 0. -1.
         -5    1    3    3    0  501  0.45067234110E+02 -0.11569735862E+02 -0.35438875142E+02  0.58676385792E+02  0.47000000000E+01 0. -1.
          5    1    4    4  502    0  0.20966665653E+02  0.58852911584E+02 -0.16226816827E+03  0.17394342386E+03  0.47000000000E+01 0. -1.
         -5    1    4    4    0  502 -0.70111164714E+02 -0.21738488361E+02 -0.11779472384E+03  0.13887341092E+03  0.47000000000E+01 0. -1.
<mgrwt>
<rscale>  0 0.28188937E+03</rscale>
<asrwt>0</asrwt>
<pdfrwt beam="1">  1       21 0.43821533E-02 0.28188937E+03</pdfrwt>
<pdfrwt beam="2">  1       21 0.10729590E+00 0.28188937E+03</pdfrwt>
<totfact> 0.22691139E+05</totfact>
</mgrwt>
</event>
<event>
 8    1  0.9175398E-006  0.3612573E+03  0.7546771E-02  0.1058087E+00
         21   -1    0    0  504  503  0.00000000000E+00  0.00000000000E+00  0.23294321935E+03  0.23294321935E+03  0.00000000000E+00 0.  1.
         21   -1    0    0  503  504 -0.00000000000E+00 -0.00000000000E+00 -0.14006292388E+03  0.14006292388E+03  0.00000000000E+00 0.  1.
         25    2    1    2    0    0 -0.89648286622E+02 -0.94422614089E+02  0.39110706324E+02  0.18467738818E+03  0.12499457993E+03 0.  0.
         25    2    1    2    0    0  0.89648286622E+02  0.94422614089E+02  0.53769589145E+02  0.18832875505E+03  0.12499642361E+03 0.  0.
          5    1    3    3  501    0 -0.41750523883E+01 -0.53710983378E+02  0.66781258336E+02  0.85930944734E+02  0.47000000000E+01 0.  1.
         -5    1    3    3    0  501 -0.85473234234E+02 -0.40711630710E+02 -0.27670552012E+02  0.98746443450E+02  0.47000000000E+01 0.  1.
          5    1    4    4  502    0  0.67011545152E+02  0.72405163113E+02 -0.26231791322E+02  0.10219222918E+03  0.47000000000E+01 0. -1.
         -5    1    4    4    0  502  0.22636741470E+02  0.22017450975E+02  0.80001380466E+02  0.86136525867E+02  0.47000000000E+01 0. -1.
<mgrwt>
<rscale>  0 0.36125730E+03</rscale>
<asrwt>0</asrwt>
<pdfrwt beam="1">  1       21 0.35837418E-01 0.36125730E+03</pdfrwt>
<pdfrwt beam="2">  1       21 0.21548142E-01 0.36125730E+03</pdfrwt>
<totfact> 0.14394541E+05</totfact>
</mgrwt>
</event>
<event>
 8    1  0.9175398E-006  0.2563523E+03  0.7546771E-02  0.1109355E+00
         21   -1    0    0  504  503  0.00000000000E+00  0.00000000000E+00  0.22459736546E+03  0.22459736546E+03  0.00000000000E+00 0.  1.
         21   -1    0    0  503  504 -0.00000000000E+00 -0.00000000000E+00 -0.73149206599E+02  0.73149206599E+02  0.00000000000E+00 0.  1.
         25    2    1    2    0    0 -0.23602479001E+02 -0.15725785836E+02  0.75830184676E+02  0.14892723236E+03  0.12499890510E+03 0.  0.
         25    2    1    2    0    0  0.23602479001E+02  0.15725785836E+02  0.75617974181E+02  0.14881933969E+03  0.12499896196E+03 0.  0.
          5    1    3    3  501    0  0.32994717825E+02 -0.47092770061E+02  0.14138133929E+02  0.59399976662E+02  0.47000000000E+01 0.  1.
         -5    1    3    3    0  501 -0.56597196827E+02  0.31366984225E+02  0.61692050747E+02  0.89527255701E+02  0.47000000000E+01 0.  1.
          5    1    4    4  502    0 -0.25505115888E+02 -0.35704761883E+02  0.62259184860E+02  0.76312758153E+02  0.47000000000E+01 0.  1.
         -5    1    4    4    0  502  0.49107594889E+02  0.51430547719E+02  0.13358789322E+02  0.72506581540E+02  0.47000000000E+01 0.  1.
<mgrwt>
<rscale>  0 0.25635225E+03</rscale>
<asrwt>0</asrwt>
<pdfrwt beam="1">  1       21 0.34553441E-01 0.25635225E+03</pdfrwt>
<pdfrwt beam="2">  1       21 0.11253724E-01 0.25635225E+03</pdfrwt>
<totfact> 0.52479618E+05</totfact>
</mgrwt>
</event>
<event>
 8    1  0.9175398E-006  0.2999313E+03  0.7546771E-02  0.1085275E+00
         21   -1    0    0  504  503  0.00000000000E+00  0.00000000000E+00  0.91977039402E+03  0.91977039402E+03  0.00000000000E+00 0. -1.
         21   -1    0    0  503  504 -0.00000000000E+00 -0.00000000000E+00 -0.24451423462E+02  0.24451423462E+02  0.00000000000E+00 0. -1.
         25    2    1    2    0    0  0.55391635534E+02  0.80546678914E+01  0.25504414488E+03  0.28946634939E+03  0.12494054839E+03 0.  0.
         25    2    1    2    0    0 -0.55391635534E+02 -0.80546678914E+01  0.64027482567E+03  0.65475546809E+03  0.12497903678E+03 0.  0.
          5    1    3    3  501    0  0.12340755980E+02  0.19999662520E+02  0.24129976109E+03  0.24248700060E+03  0.47000000000E+01 0.  1.
         -5    1    3    3    0  501  0.43050879554E+02 -0.11944994629E+02  0.13744383790E+02  0.46979348791E+02  0.47000000000E+01 0.  1.
          5    1    4    4  502    0  0.24009508747E+02 -0.17230659688E+02  0.40745797562E+03  0.40855531332E+03  0.47000000000E+01 0.  1.
         -5    1    4    4    0  502 -0.79401144281E+02  0.91759917963E+01  0.23281685005E+03  0.24620015477E+03  0.47000000000E+01 0.  1.
<mgrwt>
<rscale>  0 0.29993129E+03</rscale>
<asrwt>0</asrwt>
<pdfrwt beam="1">  1       21 0.14150311E+00 0.29993129E+03</pdfrwt>
<pdfrwt beam="2">  1       21 0.37617582E-02 0.29993129E+03</pdfrwt>
<totfact> 0.14533860E+05</totfact>
</mgrwt>
</event>
<event>
 8    1  0.9175398E-006  0.2687356E+03  0.7546771E-02  0.1102005E+00
         21   -1    0    0  504  503  0.00000000000E+00  0.00000000000E+00  0.74084706078E+02  0.74084706078E+02  0.00000000000E+00 0. -1.
         21   -1    0    0  503  504 -0.00000000000E+00 -0.00000000000E+00 -0.24370358802E+03  0.24370358802E+03  0.00000000000E+00 0. -1.
         25    2    1    2    0    0  0.59398466296E+01 -0.57616563161E+01 -0.14226966299E+03  0.18956825799E+03  0.12500795562E+03 0.  0.
         25    2    1    2    0    0 -0.59398466296E+01  0.57616563161E+01 -0.27349218944E+02  0.12822003610E+03  0.12499567761E+03 0.  0.
          5    1    3    3  501    0 -0.31544661517E+02 -0.48875245436E+02 -0.35295809396E+02  0.68203661540E+02  0.47000000000E+01 0.  1.
         -5    1    3    3    0  501  0.37484508146E+02  0.43113589120E+02 -0.10697385360E+03  0.12136459645E+03  0.47000000000E+01 0.  1.
          5    1    4    4  502    0  0.39159385617E+01 -0.22969850683E+02  0.44289898610E+02  0.50265631739E+02  0.47000000000E+01 0. -1.
         -5    1    4    4    0  502 -0.98557851913E+01  0.28731507000E+02 -0.71639117554E+02  0.77954404366E+02  0.47000000000E+01 0. -1.
<mgrwt>
<rscale>  0 0.26873562E+03</rscale>
<asrwt>0</asrwt>
<pdfrwt beam="1">  1       21 0.11397647E-01 0.26873562E+03</pdfrwt>
<pdfrwt beam="2">  1       21 0.37492860E-01 0.26873562E+03</pdfrwt>
<totfact> 0.43449390E+05</totfact>
</mgrwt>
</event>
<event>
 8    1  0.9175398E-006  0.3998675E+03  0.7546771E-02  0.1043826E+00
         21   -1    0    0  504  503  0.00000000000E+00  0.00000000000E+00  0.18565028147E+03  0.18565028147E+03  0.00000000000E+00 0. -1.
         21   -1    0    0  503  504 -0.00000000000E+00 -0.00000000000E+00 -0.21531619597E+03  0.21531619597E+03  0.00000000000E+00 0. -1.
         25    2    1    2    0    0  0.11707555966E+03 -0.10014378162E+03  0.10018678677E+02  0.19865044833E+03  0.12500465205E+03 0.  0.
         25    2    1    2    0    0 -0.11707555966E+03  0.10014378162E+03 -0.39684593175E+02  0.20231602910E+03  0.12498577930E+03 0.  0.
          5    1    3    3  501    0  0.40733231906E+02 -0.11117961600E+03 -0.96980692751E+01  0.11889594503E+03  0.47000000000E+01 0.  1.
         -5    1    3    3    0  501  0.76342327758E+02  0.11035834388E+02  0.19716747952E+02  0.79754503308E+02  0.47000000000E+01 0.  1.
          5    1    4    4  502    0  0.11760767002E+01  0.16325669549E+02 -0.53970419798E+02  0.56593346392E+02  0.47000000000E+01 0.  1.
         -5    1    4    4    0  502 -0.11825163636E+03  0.83818112066E+02  0.14285826623E+02  0.14572268271E+03  0.47000000000E+01 0.  1.
<mgrwt>
<rscale>  0 0.39986754E+03</rscale>
<asrwt>0</asrwt>
<pdfrwt beam="1">  1       21 0.28561582E-01 0.39986754E+03</pdfrwt>
<pdfrwt beam="2">  1       21 0.33125569E-01 0.39986754E+03</pdfrwt>
<totfact> 0.96899460E+04</totfact>
</mgrwt>
</event>
<event>
 8    1  0.9175398E-006  0.2835187E+03  0.7546771E-02  0.1093782E+00
         21   -1    0    0  504  503  0.00000000000E+00  0.00000000000E+00  0.29117575782E+02  0.29117575782E+02  0.00000000000E+00 0.  1.
         21   -1    0    0  503  504 -0.00000000000E+00 -0.00000000000E+00 -0.69015765652E+03  0.69015765652E+03  0.00000000000E+00 0.  1.
         25    2    1    2    0    0 -0.86147292015E+01  0.55493736677E+02 -0.23868730355E+03  0.27522949050E+03  0.12500350073E+03 0.  0.
         25    2    1    2    0    0  0.86147292015E+01 -0.55493736677E+02 -0.42235277719E+03  0.44404574180E+03  0.12506391983E+03 0.  0.
          5    1    3    3  501    0 -0.11628837630E+02  0.77297456546E+02 -0.24022837712E+03  0.25266952690E+03  0.47000000000E+01 0.  1.
         -5    1    3    3    0  501  0.30141084288E+01 -0.21803719870E+02  0.15410735675E+01  0.22559963597E+02  0.47000000000E+01 0.  1.
          5    1    4    4  502    0 -0.58080844923E+02 -0.25785365104E+02 -0.20887736928E+03  0.21838066535E+03  0.47000000000E+01 0. -1.
         -5    1    4    4    0  502  0.66695574125E+02 -0.29708371573E+02 -0.21347540791E+03  0.22566507646E+03  0.47000000000E+01 0. -1.
<mgrwt>
<rscale>  0 0.28351873E+03</rscale>
<asrwt>0</asrwt>
<pdfrwt beam="1">  1       21 0.44796268E-02 0.28351873E+03</pdfrwt>
<pdfrwt beam="2">  1       21 0.10617811E+00 0.28351873E+03</pdfrwt>
<totfact> 0.22414074E+05</totfact>
</mgrwt>
</event>
<event>
 8    1  0.9175398E-006  0.5112820E+03  0.7546771E-02  0.1010875E+00
         21   -1    0    0  504  503  0.00000000000E+00  0.00000000000E+00  0.77702805666E+03  0.77702805666E+03  0.00000000000E+00 0.  1.
         21   -1    0    0  503  504 -0.00000000000E+00 -0.00000000000E+00 -0.84105487425E+02  0.84105487425E+02  0.00000000000E+00 0.  1.
         25    2    1    2    0    0  0.14009346370E+03 -0.17346001445E+03  0.35275299660E+03  0.43562680756E+03  0.12498593390E+03 0.  0.
         25    2    1    2    0    0 -0.14009346370E+03  0.17346001445E+03  0.34016957264E+03  0.42550673652E+03  0.12500435790E+03 0.  0.
          5    1    3    3  501    0 -0.31676279019E+01  0.15943293880E+02  0.14371417723E+02  0.22200228234E+02  0.47000000000E+01 0. -1.
         -5    1    3    3    0  501  0.14326109160E+03 -0.18940330833E+03  0.33838157888E+03  0.41342657933E+03  0.47000000000E+01 0. -1.
          5    1    4    4  502    0 -0.14245682439E+03  0.19042001368E+03  0.31715921669E+03  0.39644140445E+03  0.47000000000E+01 0. -1.
         -5    1    4    4    0  502  0.23633606896E+01 -0.16959999239E+02  0.23010355946E+02  0.29065332076E+02  0.47000000000E+01 0. -1.
<mgrwt>
<rscale>  0 0.51128201E+03</rscale>
<asrwt>0</asrwt>
<pdfrwt beam="1">  1       21 0.11954277E+00 0.51128201E+03</pdfrwt>
<pdfrwt beam="2">  1       21 0.12939306E-01 0.51128201E+03</pdfrwt>
<totfact> 0.24289842E+04</totfact>
</mgrwt>
</event>
<event>
 8    1  0.9175398E-006  0.2979490E+03  0.7546771E-02  0.1086270E+00
         21   -1    0    0  504  503  0.00000000000E+00  0.00000000000E+00  0.73993946927E+02  0.73993946927E+02  0.00000000000E+00 0. -1.
         21   -1    0    0  503  504 -0.00000000000E+00 -0.00000000000E+00 -0.29993539661E+03  0.29993539661E+03  0.00000000000E+00 0. -1.
         25    2    1    2    0    0 -0.76501205335E+02 -0.13055675426E+02 -0.14227258214E+03  0.20466932028E+03  0.12500063182E+03 0.  0.
         25    2    1    2    0    0  0.76501205335E+02  0.13055675426E+02 -0.83668867548E+02  0.16926002326E+03  0.12500236398E+03 0.  0.
          5    1    3    3  501    0 -0.10787185317E+03 -0.17785460552E+02 -0.13095980351E+03  0.17066112460E+03  0.47000000000E+01 0.  1.
         -5    1    3    3    0  501  0.31370647837E+02  0.47297851263E+01 -0.11312778630E+02  0.34008195680E+02  0.47000000000E+01 0.  1.
          5    1    4    4  502    0 -0.28866286865E+02 -0.19794953756E+02 -0.30491107429E+02  0.46657264641E+02  0.47000000000E+01 0.  1.
         -5    1    4    4    0  502  0.10536749220E+03  0.32850629182E+02 -0.53177760120E+02  0.12260275862E+03  0.47000000000E+01 0.  1.
<mgrwt>
<rscale>  0 0.29794901E+03</rscale>
<asrwt>0</asrwt>
<pdfrwt beam="1">  1       21 0.11383684E-01 0.29794901E+03</pdfrwt>
<pdfrwt beam="2">  1       21 0.46143906E-01 0.29794901E+03</pdfrwt>
<totfact> 0.28290009E+05</totfact>
</mgrwt>
</event>
<event>
 8    1  0.9175398E-006  0.7590999E+03  0.7546771E-02  0.9621181E-01
         21   -1    0    0  504  503  0.00000000000E+00  0.00000000000E+00  0.88023443498E+03  0.88023443498E+03  0.00000000000E+00 0.  1.
         21   -1    0    0  503  504 -0.00000000000E+00 -0.00000000000E+00 -0.16365885202E+03  0.16365885202E+03  0.00000000000E+00 0.  1.
         25    2    1    2    0    0  0.61669171241E+02  0.82434387570E+02 -0.11376686636E+03  0.19790782648E+03  0.12500437179E+03 0.  0.
         25    2    1    2    0    0 -0.61669171241E+02 -0.82434387570E+02  0.83034244933E+03  0.84598546052E+03  0.12499720524E+03 0.  0.
          5    1    3    3  501    0  0.77739717663E+02  0.76585568883E+01 -0.28542547383E+02  0.83299965229E+02  0.47000000000E+01 0.  1.
         -5    1    3    3    0  501 -0.16070546423E+02  0.74775830682E+02 -0.85224318975E+02  0.11460786125E+03  0.47000000000E+01 0.  1.
          5    1    4    4  502    0  0.35095365233E+00  0.90821335400E+01  0.21778836603E+01  0.10461428934E+02  0.47000000000E+01 0. -1.
         -5    1    4    4    0  502 -0.62020124893E+02 -0.91516521110E+02  0.82816456566E+03  0.83552403158E+03  0.47000000000E+01 0. -1.
<mgrwt>
<rscale>  0 0.75909988E+03</rscale>
<asrwt>0</asrwt>
<pdfrwt beam="1">  1       21 0.13542068E+00 0.75909988E+03</pdfrwt>
<pdfrwt beam="2">  1       21 0.25178286E-01 0.75909988E+03</pdfrwt>
<totfact> 0.46974300E+03</totfact>
</mgrwt>
</event>
<event>
 8    1  0.9175398E-006  0.3342304E+03  0.7546771E-02  0.1069280E+00
         21   -1    0    0  504  503  0.00000000000E+00  0.00000000000E+00  0.15639123838E+03  0.15639123838E+03  0.00000000000E+00 0.  1.
         21   -1    0    0  503  504 -0.00000000000E+00 -0.00000000000E+00 -0.17857451643E+03  0.17857451643E+03  0.00000000000E+00 0.  1.
         25    2    1    2    0    0  0.81862483727E+02 -0.42121836401E+02  0.50913335179E+02  0.16337654327E+03  0.12499604734E+03 0.  0.
         25    2    1    2    0    0 -0.81862483727E+02  0.42121836401E+02 -0.73096613229E+02  0.17158921154E+03  0.12499610918E+03 0.  0.
          5    1    3    3  501    0 -0.32111777331E+02 -0.13438394944E+02 -0.20464038355E+00  0.35126750202E+02  0.47000000000E+01 0. -1.
         -5    1    3    3    0  501  0.11397426106E+03 -0.28683441458E+02  0.51117975562E+02  0.12824979307E+03  0.47000000000E+01 0. -1.
          5    1    4    4  502    0 -0.66744514172E+02  0.52050546918E+02 -0.10479681593E+03  0.13479077207E+03  0.47000000000E+01 0. -1.
         -5    1    4    4    0  502 -0.15117969555E+02 -0.99287105167E+01  0.31700202704E+02  0.36798439470E+02  0.47000000000E+01 0. -1.
<mgrwt>
<rscale>  0 0.33423040E+03</rscale>
<asrwt>0</asrwt>
<pdfrwt beam="1">  1       21 0.24060191E-01 0.33423040E+03</pdfrwt>
<pdfrwt beam="2">  1       21 0.27473002E-01 0.33423040E+03</pdfrwt>
<totfact> 0.19865885E+05</totfact>
</mgrwt>
</event>
<event>
 8    1  0.9175398E-006  0.3584575E+03  0.7546771E-02  0.1059196E+00
         21   -1    0    0  504  503  0.00000000000E+00  0.00000000000E+00  0.42293586822E+03  0.42293586822E+03  0.00000000000E+00 0. -1.
         21   -1    0    0  503  504 -0.00000000000E+00 -0.00000000000E+00 -0.75952290182E+02  0.75952290182E+02  0.00000000000E+00 0. -1.
         25    2    1    2    0    0 -0.26960201296E+02  0.53985598820E+02  0.15686615676E+02  0.13968835767E+03  0.12500188008E+03 0.  0.
         25    2    1    2    0    0  0.26960201296E+02 -0.53985598820E+02  0.33129696236E+03  0.35919980073E+03  0.12500208895E+03 0.  0.
          5    1    3    3  501    0 -0.48537038246E+02 -0.25693986195E+02 -0.19157974568E+01  0.55152382434E+02  0.47000000000E+01 0. -1.
         -5    1    3    3    0  501  0.21576836950E+02  0.79679585015E+02  0.17602413133E+02  0.84535975236E+02  0.47000000000E+01 0. -1.
          5    1    4    4  502    0 -0.15938938308E+01 -0.62211944616E+02  0.32158688573E+03  0.32758675435E+03  0.47000000000E+01 0. -1.
         -5    1    4    4    0  502  0.28554095127E+02  0.82263457967E+01  0.97100766348E+01  0.31613046388E+02  0.47000000000E+01 0. -1.
<mgrwt>
<rscale>  0 0.35845752E+03</rscale>
<asrwt>0</asrwt>
<pdfrwt beam="1">  1       21 0.65067056E-01 0.35845752E+03</pdfrwt>
<pdfrwt beam="2">  1       21 0.11684968E-01 0.35845752E+03</pdfrwt>
<totfact> 0.12752506E+05</totfact>
</mgrwt>
</event>
<event>
 8    1  0.9175398E-006  0.3348342E+03  0.7546771E-02  0.1069018E+00
         21   -1    0    0  504  503  0.00000000000E+00  0.00000000000E+00  0.68533601824E+02  0.68533601824E+02  0.00000000000E+00 0.  1.
         21   -1    0    0  503  504 -0.00000000000E+00 -0.00000000000E+00 -0.40897424056E+03  0.40897424056E+03  0.00000000000E+00 0.  1.
         25    2    1    2    0    0 -0.79602407200E+02 -0.25098802109E+02 -0.27538783228E+03  0.31373153217E+03  0.12499009163E+03 0.  0.
         25    2    1    2    0    0  0.79602407200E+02  0.25098802109E+02 -0.65052806451E+02  0.16377631022E+03  0.12499727622E+03 0.  0.
          5    1    3    3  501    0  0.26280175262E+02 -0.16361811400E+02 -0.12928622498E+03  0.13302396195E+03  0.47000000000E+01 0.  1.
         -5    1    3    3    0  501 -0.10588258246E+03 -0.87369907095E+01 -0.14610160730E+03  0.18070757021E+03  0.47000000000E+01 0.  1.
          5    1    4    4  502    0  0.81029701160E+02 -0.10589403897E+02  0.80805984950E+01  0.82251650542E+02  0.47000000000E+01 0. -1.
         -5    1    4    4    0  502 -0.14272939591E+01  0.35688206006E+02 -0.73133404946E+02  0.81524659674E+02  0.47000000000E+01 0. -1.
<mgrwt>
<rscale>  0 0.33483415E+03</rscale>
<asrwt>0</asrwt>
<pdfrwt beam="1">  1       21 0.10543631E-01 0.33483415E+03</pdfrwt>
<pdfrwt beam="2">  1       21 0.62919114E-01 0.33483415E+03</pdfrwt>
<totfact> 0.16611935E+05</totfact>
</mgrwt>
</event>
<event>
 8    1  0.9175398E-006  0.3134541E+03  0.7546771E-02  0.1078702E+00
         21   -1    0    0  504  503  0.00000000000E+00  0.00000000000E+00  0.38876689830E+02  0.38876689830E+02  0.00000000000E+00 0.  1.
         21   -1    0    0  503  504 -0.00000000000E+00 -0.00000000000E+00 -0.63182784964E+03  0.63182784964E+03  0.00000000000E+00 0.  1.
         25    2    1    2    0    0 -0.34425126334E+02 -0.87896267175E+02 -0.30827233977E+03  0.34578566527E+03  0.12500019092E+03 0.  0.
         25    2    1    2    0    0  0.34425126334E+02  0.87896267175E+02 -0.28467882004E+03  0.32491887420E+03  0.12497760250E+03 0.  0.
          5    1    3    3  501    0 -0.80173999399E+02 -0.40775002565E+02 -0.16144455233E+03  0.18486996644E+03  0.47000000000E+01 0. -1.
         -5    1    3    3    0  501  0.45748873065E+02 -0.47121264609E+02 -0.14682778744E+03  0.16091569883E+03  0.47000000000E+01 0. -1.
          5    1    4    4  502    0  0.26334545968E+02  0.18725987669E+02 -0.88328817373E+00  0.32665595410E+02  0.47000000000E+01 0.  1.
         -5    1    4    4    0  502  0.80905803662E+01  0.69170279506E+02 -0.28379553187E+03  0.29225327879E+03  0.47000000000E+01 0.  1.
<mgrwt>
<rscale>  0 0.31345415E+03</rscale>
<asrwt>0</asrwt>
<pdfrwt beam="1">  1       21 0.59810299E-02 0.31345415E+03</pdfrwt>
<pdfrwt beam="2">  1       21 0.97204273E-01 0.31345415E+03</pdfrwt>
<totfact> 0.16771255E+05</totfact>
</mgrwt>
</event>
<event>
 8    1  0.9175398E-006  0.2799404E+03  0.7546771E-02  0.1095721E+00
         21   -1    0    0  504  503  0.00000000000E+00  0.00000000000E+00  0.35982695801E+02  0.35982695801E+02  0.00000000000E+00 0. -1.
         21   -1    0    0  503  504 -0.00000000000E+00 -0.00000000000E+00 -0.54447453064E+03  0.54447453064E+03  0.00000000000E+00 0. -1.
         25    2    1    2    0    0 -0.40986965410E+02  0.11554164956E+02 -0.15799720935E+03  0.20590954988E+03  0.12498877753E+03 0.  0.
         25    2    1    2    0    0  0.40986965410E+02 -0.11554164956E+02 -0.35049462549E+03  0.37454767656E+03  0.12500419777E+03 0.  0.
          5    1    3    3  501    0  0.34223373302E+02  0.10899382396E+02 -0.11178817708E+03  0.11751052017E+03  0.47000000000E+01 0.  1.
         -5    1    3    3    0  501 -0.75210338712E+02  0.65478256023E+00 -0.46209032272E+02  0.88399029706E+02  0.47000000000E+01 0.  1.
          5    1    4    4  502    0  0.22593573496E+01 -0.58154637091E+02 -0.25309462992E+03  0.25974227265E+03  0.47000000000E+01 0.  1.
         -5    1    4    4    0  502  0.38727608060E+02  0.46600472135E+02 -0.97399995572E+02  0.11480540391E+03  0.47000000000E+01 0.  1.
<mgrwt>
<rscale>  0 0.27994043E+03</rscale>
<asrwt>0</asrwt>
<pdfrwt beam="1">  1       21 0.55357995E-02 0.27994043E+03</pdfrwt>
<pdfrwt beam="2">  1       21 0.83765310E-01 0.27994043E+03</pdfrwt>
<totfact> 0.27381183E+05</totfact>
</mgrwt>
</event>
<event>
 8    1  0.9175398E-006  0.3714128E+03  0.7546771E-02  0.1054154E+00
         21   -1    0    0  504  503  0.00000000000E+00  0.00000000000E+00  0.64404431332E+02  0.64404431332E+02  0.00000000000E+00 0. -1.
         21   -1    0    0  503  504 -0.00000000000E+00 -0.00000000000E+00 -0.53547341119E+03  0.53547341119E+03  0.00000000000E+00 0. -1.
         25    2    1    2    0    0  0.51403512875E+02  0.23812506878E+02 -0.43762315552E+03  0.45863775842E+03  0.12500084234E+03 0.  0.
         25    2    1    2    0    0 -0.51403512875E+02 -0.23812506878E+02 -0.33445824340E+02  0.14124008410E+03  0.12498312514E+03 0.  0.
          5    1    3    3  501    0  0.85540824863E+02 -0.20798740025E+01 -0.35781614962E+03  0.36793483869E+03  0.47000000000E+01 0.  1.
         -5    1    3    3    0  501 -0.34137311987E+02  0.25892380881E+02 -0.79807005903E+02  0.90702919736E+02  0.47000000000E+01 0.  1.
          5    1    4    4  502    0 -0.64955717455E+02 -0.59727685009E+02 -0.47213289546E+02  0.10018895297E+03  0.47000000000E+01 0. -1.
         -5    1    4    4    0  502  0.13552204580E+02  0.35915178131E+02  0.13767465206E+02  0.41051131133E+02  0.47000000000E+01 0. -1.
<mgrwt>
<rscale>  0 0.37141277E+03</rscale>
<asrwt>0</asrwt>
<pdfrwt beam="1">  1       21 0.99083744E-02 0.37141277E+03</pdfrwt>
<pdfrwt beam="2">  1       21 0.82380522E-01 0.37141277E+03</pdfrwt>
<totfact> 0.10039110E+05</totfact>
</mgrwt>
</event>
<event>
 8    1  0.9175398E-006  0.2920142E+03  0.7546771E-02  0.1089302E+00
         21   -1    0    0  504  503  0.00000000000E+00  0.00000000000E+00  0.89252580682E+02  0.89252580682E+02  0.00000000000E+00 0. -1.
         21   -1    0    0  503  504 -0.00000000000E+00 -0.00000000000E+00 -0.23885099971E+03  0.23885099971E+03  0.00000000000E+00 0. -1.
         25    2    1    2    0    0  0.80728330895E+01  0.74609844104E+02 -0.83506112477E+02  0.16802414103E+03  0.12500816644E+03 0.  0.
         25    2    1    2    0    0 -0.80728330895E+01 -0.74609844104E+02 -0.66092306552E+02  0.16007943936E+03  0.12500173779E+03 0.  0.
          5    1    3    3  501    0 -0.19455767444E+02 -0.20368698090E+02 -0.59736510075E+02  0.66211414308E+02  0.47000000000E+01 0. -1.
         -5    1    3    3    0  501  0.27528600534E+02  0.94978542194E+02 -0.23769602402E+02  0.10181272672E+03  0.47000000000E+01 0. -1.
          5    1    4    4  502    0  0.21099787465E+02 -0.10120479609E+03 -0.33817029494E+02  0.10887283070E+03  0.47000000000E+01 0. -1.
         -5    1    4    4    0  502 -0.29172620555E+02  0.26594951981E+02 -0.32275277057E+02  0.51206608656E+02  0.47000000000E+01 0. -1.
<mgrwt>
<rscale>  0 0.29201416E+03</rscale>
<asrwt>0</asrwt>
<pdfrwt beam="1">  1       21 0.13731166E-01 0.29201416E+03</pdfrwt>
<pdfrwt beam="2">  1       21 0.36746308E-01 0.29201416E+03</pdfrwt>
<totfact> 0.32156411E+05</totfact>
</mgrwt>
</event>
<event>
 8    1  0.9175398E-006  0.2751891E+03  0.7546771E-02  0.1098346E+00
         21   -1    0    0  504  503  0.00000000000E+00  0.00000000000E+00  0.11867832661E+04  0.11867832661E+04  0.00000000000E+00 0.  1.
         21   -1    0    0  503  504 -0.00000000000E+00 -0.00000000000E+00 -0.15952585880E+02  0.15952585880E+02  0.00000000000E+00 0.  1.
         25    2    1    2    0    0 -0.37640645372E+02 -0.35034638431E+02  0.47242209692E+03  0.49137712608E+03  0.12499839320E+03 0.  0.
         25    2    1    2    0    0  0.37640645372E+02  0.35034638431E+02  0.69840858327E+03  0.71135872587E+03  0.12494976436E+03 0.  0.
          5    1    3    3  501    0 -0.52052648720E+01  0.26030904150E+02  0.19722218840E+02  0.33402973958E+02  0.47000000000E+01 0.  1.
         -5    1    3    3    0  501 -0.32435380500E+02 -0.61065542581E+02  0.45269987808E+03  0.45797415213E+03  0.47000000000E+01 0.  1.
          5    1    4    4  502    0  0.39074708938E+02  0.75122062262E+02  0.32922441315E+03  0.33997200080E+03  0.47000000000E+01 0.  1.
         -5    1    4    4    0  502 -0.14340635661E+01 -0.40087423831E+02  0.36918417012E+03  0.37138672507E+03  0.47000000000E+01 0.  1.
<mgrwt>
<rscale>  0 0.27518911E+03</rscale>
<asrwt>0</asrwt>
<pdfrwt beam="1">  1       21 0.18258197E+00 0.27518911E+03</pdfrwt>
<pdfrwt beam="2">  1       21 0.24542449E-02 0.27518911E+03</pdfrwt>
<totfact> 0.14847800E+05</totfact>
</mgrwt>
</event>
<event>
 8    1  0.9175398E-006  0.2780884E+03  0.7546771E-02  0.1096738E+00
         21   -1    0    0  504  503  0.00000000000E+00  0.00000000000E+00  0.18780563098E+03  0.18780563098E+03  0.00000000000E+00 0.  1.
         21   -1    0    0  503  504 -0.00000000000E+00 -0.00000000000E+00 -0.10294310449E+03  0.10294310449E+03  0.00000000000E+00 0.  1.
         25    2    1    2    0    0  0.57038742473E+02  0.21335586597E+02  0.43104765394E+02  0.14556206094E+03  0.12498666884E+03 0.  0.
         25    2    1    2    0    0 -0.57038742473E+02 -0.21335586597E+02  0.41757761096E+02  0.14518667453E+03  0.12500733758E+03 0.  0.
          5    1    3    3  501    0  0.52277271538E+02  0.24413608235E+02 -0.34645623722E+02  0.67463668961E+02  0.47000000000E+01 0. -1.
         -5    1    3    3    0  501  0.47614709343E+01 -0.30780216384E+01  0.77750389116E+02  0.78098391983E+02  0.47000000000E+01 0. -1.
          5    1    4    4  502    0 -0.16819500489E+02 -0.68569924918E+00 -0.44431886885E+02  0.47745663178E+02  0.47000000000E+01 0.  1.
         -5    1    4    4    0  502 -0.40219241984E+02 -0.20649887347E+02  0.86189647981E+02  0.97441011347E+02  0.47000000000E+01 0.  1.
<mgrwt>
<rscale>  0 0.27808844E+03</rscale>
<asrwt>0</asrwt>
<pdfrwt beam="1">  1       21 0.28893174E-01 0.27808844E+03</pdfrwt>
<pdfrwt beam="2">  1       21 0.15837401E-01 0.27808844E+03</pdfrwt>
<totfact> 0.40005965E+05</totfact>
</mgrwt>
</event>
<event>
 8    1  0.9175398E-006  0.5389670E+03  0.7546771E-02  0.1004080E+00
         21   -1    0    0  504  503  0.00000000000E+00  0.00000000000E+00  0.45045566154E+03  0.45045566154E+03  0.00000000000E+00 0. -1.
         21   -1    0    0  503  504 -0.00000000000E+00 -0.00000000000E+00 -0.16121752956E+03  0.16121752956E+03  0.00000000000E+00 0. -1.
         25    2    1    2    0    0 -0.14616957525E+03 -0.13421210278E+03  0.29526350555E+03  0.37707303659E+03  0.12500041581E+03 0.  0.
         25    2    1    2    0    0  0.14616957525E+03  0.13421210278E+03 -0.60253735746E+01  0.23460015451E+03  0.12498997604E+03 0.  0.
          5    1    3    3  501    0 -0.14904006739E+03 -0.14533629966E+03  0.29877233912E+03  0.36417383529E+03  0.47000000000E+01 0.  1.
         -5    1    3    3    0  501  0.28704921459E+01  0.11124196877E+02 -0.35088335642E+01  0.12899201305E+02  0.47000000000E+01 0.  1.
          5    1    4    4  502    0  0.15458299056E+03  0.15014568303E+03 -0.90255051203E+01  0.21573867721E+03  0.47000000000E+01 0.  1.
         -5    1    4    4    0  502 -0.84134153146E+01 -0.15933580246E+02  0.30001315457E+01  0.18861477302E+02  0.47000000000E+01 0.  1.
<mgrwt>
<rscale>  0 0.53896697E+03</rscale>
<asrwt>0</asrwt>
<pdfrwt beam="1">  1       21 0.69300870E-01 0.53896697E+03</pdfrwt>
<pdfrwt beam="2">  1       21 0.24802697E-01 0.53896697E+03</pdfrwt>
<totfact> 0.25950100E+04</totfact>
</mgrwt>
</event>
<event>
 8    1  0.9175398E-006  0.2808953E+03  0.7546771E-02  0.1095201E+00
         21   -1    0    0  504  503  0.00000000000E+00  0.00000000000E+00  0.15114865390E+03  0.15114865390E+03  0.00000000000E+00 0.  1.
         21   -1    0    0  503  504 -0.00000000000E+00 -0.00000000000E+00 -0.13050424123E+03  0.13050424123E+03  0.00000000000E+00 0.  1.
         25    2    1    2    0    0  0.61937678657E+02 -0.58319211229E+01 -0.48691228265E+01  0.13969870214E+03  0.12498692605E+03 0.  0.
         25    2    1    2    0    0 -0.61937678657E+02  0.58319211229E+01  0.25513535491E+02  0.14195419299E+03  0.12501905883E+03 0.  0.
          5    1    3    3  501    0 -0.27396433582E+02 -0.56614368905E+01 -0.35228209711E+02  0.45229782225E+02  0.47000000000E+01 0.  1.
         -5    1    3    3    0  501  0.89334112239E+02 -0.17048423247E+00  0.30359086884E+02  0.94468919920E+02  0.47000000000E+01 0.  1.
          5    1    4    4  502    0 -0.64112230497E+02  0.78087306024E+01  0.71020330322E+02  0.96111038346E+02  0.47000000000E+01 0.  1.
         -5    1    4    4    0  502  0.21745518398E+01 -0.19768094795E+01 -0.45506794832E+02  0.45843154639E+02  0.47000000000E+01 0.  1.
<mgrwt>
<rscale>  0 0.28089529E+03</rscale>
<asrwt>0</asrwt>
<pdfrwt beam="1">  1       21 0.23253639E-01 0.28089529E+03</pdfrwt>
<pdfrwt beam="2">  1       21 0.20077576E-01 0.28089529E+03</pdfrwt>
<totfact> 0.39105900E+05</totfact>
</mgrwt>
</event>
<event>
 8    1  0.9175398E-006  0.3123330E+03  0.7546771E-02  0.1079233E+00
         21   -1    0    0  504  503  0.00000000000E+00  0.00000000000E+00  0.13378465653E+03  0.13378465653E+03  0.00000000000E+00 0. -1.
         21   -1    0    0  503  504 -0.00000000000E+00 -0.00000000000E+00 -0.18229277305E+03  0.18229277305E+03  0.00000000000E+00 0. -1.
         25    2    1    2    0    0  0.80319852574E+01 -0.11492342803E+02 -0.11791768494E+03  0.17241360205E+03  0.12500113207E+03 0.  0.
         25    2    1    2    0    0 -0.80319852574E+01  0.11492342803E+02  0.69409568426E+02  0.14366382753E+03  0.12500008169E+03 0.  0.
          5    1    3    3  501    0  0.36730589152E+02 -0.24684368310E+02 -0.13066068046E+03  0.13803172692E+03  0.47000000000E+01 0.  1.
         -5    1    3    3    0  501 -0.28698603895E+02  0.13192025507E+02  0.12742995520E+02  0.34381875128E+02  0.47000000000E+01 0.  1.
          5    1    4    4  502    0  0.15564654458E+02  0.21936603922E+02  0.99830085009E+02  0.10349690301E+03  0.47000000000E+01 0. -1.
         -5    1    4    4    0  502 -0.23596639716E+02 -0.10444261119E+02 -0.30420516583E+02  0.40166924520E+02  0.47000000000E+01 0. -1.
<mgrwt>
<rscale>  0 0.31233300E+03</rscale>
<asrwt>0</asrwt>
<pdfrwt beam="1">  1       21 0.20582255E-01 0.31233300E+03</pdfrwt>
<pdfrwt beam="2">  1       21 0.28045042E-01 0.31233300E+03</pdfrwt>
<totfact> 0.25821495E+05</totfact>
</mgrwt>
</event>
<event>
 8    1  0.9175398E-006  0.2739984E+03  0.7546771E-02  0.1099013E+00
         21   -1    0    0  504  503  0.00000000000E+00  0.00000000000E+00  0.12696303445E+02  0.12696303445E+02  0.00000000000E+00 0. -1.
         21   -1    0    0  503  504 -0.00000000000E+00 -0.00000000000E+00 -0.14782867202E+04  0.14782867202E+04  0.00000000000E+00 0. -1.
         25    2    1    2    0    0 -0.49328654382E+02  0.12758304809E+02 -0.86017883319E+03  0.87070491363E+03  0.12499332408E+03 0.  0.
         25    2    1    2    0    0  0.49328654382E+02 -0.12758304809E+02 -0.60541158353E+03  0.62027810998E+03  0.12500263104E+03 0.  0.
          5    1    3    3  501    0 -0.44564073308E+02  0.63678522936E+02 -0.38762098865E+03  0.39536442905E+03  0.47000000000E+01 0. -1.
         -5    1    3    3    0  501 -0.47645810742E+01 -0.50920218127E+02 -0.47255784454E+03  0.47534048459E+03  0.47000000000E+01 0. -1.
          5    1    4    4  502    0 -0.14181061219E+02  0.45617510295E+02 -0.18909170657E+03  0.19508926992E+03  0.47000000000E+01 0. -1.
         -5    1    4    4    0  502  0.63509715600E+02 -0.58375815104E+02 -0.41631987696E+03  0.42518884006E+03  0.47000000000E+01 0. -1.
<mgrwt>
<rscale>  0 0.27399837E+03</rscale>
<asrwt>0</asrwt>
<pdfrwt beam="1">  1       21 0.19532777E-02 0.27399837E+03</pdfrwt>
<pdfrwt beam="2">  1       21 0.22742869E+00 0.27399837E+03</pdfrwt>
<totfact> 0.11090978E+05</totfact>
</mgrwt>
</event>
<event>
 8    1  0.9175398E-006  0.2857653E+03  0.7546771E-02  0.1092581E+00
         21   -1    0    0  504  503  0.00000000000E+00  0.00000000000E+00  0.64495991130E+03  0.64495991130E+03  0.00000000000E+00 0. -1.
         21   -1    0    0  503  504 -0.00000000000E+00 -0.00000000000E+00 -0.31653831857E+02  0.31653831857E+02  0.00000000000E+00 0. -1.
         25    2    1    2    0    0  0.46171574221E+02 -0.30427103789E+02  0.40523516673E+03  0.42766558008E+03  0.12499874046E+03 0.  0.
         25    2    1    2    0    0 -0.46171574221E+02  0.30427103789E+02  0.20807091271E+03  0.24894816308E+03  0.12499624103E+03 0.  0.
          5    1    3    3  501    0  0.26474901961E+00 -0.66290915905E+02  0.12677458307E+03  0.14313783754E+03  0.47000000000E+01 0. -1.
         -5    1    3    3    0  501  0.45906825202E+02  0.35863812116E+02  0.27846058366E+03  0.28452774254E+03  0.47000000000E+01 0. -1.
          5    1    4    4  502    0 -0.87342932450E+02  0.12799628164E+02  0.16184156225E+03  0.18441095304E+03  0.47000000000E+01 0.  1.
         -5    1    4    4    0  502  0.41171358228E+02  0.17627475625E+02  0.46229350456E+02  0.64537210033E+02  0.47000000000E+01 0.  1.
<mgrwt>
<rscale>  0 0.28576531E+03</rscale>
<asrwt>0</asrwt>
<pdfrwt beam="1">  1       21 0.99224592E-01 0.28576531E+03</pdfrwt>
<pdfrwt beam="2">  1       21 0.48698208E-02 0.28576531E+03</pdfrwt>
<totfact> 0.22886773E+05</totfact>
</mgrwt>
</event>
<event>
 8    1  0.9175398E-006  0.2778781E+03  0.7546771E-02  0.1096854E+00
         21   -1    0    0  504  503  0.00000000000E+00  0.00000000000E+00  0.49320714947E+03  0.49320714947E+03  0.00000000000E+00 0.  1.
         21   -1    0    0  503  504 -0.00000000000E+00 -0.00000000000E+00 -0.39139863979E+02  0.39139863979E+02  0.00000000000E+00 0.  1.
         25    2    1    2    0    0  0.69907152898E+01 -0.36508273874E+02  0.31884481141E+03  0.34448583145E+03  0.12500700037E+03 0.  0.
         25    2    1    2    0    0 -0.69907152898E+01  0.36508273874E+02  0.13522247408E+03  0.18786118200E+03  0.12499992819E+03 0.  0.
          5    1    3    3  501    0  0.58043634502E+02  0.12140843954E+02  0.15647134306E+03  0.16739723653E+03  0.47000000000E+01 0. -1.
         -5    1    3    3    0  501 -0.51052919213E+02 -0.48649117828E+02  0.16237346836E+03  0.17708859492E+03  0.47000000000E+01 0. -1.
          5    1    4    4  502    0  0.27387326818E+02  0.13576906139E+02 -0.13270243783E+02  0.33653936183E+02  0.47000000000E+01 0. -1.
         -5    1    4    4    0  502 -0.34378042108E+02  0.22931367736E+02  0.14849271786E+03  0.15420724582E+03  0.47000000000E+01 0. -1.
<mgrwt>
<rscale>  0 0.27787811E+03</rscale>
<asrwt>0</asrwt>
<pdfrwt beam="1">  1       21 0.75878019E-01 0.27787811E+03</pdfrwt>
<pdfrwt beam="2">  1       21 0.60215179E-02 0.27787811E+03</pdfrwt>
<totfact> 0.29699266E+05</totfact>
</mgrwt>
</event>
<event>
 8    1  0.9175398E-006  0.3327877E+03  0.7546771E-02  0.1069910E+00
         21   -1    0    0  504  503  0.00000000000E+00  0.00000000000E+00  0.40871923317E+03  0.40871923317E+03  0.00000000000E+00 0.  1.
         21   -1    0    0  503  504 -0.00000000000E+00 -0.00000000000E+00 -0.67740662788E+02  0.67740662788E+02  0.00000000000E+00 0.  1.
         25    2    1    2    0    0  0.56062977482E+02 -0.71644412082E+02  0.25863392474E+03  0.30131987122E+03  0.12500471406E+03 0.  0.
         25    2    1    2    0    0 -0.56062977482E+02  0.71644412082E+02  0.82344645648E+02  0.17514002474E+03  0.12496962981E+03 0.  0.
          5    1    3    3  501    0 -0.18432400613E+02 -0.18676015508E+02 -0.32719574802E+00  0.26659782533E+02  0.47000000000E+01 0. -1.
         -5    1    3    3    0  501  0.74495378095E+02 -0.52968396573E+02  0.25896112049E+03  0.27466008868E+03  0.47000000000E+01 0. -1.
          5    1    4    4  502    0 -0.40725617351E+02  0.88722748734E+02  0.90071172980E+01  0.98150497775E+02  0.47000000000E+01 0. -1.
         -5    1    4    4    0  502 -0.15337360131E+02 -0.17078336652E+02  0.73337528350E+02  0.76989526970E+02  0.47000000000E+01 0. -1.
<mgrwt>
<rscale>  0 0.33278769E+03</rscale>
<asrwt>0</asrwt>
<pdfrwt beam="1">  1       21 0.62879881E-01 0.33278769E+03</pdfrwt>
<pdfrwt beam="2">  1       21 0.10421641E-01 0.33278769E+03</pdfrwt>
<totfact> 0.16993231E+05</totfact>
</mgrwt>
</event>
<event>
 8    1  0.9175398E-006  0.2739586E+03  0.7546771E-02  0.1099035E+00
         21   -1    0    0  504  503  0.00000000000E+00  0.00000000000E+00  0.14676610700E+04  0.14676610700E+04  0.00000000000E+00 0.  1.
         21   -1    0    0  503  504 -0.00000000000E+00 -0.00000000000E+00 -0.12784513196E+02  0.12784513196E+02  0.00000000000E+00 0.  1.
         25    2    1    2    0    0  0.14087879320E+02 -0.52695350994E+02  0.65842379081E+03  0.67240019671E+03  0.12499947149E+03 0.  0.
         25    2    1    2    0    0 -0.14087879320E+02  0.52695350994E+02  0.79645276598E+03  0.80804538647E+03  0.12500027920E+03 0.  0.
          5    1    3    3  501    0  0.33976532585E+02 -0.70645304595E+02  0.62201552776E+03  0.62695340385E+03  0.47000000000E+01 0.  1.
         -5    1    3    3    0  501 -0.19888653265E+02  0.17949953601E+02  0.36408263057E+02  0.45446792866E+02  0.47000000000E+01 0.  1.
          5    1    4    4  502    0  0.44771141399E+02  0.90458975674E+01  0.51945177645E+03  0.52147724919E+03  0.47000000000E+01 0.  1.
         -5    1    4    4    0  502 -0.58859020719E+02  0.43649453426E+02  0.27700098953E+03  0.28656813728E+03  0.47000000000E+01 0.  1.
<mgrwt>
<rscale>  0 0.27395863E+03</rscale>
<asrwt>0</asrwt>
<pdfrwt beam="1">  1       21 0.22579388E+00 0.27395863E+03</pdfrwt>
<pdfrwt beam="2">  1       21 0.19668493E-02 0.27395863E+03</pdfrwt>
<totfact> 0.11223861E+05</totfact>
</mgrwt>
</event>
<event>
 8    1  0.9175398E-006  0.2829498E+03  0.7546771E-02  0.1094089E+00
         21   -1    0    0  504  503  0.00000000000E+00  0.00000000000E+00  0.15677913712E+03  0.15677913712E+03  0.00000000000E+00 0.  1.
         21   -1    0    0  503  504 -0.00000000000E+00 -0.00000000000E+00 -0.12766458396E+03  0.12766458396E+03  0.00000000000E+00 0.  1.
         25    2    1    2    0    0 -0.60629569626E+02  0.26601305425E+02  0.17055529732E+02  0.14247881837E+03  0.12500299367E+03 0.  0.
         25    2    1    2    0    0  0.60629569626E+02 -0.26601305425E+02  0.12059023436E+02  0.14196490271E+03  0.12500015757E+03 0.  0.
          5    1    3    3  501    0 -0.18580718954E+02 -0.80567237530E+01  0.65929601946E+02  0.69129995857E+02  0.47000000000E+01 0. -1.
         -5    1    3    3    0  501 -0.42048850673E+02  0.34658029178E+02 -0.48874072214E+02  0.73348822514E+02  0.47000000000E+01 0. -1.
          5    1    4    4  502    0 -0.38211979124E+02 -0.10193581810E+02 -0.52731891543E+01  0.40174133252E+02  0.47000000000E+01 0.  1.
         -5    1    4    4    0  502  0.98841548750E+02 -0.16407723615E+02  0.17332212590E+02  0.10179076946E+03  0.47000000000E+01 0.  1.
<mgrwt>
<rscale>  0 0.28294977E+03</rscale>
<asrwt>0</asrwt>
<pdfrwt beam="1">  1       21 0.24119867E-01 0.28294977E+03</pdfrwt>
<pdfrwt beam="2">  1       21 0.19640705E-01 0.28294977E+03</pdfrwt>
<totfact> 0.37987704E+05</totfact>
</mgrwt>
</event>
<event>
 8    1  0.9175398E-006  0.5859096E+03  0.7546771E-02  0.9935078E-01
         21   -1    0    0  504  503  0.00000000000E+00  0.00000000000E+00  0.14006938629E+04  0.14006938629E+04  0.00000000000E+00 0.  1.
         21   -1    0    0  503  504 -0.00000000000E+00 -0.00000000000E+00 -0.61271418822E+02  0.61271418822E+02  0.00000000000E+00 0.  1.
         25    2    1    2    0    0 -0.13621903055E+03  0.19034012602E+03  0.35996242273E+03  0.44719741983E+03  0.12501039424E+03 0.  0.
         25    2    1    2    0    0  0.13621903055E+03 -0.19034012602E+03  0.97946002136E+03  0.10147678619E+04  0.12500756880E+03 0.  0.
          5    1    3    3  501    0  0.19761571964E+02  0.49797119152E+02  0.94224754546E+02  0.10849270561E+03  0.47000000000E+01 0.  1.
         -5    1    3    3    0  501 -0.15598060251E+03  0.14054300687E+03  0.26573766818E+03  0.33870471421E+03  0.47000000000E+01 0.  1.
          5    1    4    4  502    0  0.39091338664E+02 -0.16010080485E+02  0.39246438663E+03  0.39475921801E+03  0.47000000000E+01 0. -1.
         -5    1    4    4    0  502  0.97127691883E+02 -0.17433004553E+03  0.58699563473E+03  0.62000864389E+03  0.47000000000E+01 0. -1.
<mgrwt>
<rscale>  0 0.58590955E+03</rscale>
<asrwt>0</asrwt>
<pdfrwt beam="1">  1       21 0.21549134E+00 0.58590955E+03</pdfrwt>
<pdfrwt beam="2">  1       21 0.94263732E-02 0.58590955E+03</pdfrwt>
<totfact> 0.79826678E+03</totfact>
</mgrwt>
</event>
<event>
 8    1  0.9175398E-006  0.2793395E+03  0.7546771E-02  0.1096050E+00
         21   -1    0    0  504  503  0.00000000000E+00  0.00000000000E+00  0.48448045117E+03  0.48448045117E+03  0.00000000000E+00 0.  1.
         21   -1    0    0  503  504 -0.00000000000E+00 -0.00000000000E+00 -0.40265065468E+02  0.40265065468E+02  0.00000000000E+00 0.  1.
         25    2    1    2    0    0  0.44091504252E+02  0.14557379566E+02  0.30016939624E+03  0.32845502862E+03  0.12500024534E+03 0.  0.
         25    2    1    2    0    0 -0.44091504252E+02 -0.14557379566E+02  0.14404598946E+03  0.19629048802E+03  0.12499892224E+03 0.  0.
          5    1    3    3  501    0  0.39999678717E+02  0.68256919659E+02  0.18199103325E+03  0.19849888554E+03  0.47000000000E+01 0.  1.
         -5    1    3    3    0  501  0.40918255352E+01 -0.53699540093E+02  0.11817836300E+03  0.12995614307E+03  0.47000000000E+01 0.  1.
          5    1    4    4  502    0 -0.67810005327E+02  0.32620933185E+02  0.57584478369E+02  0.94870354976E+02  0.47000000000E+01 0.  1.
         -5    1    4    4    0  502  0.23718501074E+02 -0.47178312751E+02  0.86461511089E+02  0.10142013305E+03  0.47000000000E+01 0.  1.
<mgrwt>
<rscale>  0 0.27933949E+03</rscale>
<asrwt>0</asrwt>
<pdfrwt beam="1">  1       21 0.74535450E-01 0.27933949E+03</pdfrwt>
<pdfrwt beam="2">  1       21 0.61946258E-02 0.27933949E+03</pdfrwt>
<totfact> 0.29432820E+05</totfact>
</mgrwt>
</event>
<event>
 8    1  0.9175398E-006  0.8349039E+03  0.7546771E-02  0.9510825E-01
         21   -1    0    0  504  503  0.00000000000E+00  0.00000000000E+00  0.16914292217E+04  0.16914292217E+04  0.00000000000E+00 0.  1.
         21   -1    0    0  503  504 -0.00000000000E+00 -0.00000000000E+00 -0.10302892178E+03  0.10302892178E+03  0.00000000000E+00 0.  1.
         25    2    1    2    0    0 -0.20264161866E+03 -0.32431830500E+02  0.15278877778E+04  0.15466677689E+04  0.12499870700E+03 0.  0.
         25    2    1    2    0    0  0.20264161866E+03  0.32431830500E+02  0.60512522181E+02  0.24779037458E+03  0.12499142031E+03 0.  0.
          5    1    3    3  501    0 -0.18288837081E+03 -0.70704558924E+02  0.12976577520E+04  0.13123966710E+04  0.47000000000E+01 0.  1.
         -5    1    3    3    0  501 -0.19753247844E+02  0.38272728424E+02  0.23023002581E+03  0.23427109793E+03  0.47000000000E+01 0.  1.
          5    1    4    4  502    0 -0.19488264463E+01  0.25715165205E+02  0.31515820000E+02  0.40992737848E+02  0.47000000000E+01 0.  1.
         -5    1    4    4    0  502  0.20459044511E+03  0.67166652952E+01  0.28996702181E+02  0.20679763673E+03  0.47000000000E+01 0.  1.
<mgrwt>
<rscale>  0 0.83490390E+03</rscale>
<asrwt>0</asrwt>
<pdfrwt beam="1">  1       21 0.26021986E+00 0.83490390E+03</pdfrwt>
<pdfrwt beam="2">  1       21 0.15850605E-01 0.83490390E+03</pdfrwt>
<totfact> 0.14904407E+03</totfact>
</mgrwt>
</event>
<event>
 8    1  0.9175398E-006  0.2721220E+03  0.7546771E-02  0.1100071E+00
         21   -1    0    0  504  503  0.00000000000E+00  0.00000000000E+00  0.15301604528E+03  0.15301604528E+03  0.00000000000E+00 0.  1.
         21   -1    0    0  503  504 -0.00000000000E+00 -0.00000000000E+00 -0.12098465410E+03  0.12098465410E+03  0.00000000000E+00 0.  1.
         25    2    1    2    0    0 -0.57370207978E+01 -0.45737497558E+02  0.43753216891E+02  0.14022964997E+03  0.12500071461E+03 0.  0.
         25    2    1    2    0    0  0.57370207978E+01  0.45737497558E+02 -0.11721825716E+02  0.13377104941E+03  0.12502983792E+03 0.  0.
          5    1    3    3  501    0  0.18709249121E+02 -0.84466042258E+02  0.34572653955E+02  0.93284010949E+02  0.47000000000E+01 0.  1.
         -5    1    3    3    0  501 -0.24446269919E+02  0.38728544699E+02  0.91805629364E+01  0.46945639023E+02  0.47000000000E+01 0.  1.
          5    1    4    4  502    0  0.40400810773E+01  0.47233731310E+02  0.51603790482E+02  0.70230967675E+02  0.47000000000E+01 0.  1.
         -5    1    4    4    0  502  0.16969397206E+01 -0.14962337514E+01 -0.63325616197E+02  0.63540081733E+02  0.47000000000E+01 0.  1.
<mgrwt>
<rscale>  0 0.27212198E+03</rscale>
<asrwt>0</asrwt>
<pdfrwt beam="1">  1       21 0.23540930E-01 0.27212198E+03</pdfrwt>
<pdfrwt beam="2">  1       21 0.18613024E-01 0.27212198E+03</pdfrwt>
<totfact> 0.44104708E+05</totfact>
</mgrwt>
</event>
<event>
 8    1  0.9175398E-006  0.3020263E+03  0.7546771E-02  0.1084232E+00
         21   -1    0    0  504  503  0.00000000000E+00  0.00000000000E+00  0.21095368514E+03  0.21095368514E+03  0.00000000000E+00 0.  1.
         21   -1    0    0  503  504 -0.00000000000E+00 -0.00000000000E+00 -0.10810419293E+03  0.10810419293E+03  0.00000000000E+00 0.  1.
         25    2    1    2    0    0  0.63814969179E+02 -0.38555531053E+02  0.93967915486E+02  0.17324622567E+03  0.12500162520E+03 0.  0.
         25    2    1    2    0    0 -0.63814969179E+02  0.38555531053E+02  0.88815767252E+01  0.14581165240E+03  0.12499310503E+03 0.  0.
          5    1    3    3  501    0 -0.45505002105E+01 -0.64800680707E+02  0.71016111782E+02  0.96359812188E+02  0.47000000000E+01 0.  1.
         -5    1    3    3    0  501  0.68365469390E+02  0.26245149654E+02  0.22951803704E+02  0.76886413484E+02  0.47000000000E+01 0.  1.
          5    1    4    4  502    0 -0.82130582408E+01  0.77118474943E+02  0.57900253433E+01  0.77912309019E+02  0.47000000000E+01 0.  1.
         -5    1    4    4    0  502 -0.55601910938E+02 -0.38562943890E+02  0.30915513818E+01  0.67899343380E+02  0.47000000000E+01 0.  1.
<mgrwt>
<rscale>  0 0.30202634E+03</rscale>
<asrwt>0</asrwt>
<pdfrwt beam="1">  1       21 0.32454413E-01 0.30202634E+03</pdfrwt>
<pdfrwt beam="2">  1       21 0.16631414E-01 0.30202634E+03</pdfrwt>
<totfact> 0.28925270E+05</totfact>
</mgrwt>
</event>
<event>
 8    1  0.9175398E-006  0.3193518E+03  0.7546771E-02  0.1075948E+00
         21   -1    0    0  504  503  0.00000000000E+00  0.00000000000E+00  0.16594741964E+03  0.16594741964E+03  0.00000000000E+00 0.  1.
         21   -1    0    0  503  504 -0.00000000000E+00 -0.00000000000E+00 -0.15364139977E+03  0.15364139977E+03  0.00000000000E+00 0.  1.
         25    2    1    2    0    0  0.81874211548E+02 -0.26835494812E+02  0.55656652625E+02  0.16169717643E+03  0.12499913433E+03 0.  0.
         25    2    1    2    0    0 -0.81874211548E+02  0.26835494812E+02 -0.43350632749E+02  0.15789164299E+03  0.12500785282E+03 0.  0.
          5    1    3    3  501    0  0.37693472471E+02 -0.43584873323E+02 -0.28964776487E+02  0.64664420870E+02  0.47000000000E+01 0.  1.
         -5    1    3    3    0  501  0.44180739077E+02  0.16749378511E+02  0.84621429112E+02  0.97032755556E+02  0.47000000000E+01 0.  1.
          5    1    4    4  502    0 -0.68813644793E+02 -0.87079302269E+01  0.29602906835E+02  0.75561682430E+02  0.47000000000E+01 0.  1.
         -5    1    4    4    0  502 -0.13060566755E+02  0.35543425039E+02 -0.72953539584E+02  0.82329960556E+02  0.47000000000E+01 0.  1.
<mgrwt>
<rscale>  0 0.31935181E+03</rscale>
<asrwt>0</asrwt>
<pdfrwt beam="1">  1       21 0.25530372E-01 0.31935181E+03</pdfrwt>
<pdfrwt beam="2">  1       21 0.23637138E-01 0.31935181E+03</pdfrwt>
<totfact> 0.23776234E+05</totfact>
</mgrwt>
</event>
<event>
 8    1  0.9175398E-006  0.3211795E+03  0.7546771E-02  0.1075108E+00
         21   -1    0    0  504  503  0.00000000000E+00  0.00000000000E+00  0.19894404431E+02  0.19894404431E+02  0.00000000000E+00 0. -1.
         21   -1    0    0  503  504 -0.00000000000E+00 -0.00000000000E+00 -0.12962978800E+04  0.12962978800E+04  0.00000000000E+00 0. -1.
         25    2    1    2    0    0 -0.27041863038E+02 -0.74066773069E+02 -0.38070041822E+03  0.40837825178E+03  0.12499135515E+03 0.  0.
         25    2    1    2    0    0  0.27041863038E+02  0.74066773069E+02 -0.89570305733E+03  0.90781403263E+03  0.12500080683E+03 0.  0.
          5    1    3    3  501    0  0.18357375320E+02 -0.93928358413E+02 -0.28203347693E+03  0.29786658398E+03  0.47000000000E+01 0.  1.
         -5    1    3    3    0  501 -0.45399238358E+02  0.19861585345E+02 -0.98666941298E+02  0.11051166780E+03  0.47000000000E+01 0.  1.
          5    1    4    4  502    0 -0.11389194695E+02  0.73782649340E+02 -0.81368557425E+03  0.81711681958E+03  0.47000000000E+01 0.  1.
         -5    1    4    4    0  502  0.38431057733E+02  0.28412372908E+00 -0.82017483073E+02  0.90697213047E+02  0.47000000000E+01 0.  1.
<mgrwt>
<rscale>  0 0.32117954E+03</rscale>
<asrwt>0</asrwt>
<pdfrwt beam="1">  1       21 0.30606774E-02 0.32117954E+03</pdfrwt>
<pdfrwt beam="2">  1       21 0.19943045E+00 0.32117954E+03</pdfrwt>
<totfact> 0.77907509E+04</totfact>
</mgrwt>
</event>
<event>
 8    1  0.9175398E-006  0.5396052E+03  0.7546771E-02  0.1003929E+00
         21   -1    0    0  504  503  0.00000000000E+00  0.00000000000E+00  0.13389848669E+03  0.13389848669E+03  0.00000000000E+00 0.  1.
         21   -1    0    0  503  504 -0.00000000000E+00 -0.00000000000E+00 -0.54364639699E+03  0.54364639699E+03  0.00000000000E+00 0.  1.
         25    2    1    2    0    0 -0.21601643909E+03 -0.93031694349E+02 -0.15085774532E+03  0.30610614207E+03  0.12499965110E+03 0.  0.
         25    2    1    2    0    0  0.21601643909E+03  0.93031694349E+02 -0.25889016498E+03  0.37143874161E+03  0.12499849252E+03 0.  0.
          5    1    3    3  501    0 -0.45073585363E+02 -0.76438017835E+02 -0.22567644307E+02  0.91683080432E+02  0.47000000000E+01 0. -1.
         -5    1    3    3    0  501 -0.17094285373E+03 -0.16593676514E+02 -0.12829010101E+03  0.21442306163E+03  0.47000000000E+01 0. -1.
          5    1    4    4  502    0  0.43404790159E+02 -0.30031196552E+02 -0.37719097466E+02  0.65043592219E+02  0.47000000000E+01 0.  1.
         -5    1    4    4    0  502  0.17261164893E+03  0.12306289090E+03 -0.22117106751E+03  0.30639514939E+03  0.47000000000E+01 0.  1.
<mgrwt>
<rscale>  0 0.53960515E+03</rscale>
<asrwt>0</asrwt>
<pdfrwt beam="1">  1       21 0.20599767E-01 0.53960515E+03</pdfrwt>
<pdfrwt beam="2">  1       21 0.83637907E-01 0.53960515E+03</pdfrwt>
<totfact> 0.24116154E+04</totfact>
</mgrwt>
</event>
<event>
 8    1  0.9175398E-006  0.2894336E+03  0.7546771E-02  0.1090645E+00
         21   -1    0    0  504  503  0.00000000000E+00  0.00000000000E+00  0.49755847206E+02  0.49755847206E+02  0.00000000000E+00 0. -1.
         21   -1    0    0  503  504 -0.00000000000E+00 -0.00000000000E+00 -0.42091426458E+03  0.42091426458E+03  0.00000000000E+00 0. -1.
         25    2    1    2    0    0 -0.93068190759E-01  0.50387583850E+02 -0.27130343002E+03  0.30293439622E+03  0.12499912001E+03 0.  0.
         25    2    1    2    0    0  0.93068190759E-01 -0.50387583850E+02 -0.99854987351E+02  0.16773571557E+03  0.12500133803E+03 0.  0.
          5    1    3    3  501    0 -0.61106922127E+02  0.37880673238E+02 -0.13583448182E+03  0.15375987053E+03  0.47000000000E+01 0. -1.
         -5    1    3    3    0  501  0.61013853936E+02  0.12506910612E+02 -0.13546894821E+03  0.14917452569E+03  0.47000000000E+01 0. -1.
          5    1    4    4  502    0  0.49113433416E+02 -0.59767491609E+02 -0.85909990514E+02  0.11570176691E+03  0.47000000000E+01 0. -1.
         -5    1    4    4    0  502 -0.49020365225E+02  0.93799077592E+01 -0.13944996837E+02  0.52033948660E+02  0.47000000000E+01 0. -1.
<mgrwt>
<rscale>  0 0.28943356E+03</rscale>
<asrwt>0</asrwt>
<pdfrwt beam="1">  1       21 0.76547455E-02 0.28943356E+03</pdfrwt>
<pdfrwt beam="2">  1       21 0.64756043E-01 0.28943356E+03</pdfrwt>
<totfact> 0.27782898E+05</totfact>
</mgrwt>
</event>
<event>
 8    1  0.9175398E-006  0.2906862E+03  0.7546771E-02  0.1089991E+00
         21   -1    0    0  504  503  0.00000000000E+00  0.00000000000E+00  0.14022226203E+03  0.14022226203E+03  0.00000000000E+00 0.  1.
         21   -1    0    0  503  504 -0.00000000000E+00 -0.00000000000E+00 -0.15065097882E+03  0.15065097882E+03  0.00000000000E+00 0.  1.
         25    2    1    2    0    0 -0.67753333042E+02  0.14072562839E+02  0.21449520721E+02  0.14448014356E+03  0.12500351508E+03 0.  0.
         25    2    1    2    0    0  0.67753333042E+02 -0.14072562839E+02 -0.31878237512E+02  0.14639309729E+03  0.12500466289E+03 0.  0.
          5    1    3    3  501    0 -0.32274325814E+02 -0.41443878861E+02  0.49860416504E+02  0.72576706564E+02  0.47000000000E+01 0.  1.
         -5    1    3    3    0  501 -0.35479007228E+02  0.55516441700E+02 -0.28410895783E+02  0.71903436998E+02  0.47000000000E+01 0.  1.
          5    1    4    4  502    0 -0.42551128427E+01 -0.10154196212E+02 -0.65572503055E+02  0.66656258843E+02  0.47000000000E+01 0. -1.
         -5    1    4    4    0  502  0.72008445885E+02 -0.39183666264E+01  0.33694265543E+02  0.79736838451E+02  0.47000000000E+01 0. -1.
<mgrwt>
<rscale>  0 0.29068623E+03</rscale>
<asrwt>0</asrwt>
<pdfrwt beam="1">  1       21 0.21572656E-01 0.29068623E+03</pdfrwt>
<pdfrwt beam="2">  1       21 0.23177073E-01 0.29068623E+03</pdfrwt>
<totfact> 0.34289912E+05</totfact>
</mgrwt>
</event>
<event>
 8    1  0.9175398E-006  0.2671062E+03  0.7546771E-02  0.1102947E+00
         21   -1    0    0  504  503  0.00000000000E+00  0.00000000000E+00  0.96048028566E+02  0.96048028566E+02  0.00000000000E+00 0. -1.
         21   -1    0    0  503  504 -0.00000000000E+00 -0.00000000000E+00 -0.18570322230E+03  0.18570322230E+03  0.00000000000E+00 0. -1.
         25    2    1    2    0    0 -0.16310770280E+02  0.18328390137E+02 -0.25055606384E+01  0.12740724445E+03  0.12499742794E+03 0.  0.
         25    2    1    2    0    0  0.16310770280E+02 -0.18328390137E+02 -0.87149633096E+02  0.15434400641E+03  0.12500017062E+03 0.  0.
          5    1    3    3  501    0 -0.73369404566E+01  0.62164348111E+01 -0.63503271448E+02  0.64398992552E+02  0.47000000000E+01 0.  1.
         -5    1    3    3    0  501 -0.89738298234E+01  0.12111955326E+02  0.60997710810E+02  0.63008251901E+02  0.47000000000E+01 0.  1.
          5    1    4    4  502    0 -0.52375929397E+02  0.69544434072E+01 -0.27166799842E+02  0.59596369663E+02  0.47000000000E+01 0. -1.
         -5    1    4    4    0  502  0.68686699677E+02 -0.25282833544E+02 -0.59982833254E+02  0.94747636750E+02  0.47000000000E+01 0. -1.
<mgrwt>
<rscale>  0 0.26710618E+03</rscale>
<asrwt>0</asrwt>
<pdfrwt beam="1">  1       21 0.14776620E-01 0.26710618E+03</pdfrwt>
<pdfrwt beam="2">  1       21 0.28569726E-01 0.26710618E+03</pdfrwt>
<totfact> 0.46546277E+05</totfact>
</mgrwt>
</event>
<event>
 8    1  0.9175398E-006  0.5046753E+03  0.7546771E-02  0.1012566E+00
         21   -1    0    0  504  503  0.00000000000E+00  0.00000000000E+00  0.13266156737E+03  0.13266156737E+03  0.00000000000E+00 0.  1.
         21   -1    0    0  503  504 -0.00000000000E+00 -0.00000000000E+00 -0.47997544658E+03  0.47997544658E+03  0.00000000000E+00 0.  1.
         25    2    1    2    0    0  0.37539378150E+02  0.12798601740E+03  0.37500544758E+02  0.18660420566E+03  0.12500085260E+03 0.  0.
         25    2    1    2    0    0 -0.37539378150E+02 -0.12798601740E+03 -0.38481442397E+03  0.42603280829E+03  0.12502874584E+03 0.  0.
          5    1    3    3  501    0 -0.36844504679E+02  0.59249599011E+02 -0.16330316120E+02  0.71810874751E+02  0.47000000000E+01 0.  1.
         -5    1    3    3    0  501  0.74383882828E+02  0.68736418388E+02  0.53830860878E+02  0.11479333091E+03  0.47000000000E+01 0.  1.
          5    1    4    4  502    0 -0.94495187345E+01 -0.81487248687E+02 -0.74338751873E+02  0.11080525770E+03  0.47000000000E+01 0. -1.
         -5    1    4    4    0  502 -0.28089859415E+02 -0.46498768712E+02 -0.31047567209E+03  0.31522755060E+03  0.47000000000E+01 0. -1.
<mgrwt>
<rscale>  0 0.50467532E+03</rscale>
<asrwt>0</asrwt>
<pdfrwt beam="1">  1       21 0.20409472E-01 0.50467532E+03</pdfrwt>
<pdfrwt beam="2">  1       21 0.73842376E-01 0.50467532E+03</pdfrwt>
<totfact> 0.32977596E+04</totfact>
</mgrwt>
</event>
<event>
 8    1  0.9175398E-006  0.3287140E+03  0.7546771E-02  0.1071707E+00
         21   -1    0    0  504  503  0.00000000000E+00  0.00000000000E+00  0.22564316603E+03  0.22564316603E+03  0.00000000000E+00 0.  1.
         21   -1    0    0  503  504 -0.00000000000E+00 -0.00000000000E+00 -0.11971658924E+03  0.11971658924E+03  0.00000000000E+00 0.  1.
         25    2    1    2    0    0  0.77949871621E+02  0.24892227017E+02 -0.18935692045E+02  0.15059412245E+03  0.12499689529E+03 0.  0.
         25    2    1    2    0    0 -0.77949871621E+02 -0.24892227017E+02  0.12486226883E+03  0.19476563282E+03  0.12508900870E+03 0.  0.
          5    1    3    3  501    0  0.19810516376E+02  0.26329787618E+02  0.50135268143E+02  0.60177648566E+02  0.47000000000E+01 0.  1.
         -5    1    3    3    0  501  0.58139355245E+02 -0.14375606003E+01 -0.69070960188E+02  0.90416473887E+02  0.47000000000E+01 0.  1.
          5    1    4    4  502    0  0.10896539520E+02 -0.54168937585E+02  0.39992453994E+02  0.68370276795E+02  0.47000000000E+01 0.  1.
         -5    1    4    4    0  502 -0.88846411141E+02  0.29276710568E+02  0.84869814840E+02  0.12639535603E+03  0.47000000000E+01 0.  1.
<mgrwt>
<rscale>  0 0.32871404E+03</rscale>
<asrwt>0</asrwt>
<pdfrwt beam="1">  1       21 0.34714333E-01 0.32871404E+03</pdfrwt>
<pdfrwt beam="2">  1       21 0.18417937E-01 0.32871404E+03</pdfrwt>
<totfact> 0.20793278E+05</totfact>
</mgrwt>
</event>
<event>
 8    1  0.9175398E-006  0.3067639E+03  0.7546771E-02  0.1081907E+00
         21   -1    0    0  504  503  0.00000000000E+00  0.00000000000E+00  0.28118619856E+02  0.28118619856E+02  0.00000000000E+00 0.  1.
         21   -1    0    0  503  504 -0.00000000000E+00 -0.00000000000E+00 -0.83667067375E+03  0.83667067375E+03  0.00000000000E+00 0.  1.
         25    2    1    2    0    0  0.42676358059E+01  0.61609116274E+02 -0.58450576604E+03  0.60090348232E+03  0.12499643440E+03 0.  0.
         25    2    1    2    0    0 -0.42676358059E+01 -0.61609116274E+02 -0.22404628785E+03  0.26388581128E+03  0.12500034548E+03 0.  0.
          5    1    3    3  501    0 -0.59432320381E+01  0.19905903671E+02 -0.53409733248E+03  0.53452185883E+03  0.47000000000E+01 0.  1.
         -5    1    3    3    0  501  0.10210867844E+02  0.41703212604E+02 -0.50408433562E+02  0.66381623495E+02  0.47000000000E+01 0.  1.
          5    1    4    4  502    0 -0.38327169968E+01  0.21559422894E+02 -0.15232332197E+03  0.15396097834E+03  0.47000000000E+01 0.  1.
         -5    1    4    4    0  502 -0.43491880909E+00 -0.83168539168E+02 -0.71722965879E+02  0.10992483294E+03  0.47000000000E+01 0.  1.
<mgrwt>
<rscale>  0 0.30676391E+03</rscale>
<asrwt>0</asrwt>
<pdfrwt beam="1">  1       21 0.43259417E-02 0.30676391E+03</pdfrwt>
<pdfrwt beam="2">  1       21 0.12871856E+00 0.30676391E+03</pdfrwt>
<totfact> 0.14632795E+05</totfact>
</mgrwt>
</event>
<event>
 8    1  0.9175398E-006  0.3296340E+03  0.7546771E-02  0.1071299E+00
         21   -1    0    0  504  503  0.00000000000E+00  0.00000000000E+00  0.27084086142E+03  0.27084086142E+03  0.00000000000E+00 0.  1.
         21   -1    0    0  503  504 -0.00000000000E+00 -0.00000000000E+00 -0.10029745736E+03  0.10029745736E+03  0.00000000000E+00 0.  1.
         25    2    1    2    0    0  0.94782967736E+02  0.98769312737E+01  0.29466670640E+02  0.15992964469E+03  0.12501136679E+03 0.  0.
         25    2    1    2    0    0 -0.94782967736E+02 -0.98769312737E+01  0.14107673342E+03  0.21120867409E+03  0.12500037822E+03 0.  0.
          5    1    3    3  501    0  0.65157185146E+02  0.23814445703E+02  0.75890813602E+02  0.10292760655E+03  0.47000000000E+01 0.  1.
         -5    1    3    3    0  501  0.29625782589E+02 -0.13937514429E+02 -0.46424142962E+02  0.57002038141E+02  0.47000000000E+01 0.  1.
          5    1    4    4  502    0 -0.11982950644E+03  0.10865923545E+02  0.12829582750E+03  0.17595194873E+03  0.47000000000E+01 0.  1.
         -5    1    4    4    0  502  0.25046538705E+02 -0.20742854819E+02  0.12780905917E+02  0.35256725362E+02  0.47000000000E+01 0.  1.
<mgrwt>
<rscale>  0 0.32963404E+03</rscale>
<asrwt>0</asrwt>
<pdfrwt beam="1">  1       21 0.41667824E-01 0.32963404E+03</pdfrwt>
<pdfrwt beam="2">  1       21 0.15430378E-01 0.32963404E+03</pdfrwt>
<totfact> 0.19941780E+05</totfact>
</mgrwt>
</event>
<event>
 8    1  0.9175398E-006  0.3487023E+03  0.7546771E-02  0.1063149E+00
         21   -1    0    0  504  503  0.00000000000E+00  0.00000000000E+00  0.14350644825E+03  0.14350644825E+03  0.00000000000E+00 0.  1.
         21   -1    0    0  503  504 -0.00000000000E+00 -0.00000000000E+00 -0.21182545998E+03  0.21182545998E+03  0.00000000000E+00 0.  1.
         25    2    1    2    0    0  0.19381475487E+02 -0.10585996288E+03  0.23412450839E+02  0.16659871572E+03  0.12500006356E+03 0.  0.
         25    2    1    2    0    0 -0.19381475487E+02  0.10585996288E+03 -0.91731462566E+02  0.18873319251E+03  0.12499433346E+03 0.  0.
          5    1    3    3  501    0  0.13984773106E+02 -0.94924522640E+02  0.69580810475E+02  0.11861626391E+03  0.47000000000E+01 0.  1.
         -5    1    3    3    0  501  0.53967023812E+01 -0.10935440240E+02 -0.46168359637E+02  0.47982451807E+02  0.47000000000E+01 0.  1.
          5    1    4    4  502    0  0.48001539168E+02  0.45819520632E+02 -0.68357663229E+02  0.95385724066E+02  0.47000000000E+01 0. -1.
         -5    1    4    4    0  502 -0.67383014654E+02  0.60040442248E+02 -0.23373799337E+02  0.93347468443E+02  0.47000000000E+01 0. -1.
<mgrwt>
<rscale>  0 0.34870228E+03</rscale>
<asrwt>0</asrwt>
<pdfrwt beam="1">  1       21 0.22077915E-01 0.34870228E+03</pdfrwt>
<pdfrwt beam="2">  1       21 0.32588532E-01 0.34870228E+03</pdfrwt>
<totfact> 0.16673662E+05</totfact>
</mgrwt>
</event>
<event>
 8    1  0.9175398E-006  0.3685435E+03  0.7546771E-02  0.1055251E+00
         21   -1    0    0  504  503  0.00000000000E+00  0.00000000000E+00  0.72132030423E+02  0.72132030423E+02  0.00000000000E+00 0. -1.
         21   -1    0    0  503  504 -0.00000000000E+00 -0.00000000000E+00 -0.47074882688E+03  0.47074882688E+03  0.00000000000E+00 0. -1.
         25    2    1    2    0    0 -0.10139761643E+03  0.79330734107E+02 -0.13757984256E+03  0.22611649516E+03  0.12500245724E+03 0.  0.
         25    2    1    2    0    0  0.10139761643E+03 -0.79330734107E+02 -0.26103695390E+03  0.31676436214E+03  0.12499811130E+03 0.  0.
          5    1    3    3  501    0 -0.21679578721E+02  0.74930992382E+02 -0.14722162303E+02  0.79520373589E+02  0.47000000000E+01 0.  1.
         -5    1    3    3    0  501 -0.79718037707E+02  0.43997417258E+01 -0.12285768025E+03  0.14659612157E+03  0.47000000000E+01 0.  1.
          5    1    4    4  502    0  0.35338564495E+02 -0.10185972786E+03 -0.13745481366E+03  0.17475735778E+03  0.47000000000E+01 0. -1.
         -5    1    4    4    0  502  0.66059051932E+02  0.22528993748E+02 -0.12358214024E+03  0.14200700436E+03  0.47000000000E+01 0. -1.
<mgrwt>
<rscale>  0 0.36854345E+03</rscale>
<asrwt>0</asrwt>
<pdfrwt beam="1">  1       21 0.11097235E-01 0.36854345E+03</pdfrwt>
<pdfrwt beam="2">  1       21 0.72422897E-01 0.36854345E+03</pdfrwt>
<totfact> 0.10996878E+05</totfact>
</mgrwt>
</event>
<event>
 8    1  0.9175398E-006  0.3058410E+03  0.7546771E-02  0.1082357E+00
         21   -1    0    0  504  503  0.00000000000E+00  0.00000000000E+00  0.73379075138E+02  0.73379075138E+02  0.00000000000E+00 0. -1.
         21   -1    0    0  503  504 -0.00000000000E+00 -0.00000000000E+00 -0.31868326001E+03  0.31868326001E+03  0.00000000000E+00 0. -1.
         25    2    1    2    0    0  0.12774801405E+02  0.86020047886E+02 -0.10465437649E+03  0.18477367324E+03  0.12500451037E+03 0.  0.
         25    2    1    2    0    0 -0.12774801405E+02 -0.86020047886E+02 -0.14064980839E+03  0.20728866191E+03  0.12499430615E+03 0.  0.
          5    1    3    3  501    0 -0.53185006692E+02  0.16960126252E+02 -0.46970324463E+02  0.73106717882E+02  0.47000000000E+01 0.  1.
         -5    1    3    3    0  501  0.65959808097E+02  0.69059921634E+02 -0.57684052025E+02  0.11166695536E+03  0.47000000000E+01 0.  1.
          5    1    4    4  502    0 -0.24503397711E+02 -0.10854816269E+03 -0.68746034056E+02  0.13088631449E+03  0.47000000000E+01 0.  1.
         -5    1    4    4    0  502  0.11728596306E+02  0.22528114808E+02 -0.71903774330E+02  0.76402347418E+02  0.47000000000E+01 0.  1.
<mgrwt>
<rscale>  0 0.30584102E+03</rscale>
<asrwt>0</asrwt>
<pdfrwt beam="1">  1       21 0.11289088E-01 0.30584102E+03</pdfrwt>
<pdfrwt beam="2">  1       21 0.49028194E-01 0.30584102E+03</pdfrwt>
<totfact> 0.25255446E+05</totfact>
</mgrwt>
</event>
<event>
 8    1  0.9175398E-006  0.4021290E+03  0.7546771E-02  0.1043045E+00
         21   -1    0    0  504  503  0.00000000000E+00  0.00000000000E+00  0.40949636573E+03  0.40949636573E+03  0.00000000000E+00 0.  1.
         21   -1    0    0  503  504 -0.00000000000E+00 -0.00000000000E+00 -0.98723532383E+02  0.98723532383E+02  0.00000000000E+00 0.  1.
         25    2    1    2    0    0 -0.39556185310E+02 -0.74206269397E+02  0.32366156247E+03  0.35700657725E+03  0.12500250782E+03 0.  0.
         25    2    1    2    0    0  0.39556185310E+02  0.74206269397E+02 -0.12888729128E+02  0.15121332086E+03  0.12501234681E+03 0.  0.
          5    1    3    3  501    0 -0.68966409849E+02 -0.42782698202E+02  0.98474065639E+02  0.12769477889E+03  0.47000000000E+01 0.  1.
         -5    1    3    3    0  501  0.29410224539E+02 -0.31423571194E+02  0.22518749683E+03  0.22931179835E+03  0.47000000000E+01 0.  1.
          5    1    4    4  502    0 -0.49231254026E+01 -0.25637653848E+02 -0.30477508843E+02  0.40404145874E+02  0.47000000000E+01 0. -1.
         -5    1    4    4    0  502  0.44479310713E+02  0.99843923244E+02  0.17588779714E+02  0.11080917499E+03  0.47000000000E+01 0. -1.
<mgrwt>
<rscale>  0 0.40212897E+03</rscale>
<asrwt>0</asrwt>
<pdfrwt beam="1">  1       21 0.62999440E-01 0.40212897E+03</pdfrwt>
<pdfrwt beam="2">  1       21 0.15188236E-01 0.40212897E+03</pdfrwt>
<totfact> 0.83917113E+04</totfact>
</mgrwt>
</event>
<event>
 8    1  0.9175398E-006  0.4974604E+03  0.7546771E-02  0.1014444E+00
         21   -1    0    0  504  503  0.00000000000E+00  0.00000000000E+00  0.19592821483E+04  0.19592821483E+04  0.00000000000E+00 0. -1.
         21   -1    0    0  503  504 -0.00000000000E+00 -0.00000000000E+00 -0.31576210972E+02  0.31576210972E+02  0.00000000000E+00 0. -1.
         25    2    1    2    0    0  0.81728126014E+02  0.15064170180E+03  0.44409001924E+03  0.49215397989E+03  0.12500874301E+03 0.  0.
         25    2    1    2    0    0 -0.81728126014E+02 -0.15064170180E+03  0.14836159181E+04  0.14987043794E+04  0.12500486179E+03 0.  0.
          5    1    3    3  501    0  0.94300618955E+02  0.12532902726E+03  0.24451855585E+03  0.29053637632E+03  0.47000000000E+01 0.  1.
         -5    1    3    3    0  501 -0.12572492941E+02  0.25312674545E+02  0.19957146338E+03  0.20161760357E+03  0.47000000000E+01 0.  1.
          5    1    4    4  502    0  0.16834242096E+02 -0.97032962361E+02  0.77483252401E+03  0.78108022491E+03  0.47000000000E+01 0.  1.
         -5    1    4    4    0  502 -0.98562368109E+02 -0.53608739441E+02  0.70878339406E+03  0.71762415445E+03  0.47000000000E+01 0.  1.
<mgrwt>
<rscale>  0 0.49746038E+03</rscale>
<asrwt>0</asrwt>
<pdfrwt beam="1">  1       21 0.30142793E+00 0.49746038E+03</pdfrwt>
<pdfrwt beam="2">  1       21 0.48578801E-02 0.49746038E+03</pdfrwt>
<totfact> 0.77650702E+03</totfact>
</mgrwt>
</event>
<event>
 8    1  0.9175398E-006  0.3407311E+03  0.7546771E-02  0.1066485E+00
         21   -1    0    0  504  503  0.00000000000E+00  0.00000000000E+00  0.86861328631E+02  0.86861328631E+02  0.00000000000E+00 0.  1.
         21   -1    0    0  503  504 -0.00000000000E+00 -0.00000000000E+00 -0.33414669866E+03  0.33414669866E+03  0.00000000000E+00 0.  1.
         25    2    1    2    0    0 -0.17291679521E+02 -0.74009502338E+01 -0.26478097132E+03  0.29340700207E+03  0.12499971937E+03 0.  0.
         25    2    1    2    0    0  0.17291679521E+02  0.74009502338E+01  0.17495601295E+02  0.12760102522E+03  0.12498859679E+03 0.  0.
          5    1    3    3  501    0  0.47734778851E+02 -0.26515294321E+02 -0.84176501451E+02  0.10044622114E+03  0.47000000000E+01 0. -1.
         -5    1    3    3    0  501 -0.65026458372E+02  0.19114344087E+02 -0.18060446987E+03  0.19296078093E+03  0.47000000000E+01 0. -1.
          5    1    4    4  502    0  0.35974722956E+02  0.51732006900E+02  0.39473823570E+02  0.74502711206E+02  0.47000000000E+01 0.  1.
         -5    1    4    4    0  502 -0.18683043435E+02 -0.44331056667E+02 -0.21978222276E+02  0.53098314018E+02  0.47000000000E+01 0.  1.
<mgrwt>
<rscale>  0 0.34073113E+03</rscale>
<asrwt>0</asrwt>
<pdfrwt beam="1">  1       21 0.13363281E-01 0.34073113E+03</pdfrwt>
<pdfrwt beam="2">  1       21 0.51407185E-01 0.34073113E+03</pdfrwt>
<totfact> 0.16706747E+05</totfact>
</mgrwt>
</event>
<event>
 8    1  0.9175398E-006  0.4499883E+03  0.7546771E-02  0.1027726E+00
         21   -1    0    0  504  503  0.00000000000E+00  0.00000000000E+00  0.33460891061E+03  0.33460891061E+03  0.00000000000E+00 0. -1.
         21   -1    0    0  503  504 -0.00000000000E+00 -0.00000000000E+00 -0.15128817937E+03  0.15128817937E+03  0.00000000000E+00 0. -1.
         25    2    1    2    0    0 -0.99629339631E+02  0.14250306221E+03  0.16619451969E+03  0.27107273579E+03  0.12500672647E+03 0.  0.
         25    2    1    2    0    0  0.99629339631E+02 -0.14250306221E+03  0.17126211556E+02  0.21482435419E+03  0.12499227167E+03 0.  0.
          5    1    3    3  501    0 -0.71585852072E+02  0.50361197605E+02  0.10971953908E+02  0.88336052740E+02  0.47000000000E+01 0.  1.
         -5    1    3    3    0  501 -0.28043487559E+02  0.92141864602E+02  0.15522256578E+03  0.18273668305E+03  0.47000000000E+01 0.  1.
          5    1    4    4  502    0 -0.62247135190E+01 -0.99141033630E+02  0.32692167383E+01  0.99501102434E+02  0.47000000000E+01 0.  1.
         -5    1    4    4    0  502  0.10585405315E+03 -0.43362028577E+02  0.13856994817E+02  0.11532325176E+03  0.47000000000E+01 0.  1.
<mgrwt>
<rscale>  0 0.44998832E+03</rscale>
<asrwt>0</asrwt>
<pdfrwt beam="1">  1       21 0.51478294E-01 0.44998832E+03</pdfrwt>
<pdfrwt beam="2">  1       21 0.23275105E-01 0.44998832E+03</pdfrwt>
<totfact> 0.57439473E+04</totfact>
</mgrwt>
</event>
<event>
 8    1  0.9175398E-006  0.3187610E+03  0.7546771E-02  0.1076221E+00
         21   -1    0    0  504  503  0.00000000000E+00  0.00000000000E+00  0.11414396930E+03  0.11414396930E+03  0.00000000000E+00 0. -1.
         21   -1    0    0  503  504 -0.00000000000E+00 -0.00000000000E+00 -0.22254481164E+03  0.22254481164E+03  0.00000000000E+00 0. -1.
         25    2    1    2    0    0  0.20780727303E+02 -0.88503096727E+02 -0.13116812994E+02  0.15511880435E+03  0.12500062369E+03 0.  0.
         25    2    1    2    0    0 -0.20780727303E+02  0.88503096727E+02 -0.95284029341E+02  0.18156997659E+03  0.12499589351E+03 0.  0.
          5    1    3    3  501    0  0.37173526898E+02 -0.41105869931E+02 -0.63128902795E+02  0.84136270496E+02  0.47000000000E+01 0.  1.
         -5    1    3    3    0  501 -0.16392799594E+02 -0.47397226796E+02  0.50012089802E+02  0.70982533857E+02  0.47000000000E+01 0.  1.
          5    1    4    4  502    0  0.43652252127E+02  0.25272297428E+01 -0.44762438357E+02  0.62750871656E+02  0.47000000000E+01 0. -1.
         -5    1    4    4    0  502 -0.64432979430E+02  0.85975866984E+02 -0.50521590985E+02  0.11881910494E+03  0.47000000000E+01 0. -1.
<mgrwt>
<rscale>  0 0.31876103E+03</rscale>
<asrwt>0</asrwt>
<pdfrwt beam="1">  1       21 0.17560611E-01 0.31876103E+03</pdfrwt>
<pdfrwt beam="2">  1       21 0.34237663E-01 0.31876103E+03</pdfrwt>
<totfact> 0.23418417E+05</totfact>
</mgrwt>
</event>
<event>
 8    1  0.9175398E-006  0.2563313E+03  0.7546771E-02  0.1109368E+00
         21   -1    0    0  504  503  0.00000000000E+00  0.00000000000E+00  0.39448359176E+02  0.39448359176E+02  0.00000000000E+00 0. -1.
         21   -1    0    0  503  504 -0.00000000000E+00 -0.00000000000E+00 -0.41640345177E+03  0.41640345177E+03  0.00000000000E+00 0. -1.
         25    2    1    2    0    0 -0.74212849969E+01 -0.20294334346E+02 -0.15599664789E+03  0.20106472897E+03  0.12500054241E+03 0.  0.
         25    2    1    2    0    0  0.74212849969E+01  0.20294334346E+02 -0.22095844470E+03  0.25478708198E+03  0.12500754930E+03 0.  0.
          5    1    3    3  501    0  0.44307208380E+02 -0.10393186029E+02 -0.13771614908E+03  0.14511710702E+03  0.47000000000E+01 0. -1.
         -5    1    3    3    0  501 -0.51728493377E+02 -0.99011483165E+01 -0.18280498808E+02  0.55947621949E+02  0.47000000000E+01 0. -1.
          5    1    4    4  502    0 -0.39559761968E+02  0.54520505447E+02 -0.13452259098E+03  0.15051869573E+03  0.47000000000E+01 0.  1.
         -5    1    4    4    0  502  0.46981046965E+02 -0.34226171101E+02 -0.86435853720E+02  0.10426838625E+03  0.47000000000E+01 0.  1.
<mgrwt>
<rscale>  0 0.25633129E+03</rscale>
<asrwt>0</asrwt>
<pdfrwt beam="1">  1       21 0.60689783E-02 0.25633129E+03</pdfrwt>
<pdfrwt beam="2">  1       21 0.64062070E-01 0.25633129E+03</pdfrwt>
<totfact> 0.42877515E+05</totfact>
</mgrwt>
</event>
<event>
 8    1  0.9175398E-006  0.2777497E+03  0.7546771E-02  0.1096924E+00
         21   -1    0    0  504  503  0.00000000000E+00  0.00000000000E+00  0.35641656106E+03  0.35641656106E+03  0.00000000000E+00 0.  1.
         21   -1    0    0  503  504 -0.00000000000E+00 -0.00000000000E+00 -0.54111471269E+02  0.54111471269E+02  0.00000000000E+00 0.  1.
         25    2    1    2    0    0 -0.25360924074E+01 -0.11699040248E+02  0.63460565517E+02  0.14068611235E+03  0.12498815754E+03 0.  0.
         25    2    1    2    0    0  0.25360924074E+01  0.11699040248E+02  0.23884452428E+03  0.26984191998E+03  0.12499862277E+03 0.  0.
          5    1    3    3  501    0  0.17157458240E+02  0.44308790607E+02 -0.71880752787E+01  0.48284632384E+02  0.47000000000E+01 0.  1.
         -5    1    3    3    0  501 -0.19693550647E+02 -0.56007830854E+02  0.70648640796E+02  0.92401479969E+02  0.47000000000E+01 0.  1.
          5    1    4    4  502    0  0.35367042870E+02 -0.16528466001E+02  0.21807447545E+03  0.22159103040E+03  0.47000000000E+01 0. -1.
         -5    1    4    4    0  502 -0.32830950463E+02  0.28227506248E+02  0.20770048828E+02  0.48250889583E+02  0.47000000000E+01 0. -1.
<mgrwt>
<rscale>  0 0.27774970E+03</rscale>
<asrwt>0</asrwt>
<pdfrwt beam="1">  1       21 0.54833316E-01 0.27774970E+03</pdfrwt>
<pdfrwt beam="2">  1       21 0.83248420E-02 0.27774970E+03</pdfrwt>
<totfact> 0.34457803E+05</totfact>
</mgrwt>
</event>
<event>
 8    1  0.9175398E-006  0.2571478E+03  0.7546771E-02  0.1108869E+00
         21   -1    0    0  504  503  0.00000000000E+00  0.00000000000E+00  0.10256290292E+02  0.10256290292E+02  0.00000000000E+00 0.  1.
         21   -1    0    0  503  504 -0.00000000000E+00 -0.00000000000E+00 -0.16118150419E+04  0.16118150419E+04  0.00000000000E+00 0.  1.
         25    2    1    2    0    0 -0.28456017901E+02  0.97918254505E+01 -0.80764118844E+03  0.81781011653E+03  0.12499389044E+03 0.  0.
         25    2    1    2    0    0  0.28456017901E+02 -0.97918254505E+01 -0.79391756318E+03  0.80426121567E+03  0.12500152439E+03 0.  0.
          5    1    3    3  501    0 -0.51611900847E+02  0.54622395152E+02 -0.39938580183E+03  0.40642158292E+03  0.47000000000E+01 0.  1.
         -5    1    3    3    0  501  0.23155882947E+02 -0.44830569701E+02 -0.40825538661E+03  0.41138853362E+03  0.47000000000E+01 0.  1.
          5    1    4    4  502    0  0.76243038928E+02 -0.16678014099E+02 -0.55386122412E+03  0.55935275339E+03  0.47000000000E+01 0.  1.
         -5    1    4    4    0  502 -0.47787021027E+02  0.68861886482E+01 -0.24005633906E+03  0.24490846228E+03  0.47000000000E+01 0.  1.
<mgrwt>
<rscale>  0 0.25714776E+03</rscale>
<asrwt>0</asrwt>
<pdfrwt beam="1">  1       21 0.15778908E-02 0.25714776E+03</pdfrwt>
<pdfrwt beam="2">  1       21 0.24797155E+00 0.25714776E+03</pdfrwt>
<totfact> 0.11885579E+05</totfact>
</mgrwt>
</event>
<event>
 8    1  0.9175398E-006  0.3802407E+03  0.7546771E-02  0.1050845E+00
         21   -1    0    0  504  503  0.00000000000E+00  0.00000000000E+00  0.12994352071E+03  0.12994352071E+03  0.00000000000E+00 0.  1.
         21   -1    0    0  503  504 -0.00000000000E+00 -0.00000000000E+00 -0.27816511149E+03  0.27816511149E+03  0.00000000000E+00 0.  1.
         25    2    1    2    0    0 -0.83150742166E+02 -0.43309349111E+02 -0.19037155523E+03  0.24628245895E+03  0.12499589954E+03 0.  0.
         25    2    1    2    0    0  0.83150742166E+02  0.43309349111E+02  0.42149964449E+02  0.16182617325E+03  0.12498537996E+03 0.  0.
          5    1    3    3  501    0 -0.10784557714E+03 -0.35033859035E+02 -0.97201162984E+02  0.14942622218E+03  0.47000000000E+01 0. -1.
         -5    1    3    3    0  501  0.24694834978E+02 -0.82754900763E+01 -0.93170392241E+02  0.96856236769E+02  0.47000000000E+01 0. -1.
          5    1    4    4  502    0  0.88540436183E+02  0.79656572598E+02  0.31619258741E+02  0.12331441895E+03  0.47000000000E+01 0. -1.
         -5    1    4    4    0  502 -0.53896940168E+01 -0.36347223486E+02  0.10530705708E+02  0.38511754303E+02  0.47000000000E+01 0. -1.
<mgrwt>
<rscale>  0 0.38024073E+03</rscale>
<asrwt>0</asrwt>
<pdfrwt beam="1">  1       21 0.19991311E-01 0.38024073E+03</pdfrwt>
<pdfrwt beam="2">  1       21 0.42794632E-01 0.38024073E+03</pdfrwt>
<totfact> 0.11503385E+05</totfact>
</mgrwt>
</event>
<event>
 8    1  0.9175398E-006  0.2921873E+03  0.7546771E-02  0.1089213E+00
         21   -1    0    0  504  503  0.00000000000E+00  0.00000000000E+00  0.64605989424E+02  0.64605989424E+02  0.00000000000E+00 0. -1.
         21   -1    0    0  503  504 -0.00000000000E+00 -0.00000000000E+00 -0.33036187000E+03  0.33036187000E+03  0.00000000000E+00 0. -1.
         25    2    1    2    0    0 -0.36768140271E+02  0.46817173228E+02 -0.69836730122E+02  0.15506431515E+03  0.12499611638E+03 0.  0.
         25    2    1    2    0    0  0.36768140271E+02 -0.46817173228E+02 -0.19591915045E+03  0.23990354427E+03  0.12500261275E+03 0.  0.
          5    1    3    3  501    0  0.63116770905E+01 -0.21998735123E+02 -0.69941085010E+02  0.73740267067E+02  0.47000000000E+01 0.  1.
         -5    1    3    3    0  501 -0.43079817361E+02  0.68815908352E+02  0.10435488763E+00  0.81324048080E+02  0.47000000000E+01 0.  1.
          5    1    4    4  502    0  0.82508869434E+02 -0.36436655568E+02 -0.14193872628E+03  0.16823803204E+03  0.47000000000E+01 0. -1.
         -5    1    4    4    0  502 -0.45740729163E+02 -0.10380517661E+02 -0.53980424167E+02  0.71665512239E+02  0.47000000000E+01 0. -1.
<mgrwt>
<rscale>  0 0.29218731E+03</rscale>
<asrwt>0</asrwt>
<pdfrwt beam="1">  1       21 0.99393831E-02 0.29218731E+03</pdfrwt>
<pdfrwt beam="2">  1       21 0.50824902E-01 0.29218731E+03</pdfrwt>
<totfact> 0.29490067E+05</totfact>
</mgrwt>
</event>
<event>
 8    1  0.9175398E-006  0.2755362E+03  0.7546771E-02  0.1098152E+00
         21   -1    0    0  504  503  0.00000000000E+00  0.00000000000E+00  0.42501536749E+03  0.42501536749E+03  0.00000000000E+00 0. -1.
         21   -1    0    0  503  504 -0.00000000000E+00 -0.00000000000E+00 -0.44657332791E+02  0.44657332791E+02  0.00000000000E+00 0. -1.
         25    2    1    2    0    0 -0.21021366517E+02  0.37383278058E+02  0.12382631283E+03  0.18110320734E+03  0.12500403446E+03 0.  0.
         25    2    1    2    0    0  0.21021366517E+02 -0.37383278058E+02  0.25653172187E+03  0.28856949294E+03  0.12499768239E+03 0.  0.
          5    1    3    3  501    0  0.30360268910E+02 -0.32111963962E+02  0.31006036374E+02  0.54188453100E+02  0.47000000000E+01 0. -1.
         -5    1    3    3    0  501 -0.51381635427E+02  0.69495242019E+02  0.92820276456E+02  0.12691475424E+03  0.47000000000E+01 0. -1.
          5    1    4    4  502    0  0.71347673038E+01  0.33947538551E+02  0.18390538891E+02  0.39542915913E+02  0.47000000000E+01 0.  1.
         -5    1    4    4    0  502  0.13886599213E+02 -0.71330816609E+02  0.23814118298E+03  0.24902657703E+03  0.47000000000E+01 0.  1.
<mgrwt>
<rscale>  0 0.27553622E+03</rscale>
<asrwt>0</asrwt>
<pdfrwt beam="1">  1       21 0.65386977E-01 0.27553622E+03</pdfrwt>
<pdfrwt beam="2">  1       21 0.68703592E-02 0.27553622E+03</pdfrwt>
<totfact> 0.32942060E+05</totfact>
</mgrwt>
</event>
<event>
 8    1  0.9175398E-006  0.2712830E+03  0.7546771E-02  0.1100548E+00
         21   -1    0    0  504  503  0.00000000000E+00  0.00000000000E+00  0.37865133461E+03  0.37865133461E+03  0.00000000000E+00 0. -1.
         21   -1    0    0  503  504 -0.00000000000E+00 -0.00000000000E+00 -0.48589869219E+02  0.48589869219E+02  0.00000000000E+00 0. -1.
         25    2    1    2    0    0 -0.40037204557E+02  0.34204341366E+02  0.16547564535E+03  0.21396370282E+03  0.12500144881E+03 0.  0.
         25    2    1    2    0    0  0.40037204557E+02 -0.34204341366E+02  0.16458582004E+03  0.21327750101E+03  0.12500354219E+03 0.  0.
          5    1    3    3  501    0 -0.17881049518E+02  0.12326474713E+02 -0.17508471506E+02  0.28289759370E+02  0.47000000000E+01 0. -1.
         -5    1    3    3    0  501 -0.22156155039E+02  0.21877866653E+02  0.18298411686E+03  0.18567394345E+03  0.47000000000E+01 0. -1.
          5    1    4    4  502    0  0.29658358098E+02  0.69880493588E+01  0.16761914310E+03  0.17043097774E+03  0.47000000000E+01 0.  1.
         -5    1    4    4    0  502  0.10378846459E+02 -0.41192390725E+02 -0.30333230597E+01  0.42846523269E+02  0.47000000000E+01 0.  1.
<mgrwt>
<rscale>  0 0.27128302E+03</rscale>
<asrwt>0</asrwt>
<pdfrwt beam="1">  1       21 0.58254050E-01 0.27128302E+03</pdfrwt>
<pdfrwt beam="2">  1       21 0.74753647E-02 0.27128302E+03</pdfrwt>
<totfact> 0.36596939E+05</totfact>
</mgrwt>
</event>
<event>
 8    1  0.9175398E-006  0.2623548E+03  0.7546771E-02  0.1105737E+00
         21   -1    0    0  504  503  0.00000000000E+00  0.00000000000E+00  0.24956172923E+02  0.24956172923E+02  0.00000000000E+00 0. -1.
         21   -1    0    0  503  504 -0.00000000000E+00 -0.00000000000E+00 -0.68950942315E+03  0.68950942315E+03  0.00000000000E+00 0. -1.
         25    2    1    2    0    0  0.25403477914E+02  0.26769930040E+02 -0.29219099414E+03  0.31994572146E+03  0.12501088664E+03 0.  0.
         25    2    1    2    0    0 -0.25403477914E+02 -0.26769930040E+02 -0.37236225609E+03  0.39451987462E+03  0.12502126165E+03 0.  0.
          5    1    3    3  501    0  0.45379905860E+02  0.66830331421E+02 -0.14528994495E+03  0.16630359935E+03  0.47000000000E+01 0. -1.
         -5    1    3    3    0  501 -0.19976427946E+02 -0.40060401381E+02 -0.14690104920E+03  0.15364212211E+03  0.47000000000E+01 0. -1.
          5    1    4    4  502    0  0.35435165104E+02 -0.30556866310E+02 -0.27890412610E+03  0.28284089973E+03  0.47000000000E+01 0. -1.
         -5    1    4    4    0  502 -0.60838643018E+02  0.37869362706E+01 -0.93458129985E+02  0.11167897488E+03  0.47000000000E+01 0. -1.
<mgrwt>
<rscale>  0 0.26235485E+03</rscale>
<asrwt>0</asrwt>
<pdfrwt beam="1">  1       21 0.38394116E-02 0.26235485E+03</pdfrwt>
<pdfrwt beam="2">  1       21 0.10607836E+00 0.26235485E+03</pdfrwt>
<totfact> 0.29322938E+05</totfact>
</mgrwt>
</event>
<event>
 8    1  0.9175398E-006  0.2990823E+03  0.7546771E-02  0.1085700E+00
         21   -1    0    0  504  503  0.00000000000E+00  0.00000000000E+00  0.30616028102E+02  0.30616028102E+02  0.00000000000E+00 0.  1.
         21   -1    0    0  503  504 -0.00000000000E+00 -0.00000000000E+00 -0.73041966267E+03  0.73041966267E+03  0.00000000000E+00 0.  1.
         25    2    1    2    0    0  0.13754027491E+02  0.37774303840E+02 -0.53200996443E+03  0.54797333712E+03  0.12499641852E+03 0.  0.
         25    2    1    2    0    0 -0.13754027491E+02 -0.37774303840E+02 -0.16779367014E+03  0.21306235365E+03  0.12499911800E+03 0.  0.
          5    1    3    3  501    0  0.27109492771E+02  0.67676001711E+02 -0.17782709357E+03  0.19224861772E+03  0.47000000000E+01 0. -1.
         -5    1    3    3    0  501 -0.13355465280E+02 -0.29901697870E+02 -0.35418287085E+03  0.35572471940E+03  0.47000000000E+01 0. -1.
          5    1    4    4  502    0 -0.64895879796E+02 -0.38998648839E+02 -0.12492686084E+03  0.14615464544E+03  0.47000000000E+01 0. -1.
         -5    1    4    4    0  502  0.51141852305E+02  0.12243449986E+01 -0.42866809306E+02  0.66907708210E+02  0.47000000000E+01 0. -1.
<mgrwt>
<rscale>  0 0.29908226E+03</rscale>
<asrwt>0</asrwt>
<pdfrwt beam="1">  1       21 0.47101588E-02 0.29908226E+03</pdfrwt>
<pdfrwt beam="2">  1       21 0.11237224E+00 0.29908226E+03</pdfrwt>
<totfact> 0.17838999E+05</totfact>
</mgrwt>
</event>
<event>
 8    1  0.9175398E-006  0.2837182E+03  0.7546771E-02  0.1093675E+00
         21   -1    0    0  504  503  0.00000000000E+00  0.00000000000E+00  0.30988933056E+02  0.30988933056E+02  0.00000000000E+00 0.  1.
         21   -1    0    0  503  504 -0.00000000000E+00 -0.00000000000E+00 -0.64939325176E+03  0.64939325176E+03  0.00000000000E+00 0.  1.
         25    2    1    2    0    0  0.26981418327E+02 -0.39809984995E+01 -0.16223960390E+03  0.20661977598E+03  0.12500478979E+03 0.  0.
         25    2    1    2    0    0 -0.26981418327E+02  0.39809984995E+01 -0.45616471480E+03  0.47376240883E+03  0.12498290966E+03 0.  0.
          5    1    3    3  501    0 -0.42176023581E+01 -0.21524577308E+02 -0.16849474814E+03  0.16998136883E+03  0.47000000000E+01 0. -1.
         -5    1    3    3    0  501  0.31199020686E+02  0.17543578808E+02  0.62551442419E+01  0.36638407152E+02  0.47000000000E+01 0. -1.
          5    1    4    4  502    0 -0.54389329876E+02 -0.15469491618E+02 -0.42131877825E+03  0.42512246151E+03  0.47000000000E+01 0.  1.
         -5    1    4    4    0  502  0.27407911548E+02  0.19450490117E+02 -0.34845936553E+02  0.48639947322E+02  0.47000000000E+01 0.  1.
<mgrwt>
<rscale>  0 0.28371820E+03</rscale>
<asrwt>0</asrwt>
<pdfrwt beam="1">  1       21 0.47675277E-02 0.28371820E+03</pdfrwt>
<pdfrwt beam="2">  1       21 0.99906663E-01 0.28371820E+03</pdfrwt>
<totfact> 0.23357176E+05</totfact>
</mgrwt>
</event>
<event>
 8    1  0.9175398E-006  0.2752849E+03  0.7546771E-02  0.1098292E+00
         21   -1    0    0  504  503  0.00000000000E+00  0.00000000000E+00  0.92120033467E+02  0.92120033467E+02  0.00000000000E+00 0. -1.
         21   -1    0    0  503  504 -0.00000000000E+00 -0.00000000000E+00 -0.20566038111E+03  0.20566038111E+03  0.00000000000E+00 0. -1.
         25    2    1    2    0    0  0.37339782968E+01  0.90477067829E+01  0.46719725424E+01  0.12546013103E+03  0.12499045387E+03 0.  0.
         25    2    1    2    0    0 -0.37339782968E+01 -0.90477067829E+01 -0.11821232018E+03  0.17232028355E+03  0.12499729551E+03 0.  0.
          5    1    3    3  501    0 -0.47228708313E+02 -0.32731338901E+02  0.12310365747E+02  0.58953596498E+02  0.47000000000E+01 0.  1.
         -5    1    3    3    0  501  0.50962686610E+02  0.41779045684E+02 -0.76383932041E+01  0.66506534533E+02  0.47000000000E+01 0.  1.
          5    1    4    4  502    0  0.24854194727E+02 -0.17209573271E+02  0.16172736146E+02  0.34605603623E+02  0.47000000000E+01 0. -1.
         -5    1    4    4    0  502 -0.28588173024E+02  0.81618664879E+01 -0.13438505633E+03  0.13771467992E+03  0.47000000000E+01 0. -1.
<mgrwt>
<rscale>  0 0.27528488E+03</rscale>
<asrwt>0</asrwt>
<pdfrwt beam="1">  1       21 0.14172313E-01 0.27528488E+03</pdfrwt>
<pdfrwt beam="2">  1       21 0.31640058E-01 0.27528488E+03</pdfrwt>
<totfact> 0.41049571E+05</totfact>
</mgrwt>
</event>
<event>
 8    1  0.9175398E-006  0.3112264E+03  0.7546771E-02  0.1079760E+00
         21   -1    0    0  504  503  0.00000000000E+00  0.00000000000E+00  0.21185696695E+03  0.21185696695E+03  0.00000000000E+00 0.  1.
         21   -1    0    0  503  504 -0.00000000000E+00 -0.00000000000E+00 -0.11430100925E+03  0.11430100925E+03  0.00000000000E+00 0.  1.
         25    2    1    2    0    0 -0.49246262321E+02  0.34019431452E+02 -0.25383903543E+02  0.14089575024E+03  0.12499901523E+03 0.  0.
         25    2    1    2    0    0  0.49246262321E+02 -0.34019431452E+02  0.12293986124E+03  0.18526222596E+03  0.12500146725E+03 0.  0.
          5    1    3    3  501    0 -0.40390655704E+02  0.54410506672E+02  0.34974738225E+02  0.76401771043E+02  0.47000000000E+01 0.  1.
         -5    1    3    3    0  501 -0.88556066173E+01 -0.20391075220E+02 -0.60358641768E+02  0.64493979202E+02  0.47000000000E+01 0.  1.
          5    1    4    4  502    0 -0.19950118116E+01 -0.49608383475E+02 -0.13001143144E+01  0.49887394002E+02  0.47000000000E+01 0. -1.
         -5    1    4    4    0  502  0.51241274133E+02  0.15588952023E+02  0.12423997556E+03  0.13537483195E+03  0.47000000000E+01 0. -1.
<mgrwt>
<rscale>  0 0.31122638E+03</rscale>
<asrwt>0</asrwt>
<pdfrwt beam="1">  1       21 0.32593380E-01 0.31122638E+03</pdfrwt>
<pdfrwt beam="2">  1       21 0.17584771E-01 0.31122638E+03</pdfrwt>
<totfact> 0.25808925E+05</totfact>
</mgrwt>
</event>
<event>
 8    1  0.9175398E-006  0.2698093E+03  0.7546771E-02  0.1101389E+00
         21   -1    0    0  504  503  0.00000000000E+00  0.00000000000E+00  0.15667425885E+02  0.15667425885E+02  0.00000000000E+00 0. -1.
         21   -1    0    0  503  504 -0.00000000000E+00 -0.00000000000E+00 -0.11615986074E+04  0.11615986074E+04  0.00000000000E+00 0. -1.
         25    2    1    2    0    0  0.46430386906E+01  0.22081096771E+02 -0.37407159924E+03  0.39502494439E+03  0.12492402766E+03 0.  0.
         25    2    1    2    0    0 -0.46430386906E+01 -0.22081096771E+02 -0.77185958225E+03  0.78224108887E+03  0.12499909507E+03 0.  0.
          5    1    3    3  501    0 -0.16254497570E+01  0.14014580457E+02  0.50740109702E+01  0.15712610847E+02  0.47000000000E+01 0.  1.
         -5    1    3    3    0  501  0.62684884476E+01  0.80665163135E+01 -0.37914561021E+03  0.37931233354E+03  0.47000000000E+01 0.  1.
          5    1    4    4  502    0  0.48614553894E+02  0.18972504316E+02 -0.47193736469E+03  0.47483712677E+03  0.47000000000E+01 0. -1.
         -5    1    4    4    0  502 -0.53257592585E+02 -0.41053601086E+02 -0.29992221756E+03  0.30740396210E+03  0.47000000000E+01 0. -1.
<mgrwt>
<rscale>  0 0.26980927E+03</rscale>
<asrwt>0</asrwt>
<pdfrwt beam="1">  1       21 0.24103727E-02 0.26980927E+03</pdfrwt>
<pdfrwt beam="2">  1       21 0.17870752E+00 0.26980927E+03</pdfrwt>
<totfact> 0.16300425E+05</totfact>
</mgrwt>
</event>
<event>
 8    1  0.9175398E-006  0.2822483E+03  0.7546771E-02  0.1094467E+00
         21   -1    0    0  504  503  0.00000000000E+00  0.00000000000E+00  0.31339429621E+03  0.31339429621E+03  0.00000000000E+00 0.  1.
         21   -1    0    0  503  504 -0.00000000000E+00 -0.00000000000E+00 -0.63549419579E+02  0.63549419579E+02  0.00000000000E+00 0.  1.
         25    2    1    2    0    0  0.55049963805E+02 -0.31617534527E+02  0.10334863738E+03  0.17417321218E+03  0.12500079995E+03 0.  0.
         25    2    1    2    0    0 -0.55049963805E+02  0.31617534527E+02  0.14649623924E+03  0.20277050361E+03  0.12499824805E+03 0.  0.
          5    1    3    3  501    0  0.62024178575E+02 -0.74083122187E+02  0.75353396049E+02  0.12261946019E+03  0.47000000000E+01 0. -1.
         -5    1    3    3    0  501 -0.69742147702E+01  0.42465587660E+02  0.27995241335E+02  0.51553751991E+02  0.47000000000E+01 0. -1.
          5    1    4    4  502    0 -0.83015788854E+02  0.44565289244E+02  0.62468331707E+02  0.11314622694E+03  0.47000000000E+01 0.  1.
         -5    1    4    4    0  502  0.27965825049E+02 -0.12947754717E+02  0.84027907538E+02  0.89624276667E+02  0.47000000000E+01 0.  1.
<mgrwt>
<rscale>  0 0.28224830E+03</rscale>
<asrwt>0</asrwt>
<pdfrwt beam="1">  1       21 0.48214506E-01 0.28224830E+03</pdfrwt>
<pdfrwt beam="2">  1       21 0.97768339E-02 0.28224830E+03</pdfrwt>
<totfact> 0.33997188E+05</totfact>
</mgrwt>
</event>
<event>
 8    1  0.9175398E-006  0.2901953E+03  0.7546771E-02  0.1090247E+00
         21   -1    0    0  504  503  0.00000000000E+00  0.00000000000E+00  0.49371919207E+03  0.49371919207E+03  0.00000000000E+00 0. -1.
         21   -1    0    0  503  504 -0.00000000000E+00 -0.00000000000E+00 -0.42642319334E+02  0.42642319334E+02  0.00000000000E+00 0. -1.
         25    2    1    2    0    0  0.54244106790E+02 -0.22482542814E+02  0.30784037343E+03  0.33739190718E+03  0.12497886085E+03 0.  0.
         25    2    1    2    0    0 -0.54244106790E+02  0.22482542814E+02  0.14323649930E+03  0.19896960423E+03  0.12499728326E+03 0.  0.
          5    1    3    3  501    0  0.33189643568E+02 -0.14096582592E+01  0.60414408587E+01  0.34090007102E+02  0.47000000000E+01 0.  1.
         -5    1    3    3    0  501  0.21054463221E+02 -0.21072884555E+02  0.30179893257E+03  0.30330190007E+03  0.47000000000E+01 0.  1.
          5    1    4    4  502    0  0.35761504242E+02  0.30671972013E+02  0.55027795725E+02  0.72593411238E+02  0.47000000000E+01 0. -1.
         -5    1    4    4    0  502 -0.90005611032E+02 -0.81894291990E+01  0.88208703578E+02  0.12637619299E+03  0.47000000000E+01 0. -1.
<mgrwt>
<rscale>  0 0.29019532E+03</rscale>
<asrwt>0</asrwt>
<pdfrwt beam="1">  1       21 0.75956795E-01 0.29019532E+03</pdfrwt>
<pdfrwt beam="2">  1       21 0.65603572E-02 0.29019532E+03</pdfrwt>
<totfact> 0.25473964E+05</totfact>
</mgrwt>
</event>
<event>
 8    1  0.9175398E-006  0.4487027E+03  0.7546771E-02  0.1028110E+00
         21   -1    0    0  504  503  0.00000000000E+00  0.00000000000E+00  0.56322851753E+02  0.56322851753E+02  0.00000000000E+00 0.  1.
         21   -1    0    0  503  504 -0.00000000000E+00 -0.00000000000E+00 -0.89366066707E+03  0.89366066707E+03  0.00000000000E+00 0.  1.
         25    2    1    2    0    0 -0.11142628377E+03  0.12052487039E+03 -0.23205946035E+03  0.31050763795E+03  0.12498535511E+03 0.  0.
         25    2    1    2    0    0  0.11142628377E+03 -0.12052487039E+03 -0.60527835497E+03  0.63947588087E+03  0.12500181648E+03 0.  0.
          5    1    3    3  501    0 -0.30276810438E+02  0.10860088606E+03 -0.18248247277E+03  0.21455251239E+03  0.47000000000E+01 0.  1.
         -5    1    3    3    0  501 -0.81149473333E+02  0.11923984324E+02 -0.49576987574E+02  0.95955125560E+02  0.47000000000E+01 0.  1.
          5    1    4    4  502    0  0.31195498137E+02  0.24879083238E+02 -0.11611579072E+03  0.12287023537E+03  0.47000000000E+01 0. -1.
         -5    1    4    4    0  502  0.80230785633E+02 -0.14540395363E+03 -0.48916256425E+03  0.51660564550E+03  0.47000000000E+01 0. -1.
<mgrwt>
<rscale>  0 0.44870265E+03</rscale>
<asrwt>0</asrwt>
<pdfrwt beam="1">  1       21 0.86650542E-02 0.44870265E+03</pdfrwt>
<pdfrwt beam="2">  1       21 0.13748625E+00 0.44870265E+03</pdfrwt>
<totfact> 0.35454040E+04</totfact>
</mgrwt>
</event>
<event>
 8    1  0.9175398E-006  0.3384974E+03  0.7546771E-02  0.1067438E+00
         21   -1    0    0  504  503  0.00000000000E+00  0.00000000000E+00  0.26495777976E+03  0.26495777976E+03  0.00000000000E+00 0.  1.
         21   -1    0    0  503  504 -0.00000000000E+00 -0.00000000000E+00 -0.10811201387E+03  0.10811201387E+03  0.00000000000E+00 0.  1.
         25    2    1    2    0    0  0.76736939324E+02 -0.56621450386E+02  0.93880464697E+01  0.15751487407E+03  0.12501301387E+03 0.  0.
         25    2    1    2    0    0 -0.76736939324E+02  0.56621450386E+02  0.14745771942E+03  0.21555491956E+03  0.12500239130E+03 0.  0.
          5    1    3    3  501    0  0.83837860723E+01 -0.81893279629E+02 -0.67332186320E+01  0.82729821410E+02  0.47000000000E+01 0. -1.
         -5    1    3    3    0  501  0.68353153252E+02  0.25271829243E+02  0.16121265102E+02  0.74785052659E+02  0.47000000000E+01 0. -1.
          5    1    4    4  502    0 -0.10705695952E+03  0.37245546720E+02  0.79549416035E+02  0.13855909542E+03  0.47000000000E+01 0.  1.
         -5    1    4    4    0  502  0.30320020195E+02  0.19375903666E+02  0.67908303381E+02  0.76995824144E+02  0.47000000000E+01 0.  1.
<mgrwt>
<rscale>  0 0.33849738E+03</rscale>
<asrwt>0</asrwt>
<pdfrwt beam="1">  1       21 0.40762735E-01 0.33849738E+03</pdfrwt>
<pdfrwt beam="2">  1       21 0.16632618E-01 0.33849738E+03</pdfrwt>
<totfact> 0.18121006E+05</totfact>
</mgrwt>
</event>
<event>
 8    1  0.9175398E-006  0.4033045E+03  0.7546771E-02  0.1042641E+00
         21   -1    0    0  504  503  0.00000000000E+00  0.00000000000E+00  0.11913518731E+04  0.11913518731E+04  0.00000000000E+00 0. -1.
         21   -1    0    0  503  504 -0.00000000000E+00 -0.00000000000E+00 -0.34132348349E+02  0.34132348349E+02  0.00000000000E+00 0. -1.
         25    2    1    2    0    0  0.41156459671E+01  0.13482012604E+03  0.83001989275E+03  0.85014794200E+03  0.12500038399E+03 0.  0.
         25    2    1    2    0    0 -0.41156459671E+01 -0.13482012604E+03  0.32719963196E+03  0.37533627941E+03  0.12499727420E+03 0.  0.
          5    1    3    3  501    0  0.21489945387E+02  0.15296824446E+03  0.63883373769E+03  0.65726078232E+03  0.47000000000E+01 0.  1.
         -5    1    3    3    0  501 -0.17374299420E+02 -0.18148118415E+02  0.19118615506E+03  0.19288715968E+03  0.47000000000E+01 0.  1.
          5    1    4    4  502    0  0.18052584100E+02 -0.10392214523E+03  0.10167488933E+03  0.14657960698E+03  0.47000000000E+01 0. -1.
         -5    1    4    4    0  502 -0.22168230067E+02 -0.30897980812E+02  0.22552474263E+03  0.22875667243E+03  0.47000000000E+01 0. -1.
<mgrwt>
<rscale>  0 0.40330454E+03</rscale>
<asrwt>0</asrwt>
<pdfrwt beam="1">  1       21 0.18328487E+00 0.40330454E+03</pdfrwt>
<pdfrwt beam="2">  1       21 0.52511314E-02 0.40330454E+03</pdfrwt>
<totfact> 0.38899391E+04</totfact>
</mgrwt>
</event>
<event>
 8    1  0.9175398E-006  0.2778110E+03  0.7546771E-02  0.1096891E+00
         21   -1    0    0  504  503  0.00000000000E+00  0.00000000000E+00  0.45947004054E+03  0.45947004054E+03  0.00000000000E+00 0. -1.
         21   -1    0    0  503  504 -0.00000000000E+00 -0.00000000000E+00 -0.41993466808E+02  0.41993466808E+02  0.00000000000E+00 0. -1.
         25    2    1    2    0    0  0.48157638185E+02  0.32672373162E+02  0.17836626082E+03  0.22544675673E+03  0.12500030015E+03 0.  0.
         25    2    1    2    0    0 -0.48157638185E+02 -0.32672373162E+02  0.23911031291E+03  0.27601675062E+03  0.12499945118E+03 0.  0.
          5    1    3    3  501    0  0.65897144411E+02 -0.23881612767E+02  0.13387438146E+03  0.15118599499E+03  0.47000000000E+01 0.  1.
         -5    1    3    3    0  501 -0.17739506226E+02  0.56553985929E+02  0.44491879359E+02  0.74260761742E+02  0.47000000000E+01 0.  1.
          5    1    4    4  502    0 -0.53799294693E+02 -0.36405465578E+02  0.25224239594E+03  0.26051494841E+03  0.47000000000E+01 0.  1.
         -5    1    4    4    0  502  0.56416565081E+01  0.37330924157E+01 -0.13132083027E+02  0.15501802210E+02  0.47000000000E+01 0.  1.
<mgrwt>
<rscale>  0 0.27781101E+03</rscale>
<asrwt>0</asrwt>
<pdfrwt beam="1">  1       21 0.70687695E-01 0.27781101E+03</pdfrwt>
<pdfrwt beam="2">  1       21 0.64605337E-02 0.27781101E+03</pdfrwt>
<totfact> 0.30828939E+05</totfact>
</mgrwt>
</event>
<event>
 8    1  0.9175398E-006  0.3659626E+03  0.7546771E-02  0.1056248E+00
         21   -1    0    0  504  503  0.00000000000E+00  0.00000000000E+00  0.59042282494E+03  0.59042282494E+03  0.00000000000E+00 0. -1.
         21   -1    0    0  503  504 -0.00000000000E+00 -0.00000000000E+00 -0.56708765291E+02  0.56708765291E+02  0.00000000000E+00 0. -1.
         25    2    1    2    0    0 -0.25632159038E+02  0.14062578982E+01  0.34975160232E+02  0.13232541979E+03  0.12501107851E+03 0.  0.
         25    2    1    2    0    0  0.25632159038E+02 -0.14062578982E+01  0.49873889941E+03  0.51480617044E+03  0.12500367272E+03 0.  0.
          5    1    3    3  501    0 -0.22392094218E+02 -0.34815404897E+01 -0.45739695123E+02  0.51261454502E+02  0.47000000000E+01 0. -1.
         -5    1    3    3    0  501 -0.32400648201E+01  0.48877983878E+01  0.80714855355E+02  0.81063965287E+02  0.47000000000E+01 0. -1.
          5    1    4    4  502    0 -0.38546081924E+01 -0.18228436737E+02  0.49675997173E+01  0.19846938231E+02  0.47000000000E+01 0. -1.
         -5    1    4    4    0  502  0.29486767231E+02  0.16822178839E+02  0.49377129970E+03  0.49495923221E+03  0.47000000000E+01 0. -1.
<mgrwt>
<rscale>  0 0.36596256E+03</rscale>
<asrwt>0</asrwt>
<pdfrwt beam="1">  1       21 0.90834277E-01 0.36596256E+03</pdfrwt>
<pdfrwt beam="2">  1       21 0.87244258E-02 0.36596256E+03</pdfrwt>
<totfact> 0.10038231E+05</totfact>
</mgrwt>
</event>
<event>
 8    1  0.9175398E-006  0.3439231E+03  0.7546771E-02  0.1065137E+00
         21   -1    0    0  504  503  0.00000000000E+00  0.00000000000E+00  0.33209014041E+02  0.33209014041E+02  0.00000000000E+00 0.  1.
         21   -1    0    0  503  504 -0.00000000000E+00 -0.00000000000E+00 -0.89044438738E+03  0.89044438738E+03  0.00000000000E+00 0.  1.
         25    2    1    2    0    0  0.35420794131E+02 -0.87561475559E+02 -0.23832768102E+03  0.28521411067E+03  0.12500144289E+03 0.  0.
         25    2    1    2    0    0 -0.35420794131E+02  0.87561475559E+02 -0.61890769231E+03  0.63843929075E+03  0.12504539859E+03 0.  0.
          5    1    3    3  501    0  0.36329207452E+02 -0.37275149655E+02 -0.12406474077E+02  0.53714604113E+02  0.47000000000E+01 0. -1.
         -5    1    3    3    0  501 -0.90841332142E+00 -0.50286325904E+02 -0.22592120694E+03  0.23149950655E+03  0.47000000000E+01 0. -1.
          5    1    4    4  502    0 -0.17131851827E+02  0.29454300134E+02 -0.27920976833E+02  0.44302675887E+02  0.47000000000E+01 0. -1.
         -5    1    4    4    0  502 -0.18288942304E+02  0.58107175425E+02 -0.59098671548E+03  0.59413661486E+03  0.47000000000E+01 0. -1.
<mgrwt>
<rscale>  0 0.34392313E+03</rscale>
<asrwt>0</asrwt>
<pdfrwt beam="1">  1       21 0.51090784E-02 0.34392313E+03</pdfrwt>
<pdfrwt beam="2">  1       21 0.13699146E+00 0.34392313E+03</pdfrwt>
<totfact> 0.92766264E+04</totfact>
</mgrwt>
</event>
<event>
 8    1  0.9175398E-006  0.3623802E+03  0.7546771E-02  0.1057645E+00
         21   -1    0    0  504  503  0.00000000000E+00  0.00000000000E+00  0.18983808547E+03  0.18983808547E+03  0.00000000000E+00 0.  1.
         21   -1    0    0  503  504 -0.00000000000E+00 -0.00000000000E+00 -0.17293611675E+03  0.17293611675E+03  0.00000000000E+00 0.  1.
         25    2    1    2    0    0 -0.13655323664E+02  0.10720147938E+03  0.82879278154E+02  0.18485993986E+03  0.12500239027E+03 0.  0.
         25    2    1    2    0    0  0.13655323664E+02 -0.10720147938E+03 -0.65977309444E+02  0.17791426236E+03  0.12498741673E+03 0.  0.
          5    1    3    3  501    0 -0.21011943988E+02  0.75338575238E+02 -0.16551773683E+02  0.80084042862E+02  0.47000000000E+01 0.  1.
         -5    1    3    3    0  501  0.73566203241E+01  0.31862904146E+02  0.99431051837E+02  0.10477589700E+03  0.47000000000E+01 0.  1.
          5    1    4    4  502    0  0.28270556070E+02 -0.11932268353E+03 -0.86055871878E+02  0.14988272159E+03  0.47000000000E+01 0. -1.
         -5    1    4    4    0  502 -0.14615232407E+02  0.12121204149E+02  0.20078562434E+02  0.28031540767E+02  0.47000000000E+01 0. -1.
<mgrwt>
<rscale>  0 0.36238025E+03</rscale>
<asrwt>0</asrwt>
<pdfrwt beam="1">  1       21 0.29205859E-01 0.36238025E+03</pdfrwt>
<pdfrwt beam="2">  1       21 0.26605556E-01 0.36238025E+03</pdfrwt>
<totfact> 0.14415903E+05</totfact>
</mgrwt>
</event>
<event>
 8    1  0.9175398E-006  0.2775298E+03  0.7546771E-02  0.1097046E+00
         21   -1    0    0  504  503  0.00000000000E+00  0.00000000000E+00  0.46059550108E+03  0.46059550108E+03  0.00000000000E+00 0. -1.
         21   -1    0    0  503  504 -0.00000000000E+00 -0.00000000000E+00 -0.41806085894E+02  0.41806085894E+02  0.00000000000E+00 0. -1.
         25    2    1    2    0    0  0.18163130129E+01  0.49416981668E+02  0.27162457305E+03  0.30306359724E+03  0.12498919242E+03 0.  0.
         25    2    1    2    0    0 -0.18163130129E+01 -0.49416981668E+02  0.14716484214E+03  0.19933798973E+03  0.12503122137E+03 0.  0.
          5    1    3    3  501    0  0.50446741469E+02 -0.12339577467E+02  0.75852388113E+02  0.92047887968E+02  0.47000000000E+01 0. -1.
         -5    1    3    3    0  501 -0.48630428456E+02  0.61756559136E+02  0.19577218493E+03  0.21101570928E+03  0.47000000000E+01 0. -1.
          5    1    4    4  502    0 -0.39320264793E+02 -0.87103221470E+00 -0.23779840523E+00  0.39610459081E+02  0.47000000000E+01 0. -1.
         -5    1    4    4    0  502  0.37503951780E+02 -0.48545949454E+02  0.14740264054E+03  0.15972753065E+03  0.47000000000E+01 0. -1.
<mgrwt>
<rscale>  0 0.27752978E+03</rscale>
<asrwt>0</asrwt>
<pdfrwt beam="1">  1       21 0.70860843E-01 0.27752978E+03</pdfrwt>
<pdfrwt beam="2">  1       21 0.64317058E-02 0.27752978E+03</pdfrwt>
<totfact> 0.30901614E+05</totfact>
</mgrwt>
</event>
<event>
 8    1  0.9175398E-006  0.4824564E+03  0.7546771E-02  0.1018462E+00
         21   -1    0    0  504  503  0.00000000000E+00  0.00000000000E+00  0.98437954587E+02  0.98437954587E+02  0.00000000000E+00 0.  1.
         21   -1    0    0  503  504 -0.00000000000E+00 -0.00000000000E+00 -0.59114448700E+03  0.59114448700E+03  0.00000000000E+00 0.  1.
         25    2    1    2    0    0 -0.13578805267E+03 -0.14160602478E+03 -0.33758830449E+03  0.40997749233E+03  0.12500007753E+03 0.  0.
         25    2    1    2    0    0  0.13578805267E+03  0.14160602478E+03 -0.15511822792E+03  0.27960494926E+03  0.12500640590E+03 0.  0.
          5    1    3    3  501    0 -0.14874102785E+03 -0.12386131468E+03 -0.23272776339E+03  0.30273721359E+03  0.47000000000E+01 0. -1.
         -5    1    3    3    0  501  0.12952975186E+02 -0.17744710102E+02 -0.10486054110E+03  0.10724027874E+03  0.47000000000E+01 0. -1.
          5    1    4    4  502    0  0.10979182411E+02 -0.10528534534E+02 -0.57939855824E+02  0.60087514334E+02  0.47000000000E+01 0.  1.
         -5    1    4    4    0  502  0.12480887025E+03  0.15213455932E+03 -0.97178372091E+02  0.21951743492E+03  0.47000000000E+01 0.  1.
<mgrwt>
<rscale>  0 0.48245644E+03</rscale>
<asrwt>0</asrwt>
<pdfrwt beam="1">  1       21 0.15144301E-01 0.48245644E+03</pdfrwt>
<pdfrwt beam="2">  1       21 0.90945303E-01 0.48245644E+03</pdfrwt>
<totfact> 0.35800230E+04</totfact>
</mgrwt>
</event>
<event>
 8    1  0.9175398E-006  0.3939180E+03  0.7546771E-02  0.1045906E+00
         21   -1    0    0  504  503  0.00000000000E+00  0.00000000000E+00  0.11980044330E+03  0.11980044330E+03  0.00000000000E+00 0. -1.
         21   -1    0    0  503  504 -0.00000000000E+00 -0.00000000000E+00 -0.32381218023E+03  0.32381218023E+03  0.00000000000E+00 0. -1.
         25    2    1    2    0    0  0.55973924639E+01  0.14749312992E+03 -0.60152939685E+02  0.20255928536E+03  0.12500533491E+03 0.  0.
         25    2    1    2    0    0 -0.55973924639E+01 -0.14749312992E+03 -0.14385879724E+03  0.24105333818E+03  0.12500321647E+03 0.  0.
          5    1    3    3  501    0 -0.26732172356E+02  0.13140741742E+02 -0.56733073348E+02  0.64249667266E+02  0.47000000000E+01 0. -1.
         -5    1    3    3    0  501  0.32329564820E+02  0.13435238818E+03 -0.34198663378E+01  0.13830961809E+03  0.47000000000E+01 0. -1.
          5    1    4    4  502    0 -0.62832390058E+02 -0.81687829210E+02 -0.98504315324E+02  0.14263940837E+03  0.47000000000E+01 0. -1.
         -5    1    4    4    0  502  0.57234997594E+02 -0.65805300709E+02 -0.45354481917E+02  0.98413929812E+02  0.47000000000E+01 0. -1.
<mgrwt>
<rscale>  0 0.39391797E+03</rscale>
<asrwt>0</asrwt>
<pdfrwt beam="1">  1       21 0.18430837E-01 0.39391797E+03</pdfrwt>
<pdfrwt beam="2">  1       21 0.49817259E-01 0.39391797E+03</pdfrwt>
<totfact> 0.97271267E+04</totfact>
</mgrwt>
</event>
<event>
 8    1  0.9175398E-006  0.3081305E+03  0.7546771E-02  0.1081245E+00
         21   -1    0    0  504  503  0.00000000000E+00  0.00000000000E+00  0.15713353358E+03  0.15713353358E+03  0.00000000000E+00 0.  1.
         21   -1    0    0  503  504 -0.00000000000E+00 -0.00000000000E+00 -0.15105684050E+03  0.15105684050E+03  0.00000000000E+00 0.  1.
         25    2    1    2    0    0 -0.34947276878E+01 -0.88747815617E+02  0.17984890235E+02  0.15439100834E+03  0.12499895712E+03 0.  0.
         25    2    1    2    0    0  0.34947276878E+01  0.88747815617E+02 -0.11908197156E+02  0.15379936575E+03  0.12499620733E+03 0.  0.
          5    1    3    3  501    0 -0.44818849657E+02  0.94613485903E+01  0.11925180036E+02  0.47566230885E+02  0.47000000000E+01 0. -1.
         -5    1    3    3    0  501  0.41324121969E+02 -0.98209164207E+02  0.60597101985E+01  0.10682477746E+03  0.47000000000E+01 0. -1.
          5    1    4    4  502    0 -0.18159674466E+02  0.56465717465E+02 -0.64811868123E+02  0.87981925844E+02  0.47000000000E+01 0.  1.
         -5    1    4    4    0  502  0.21654402153E+02  0.32282098152E+02  0.52903670967E+02  0.65817439904E+02  0.47000000000E+01 0.  1.
<mgrwt>
<rscale>  0 0.30813046E+03</rscale>
<asrwt>0</asrwt>
<pdfrwt beam="1">  1       21 0.24174390E-01 0.30813046E+03</pdfrwt>
<pdfrwt beam="2">  1       21 0.23239514E-01 0.30813046E+03</pdfrwt>
<totfact> 0.27350364E+05</totfact>
</mgrwt>
</event>
<event>
 8    1  0.9175398E-006  0.3963406E+03  0.7546771E-02  0.1045054E+00
         21   -1    0    0  504  503  0.00000000000E+00  0.00000000000E+00  0.14576363957E+03  0.14576363957E+03  0.00000000000E+00 0. -1.
         21   -1    0    0  503  504 -0.00000000000E+00 -0.00000000000E+00 -0.26941884279E+03  0.26941884279E+03  0.00000000000E+00 0. -1.
         25    2    1    2    0    0  0.87457741727E+02 -0.93207531938E+02 -0.15139195890E+03  0.23426750372E+03  0.12500094991E+03 0.  0.
         25    2    1    2    0    0 -0.87457741727E+02  0.93207531938E+02  0.27736755684E+02  0.18091497865E+03  0.12499760512E+03 0.  0.
          5    1    3    3  501    0  0.97652991046E+02 -0.11674549980E+03 -0.13472054158E+03  0.20331584471E+03  0.47000000000E+01 0. -1.
         -5    1    3    3    0  501 -0.10195249318E+02  0.23537967866E+02 -0.16671417322E+02  0.30951659009E+02  0.47000000000E+01 0. -1.
          5    1    4    4  502    0  0.24816110257E+02  0.54002167674E+02  0.58367637231E+01  0.59901846821E+02  0.47000000000E+01 0. -1.
         -5    1    4    4    0  502 -0.11227385198E+03  0.39205364264E+02  0.21899991961E+02  0.12101313183E+03  0.47000000000E+01 0. -1.
<mgrwt>
<rscale>  0 0.39634062E+03</rscale>
<asrwt>0</asrwt>
<pdfrwt beam="1">  1       21 0.22425176E-01 0.39634062E+03</pdfrwt>
<pdfrwt beam="2">  1       21 0.41449052E-01 0.39634062E+03</pdfrwt>
<totfact> 0.98369391E+04</totfact>
</mgrwt>
</event>
<event>
 8    1  0.9175398E-006  0.2718674E+03  0.7546771E-02  0.1100216E+00
         21   -1    0    0  504  503  0.00000000000E+00  0.00000000000E+00  0.37955471752E+02  0.37955471752E+02  0.00000000000E+00 0. -1.
         21   -1    0    0  503  504 -0.00000000000E+00 -0.00000000000E+00 -0.48683292130E+03  0.48683292130E+03  0.00000000000E+00 0. -1.
         25    2    1    2    0    0  0.46172756551E+02  0.17447578104E+02 -0.18508630693E+03  0.22873217254E+03  0.12500049726E+03 0.  0.
         25    2    1    2    0    0 -0.46172756551E+02 -0.17447578104E+02 -0.26379114262E+03  0.29605622051E+03  0.12500870909E+03 0.  0.
          5    1    3    3  501    0  0.13069883290E-01 -0.29231887067E+02  0.27153416583E+01  0.29731573666E+02  0.47000000000E+01 0.  1.
         -5    1    3    3    0  501  0.46159686668E+02  0.46679465171E+02 -0.18780164859E+03  0.19900059888E+03  0.47000000000E+01 0.  1.
          5    1    4    4  502    0  0.29174876329E+02  0.26691667060E+02 -0.43150154583E+02  0.58716644486E+02  0.47000000000E+01 0.  1.
         -5    1    4    4    0  502 -0.75347632880E+02 -0.44139245164E+02 -0.22064098804E+03  0.23733957602E+03  0.47000000000E+01 0.  1.
<mgrwt>
<rscale>  0 0.27186742E+03</rscale>
<asrwt>0</asrwt>
<pdfrwt beam="1">  1       21 0.58393034E-02 0.27186742E+03</pdfrwt>
<pdfrwt beam="2">  1       21 0.74897371E-01 0.27186742E+03</pdfrwt>
<totfact> 0.32290154E+05</totfact>
</mgrwt>
</event>
<event>
 8    1  0.9175398E-006  0.3293489E+03  0.7546771E-02  0.1071425E+00
         21   -1    0    0  504  503  0.00000000000E+00  0.00000000000E+00  0.33815501008E+03  0.33815501008E+03  0.00000000000E+00 0.  1.
         21   -1    0    0  503  504 -0.00000000000E+00 -0.00000000000E+00 -0.80193038963E+02  0.80193038963E+02  0.00000000000E+00 0.  1.
         25    2    1    2    0    0  0.86471660562E+02 -0.44002499973E+02  0.71085627571E+02  0.17348014622E+03  0.12501450557E+03 0.  0.
         25    2    1    2    0    0 -0.86471660562E+02  0.44002499973E+02  0.18687634354E+03  0.24486790282E+03  0.12499581581E+03 0.  0.
          5    1    3    3  501    0  0.64709230351E+02 -0.73089097672E+02  0.49235922385E+01  0.97855160578E+02  0.47000000000E+01 0.  1.
         -5    1    3    3    0  501  0.21762430211E+02  0.29086597699E+02  0.66162035332E+02  0.75624985644E+02  0.47000000000E+01 0.  1.
          5    1    4    4  502    0 -0.35750563356E+02  0.80799698322E+02  0.72597651428E+02  0.11445174976E+03  0.47000000000E+01 0.  1.
         -5    1    4    4    0  502 -0.50721097206E+02 -0.36797198349E+02  0.11427869211E+03  0.13041615306E+03  0.47000000000E+01 0.  1.
<mgrwt>
<rscale>  0 0.32934892E+03</rscale>
<asrwt>0</asrwt>
<pdfrwt beam="1">  1       21 0.52023847E-01 0.32934892E+03</pdfrwt>
<pdfrwt beam="2">  1       21 0.12337391E-01 0.32934892E+03</pdfrwt>
<totfact> 0.18884310E+05</totfact>
</mgrwt>
</event>
<event>
 8    1  0.9175398E-006  0.2725048E+03  0.7546771E-02  0.1099855E+00
         21   -1    0    0  504  503  0.00000000000E+00  0.00000000000E+00  0.50307774270E+03  0.50307774270E+03  0.00000000000E+00 0. -1.
         21   -1    0    0  503  504 -0.00000000000E+00 -0.00000000000E+00 -0.36902288342E+02  0.36902288342E+02  0.00000000000E+00 0. -1.
         25    2    1    2    0    0  0.30602960592E+01 -0.14703420982E+02  0.33628877438E+03  0.35908951427E+03  0.12501833259E+03 0.  0.
         25    2    1    2    0    0 -0.30602960592E+01  0.14703420982E+02  0.12988667998E+03  0.18089051677E+03  0.12500109368E+03 0.  0.
          5    1    3    3  501    0  0.29080452654E+02  0.32074679945E+02  0.27125600981E+03  0.27472963196E+03  0.47000000000E+01 0. -1.
         -5    1    3    3    0  501 -0.26020156595E+02 -0.46778100927E+02  0.65032764573E+02  0.84359882311E+02  0.47000000000E+01 0. -1.
          5    1    4    4  502    0  0.63441829164E+01  0.19453867604E+02  0.15333077077E+03  0.15476148386E+03  0.47000000000E+01 0.  1.
         -5    1    4    4    0  502 -0.94044789756E+01 -0.47504466220E+01 -0.23444090791E+02  0.26129032913E+02  0.47000000000E+01 0.  1.
<mgrwt>
<rscale>  0 0.27250483E+03</rscale>
<asrwt>0</asrwt>
<pdfrwt beam="1">  1       21 0.77396571E-01 0.27250483E+03</pdfrwt>
<pdfrwt beam="2">  1       21 0.56772755E-02 0.27250483E+03</pdfrwt>
<totfact> 0.31464948E+05</totfact>
</mgrwt>
</event>
<event>
 8    1  0.9175398E-006  0.4052692E+03  0.7546771E-02  0.1041970E+00
         21   -1    0    0  504  503  0.00000000000E+00  0.00000000000E+00  0.19719520192E+04  0.19719520192E+04  0.00000000000E+00 0. -1.
         21   -1    0    0  503  504 -0.00000000000E+00 -0.00000000000E+00 -0.20822400254E+02  0.20822400254E+02  0.00000000000E+00 0. -1.
         25    2    1    2    0    0 -0.12136043968E+03  0.11138519842E+02  0.14813760472E+04  0.14916278880E+04  0.12500536053E+03 0.  0.
         25    2    1    2    0    0  0.12136043968E+03 -0.11138519842E+02  0.46975357176E+03  0.50114653144E+03  0.12500801917E+03 0.  0.
          5    1    3    3  501    0 -0.14281276833E+03  0.13831575240E+02  0.10607373846E+04  0.10704077206E+04  0.47000000000E+01 0.  1.
         -5    1    3    3    0  501  0.21452328655E+02 -0.26930553979E+01  0.42063866262E+03  0.42122016742E+03  0.47000000000E+01 0.  1.
          5    1    4    4  502    0  0.10158041628E+03  0.17832124086E+02  0.16703036050E+03  0.19636139373E+03  0.47000000000E+01 0.  1.
         -5    1    4    4    0  502  0.19780023402E+02 -0.28970643928E+02  0.30272321126E+03  0.30478513771E+03  0.47000000000E+01 0.  1.
<mgrwt>
<rscale>  0 0.40526917E+03</rscale>
<asrwt>0</asrwt>
<pdfrwt beam="1">  1       21 0.30337709E+00 0.40526917E+03</pdfrwt>
<pdfrwt beam="2">  1       21 0.32034477E-02 0.40526917E+03</pdfrwt>
<totfact> 0.16002872E+04</totfact>
</mgrwt>
</event>
<event>
 8    1  0.9175398E-006  0.9552601E+03  0.7546771E-02  0.9359023E-01
         21   -1    0    0  504  503  0.00000000000E+00  0.00000000000E+00  0.54600594070E+03  0.54600594070E+03  0.00000000000E+00 0.  1.
         21   -1    0    0  503  504 -0.00000000000E+00 -0.00000000000E+00 -0.41781680765E+03  0.41781680765E+03  0.00000000000E+00 0.  1.
         25    2    1    2    0    0 -0.18647227145E+03  0.37176225247E+03 -0.13649814296E+03  0.45523251952E+03  0.12500329360E+03 0.  0.
         25    2    1    2    0    0  0.18647227145E+03 -0.37176225247E+03  0.26468727600E+03  0.50859022883E+03  0.12500234560E+03 0.  0.
          5    1    3    3  501    0 -0.46072953583E+01  0.52424310792E+02 -0.59787912261E+02  0.79788595583E+02  0.47000000000E+01 0.  1.
         -5    1    3    3    0  501 -0.18186497609E+03  0.31933794168E+03 -0.76710230696E+02  0.37544392393E+03  0.47000000000E+01 0.  1.
          5    1    4    4  502    0  0.18113407833E+03 -0.37988553164E+03  0.24741229566E+03  0.48821870666E+03  0.47000000000E+01 0. -1.
         -5    1    4    4    0  502  0.53381931182E+01  0.81232791678E+01  0.17274980339E+02  0.20371522179E+02  0.47000000000E+01 0. -1.
<mgrwt>
<rscale>  0 0.95526009E+03</rscale>
<asrwt>0</asrwt>
<pdfrwt beam="1">  1       21 0.84000914E-01 0.95526009E+03</pdfrwt>
<pdfrwt beam="2">  1       21 0.64279509E-01 0.95526009E+03</pdfrwt>
<totfact> 0.21101013E+03</totfact>
</mgrwt>
</event>
<event>
 8    1  0.9175398E-006  0.2677920E+03  0.7546771E-02  0.1102550E+00
         21   -1    0    0  504  503  0.00000000000E+00  0.00000000000E+00  0.56171411483E+02  0.56171411483E+02  0.00000000000E+00 0.  1.
         21   -1    0    0  503  504 -0.00000000000E+00 -0.00000000000E+00 -0.31916834321E+03  0.31916834321E+03  0.00000000000E+00 0.  1.
         25    2    1    2    0    0 -0.33244512659E+02  0.16539763298E+02 -0.88891761349E+02  0.15781369616E+03  0.12499862426E+03 0.  0.
         25    2    1    2    0    0  0.33244512659E+02 -0.16539763298E+02 -0.17410517037E+03  0.21752605853E+03  0.12500485749E+03 0.  0.
          5    1    3    3  501    0 -0.48626012923E+01 -0.18370341000E+02 -0.10722950233E+03  0.10900169948E+03  0.47000000000E+01 0. -1.
         -5    1    3    3    0  501 -0.28381911367E+02  0.34910104298E+02  0.18337740984E+02  0.48811996675E+02  0.47000000000E+01 0. -1.
          5    1    4    4  502    0  0.62617565523E+02 -0.53318015536E+02 -0.12136388796E+03  0.14668010633E+03  0.47000000000E+01 0.  1.
         -5    1    4    4    0  502 -0.29373052864E+02  0.36778252237E+02 -0.52741282413E+02  0.70845952198E+02  0.47000000000E+01 0.  1.
<mgrwt>
<rscale>  0 0.26779198E+03</rscale>
<asrwt>0</asrwt>
<pdfrwt beam="1">  1       21 0.86417556E-02 0.26779198E+03</pdfrwt>
<pdfrwt beam="2">  1       21 0.49102822E-01 0.26779198E+03</pdfrwt>
<totfact> 0.40827660E+05</totfact>
</mgrwt>
</event>
<event>
 8    1  0.9175398E-006  0.2987784E+03  0.7546771E-02  0.1085853E+00
         21   -1    0    0  504  503  0.00000000000E+00  0.00000000000E+00  0.11665506260E+03  0.11665506260E+03  0.00000000000E+00 0.  1.
         21   -1    0    0  503  504 -0.00000000000E+00 -0.00000000000E+00 -0.19130869905E+03  0.19130869905E+03  0.00000000000E+00 0.  1.
         25    2    1    2    0    0 -0.38111043224E+02  0.71204457280E+02 -0.50751886912E+02  0.15724071220E+03  0.12500544466E+03 0.  0.
         25    2    1    2    0    0  0.38111043224E+02 -0.71204457280E+02 -0.23901749538E+02  0.15072304945E+03  0.12499447048E+03 0.  0.
          5    1    3    3  501    0  0.44000345116E+02  0.87370264109E+01 -0.99188373489E+01  0.46182673539E+02  0.47000000000E+01 0. -1.
         -5    1    3    3    0  501 -0.82111388340E+02  0.62467430869E+02 -0.40833049563E+02  0.11105803866E+03  0.47000000000E+01 0. -1.
          5    1    4    4  502    0 -0.28469976391E+01  0.13957757855E+02 -0.50303274878E+02  0.52492226695E+02  0.47000000000E+01 0.  1.
         -5    1    4    4    0  502  0.40958040863E+02 -0.85162215135E+02  0.26401525341E+02  0.98230822751E+02  0.47000000000E+01 0.  1.
<mgrwt>
<rscale>  0 0.29877837E+03</rscale>
<asrwt>0</asrwt>
<pdfrwt beam="1">  1       21 0.17946933E-01 0.29877837E+03</pdfrwt>
<pdfrwt beam="2">  1       21 0.29432107E-01 0.29877837E+03</pdfrwt>
<totfact> 0.30473237E+05</totfact>
</mgrwt>
</event>
<event>
 8    1  0.9175398E-006  0.3264561E+03  0.7546771E-02  0.1072716E+00
         21   -1    0    0  504  503  0.00000000000E+00  0.00000000000E+00  0.11168013528E+04  0.11168013528E+04  0.00000000000E+00 0.  1.
         21   -1    0    0  503  504 -0.00000000000E+00 -0.00000000000E+00 -0.23856882281E+02  0.23856882281E+02  0.00000000000E+00 0.  1.
         25    2    1    2    0    0  0.43971676916E+02 -0.40292654172E+02  0.84805724226E+03  0.85929117350E+03  0.12499291322E+03 0.  0.
         25    2    1    2    0    0 -0.43971676916E+02  0.40292654172E+02  0.24488722828E+03  0.28136706160E+03  0.12506263402E+03 0.  0.
          5    1    3    3  501    0  0.12537081637E+02  0.36248942155E+01  0.53894736646E+01  0.14881354119E+02  0.47000000000E+01 0. -1.
         -5    1    3    3    0  501  0.31434595279E+02 -0.43917548387E+02  0.84266776859E+03  0.84440981938E+03  0.47000000000E+01 0. -1.
          5    1    4    4  502    0 -0.42401428606E+02  0.38049025313E+02  0.25952774854E+03  0.26574866271E+03  0.47000000000E+01 0.  1.
         -5    1    4    4    0  502 -0.15702483093E+01  0.22436288593E+01 -0.14640520259E+02  0.15618398883E+02  0.47000000000E+01 0.  1.
<mgrwt>
<rscale>  0 0.32645611E+03</rscale>
<asrwt>0</asrwt>
<pdfrwt beam="1">  1       21 0.17181555E+00 0.32645611E+03</pdfrwt>
<pdfrwt beam="2">  1       21 0.36702905E-02 0.32645611E+03</pdfrwt>
<totfact> 0.88556412E+04</totfact>
</mgrwt>
</event>
<event>
 8    1  0.9175398E-006  0.3239430E+03  0.7546771E-02  0.1073849E+00
         21   -1    0    0  504  503  0.00000000000E+00  0.00000000000E+00  0.13000000406E+03  0.13000000406E+03  0.00000000000E+00 0. -1.
         21   -1    0    0  503  504 -0.00000000000E+00 -0.00000000000E+00 -0.20180589474E+03  0.20180589474E+03  0.00000000000E+00 0. -1.
         25    2    1    2    0    0 -0.91852313602E+02 -0.23332730520E+02 -0.77244727153E+02  0.17484827937E+03  0.12499563632E+03 0.  0.
         25    2    1    2    0    0  0.91852313602E+02  0.23332730520E+02  0.54388364806E+01  0.15695761943E+03  0.12499939810E+03 0.  0.
          5    1    3    3  501    0 -0.28078970044E+02  0.48865439231E+02 -0.47685859831E+02  0.73974934523E+02  0.47000000000E+01 0. -1.
         -5    1    3    3    0  501 -0.63773343558E+02 -0.72198169752E+02 -0.29558867323E+02  0.10087334485E+03  0.47000000000E+01 0. -1.
          5    1    4    4  502    0  0.91771458953E+02  0.26503175454E+02 -0.45355925045E+02  0.10584738506E+03  0.47000000000E+01 0. -1.
         -5    1    4    4    0  502  0.80854648913E-01 -0.31704449337E+01  0.50794761526E+02  0.51110234367E+02  0.47000000000E+01 0. -1.
<mgrwt>
<rscale>  0 0.32394300E+03</rscale>
<asrwt>0</asrwt>
<pdfrwt beam="1">  1       21 0.20000001E-01 0.32394300E+03</pdfrwt>
<pdfrwt beam="2">  1       21 0.31047061E-01 0.32394300E+03</pdfrwt>
<totfact> 0.22265652E+05</totfact>
</mgrwt>
</event>
<event>
 8    1  0.9175398E-006  0.3890524E+03  0.7546771E-02  0.1047638E+00
         21   -1    0    0  504  503  0.00000000000E+00  0.00000000000E+00  0.10241263636E+03  0.10241263636E+03  0.00000000000E+00 0. -1.
         21   -1    0    0  503  504 -0.00000000000E+00 -0.00000000000E+00 -0.36949000554E+03  0.36949000554E+03  0.00000000000E+00 0. -1.
         25    2    1    2    0    0 -0.13952231723E+02 -0.14401216624E+03 -0.17700164333E+03  0.26054531926E+03  0.12498044988E+03 0.  0.
         25    2    1    2    0    0  0.13952231723E+02  0.14401216624E+03 -0.90075725846E+02  0.21135732264E+03  0.12499645055E+03 0.  0.
          5    1    3    3  501    0  0.29073183073E+02 -0.73618770912E+02 -0.17933732785E+02  0.81293801586E+02  0.47000000000E+01 0.  1.
         -5    1    3    3    0  501 -0.43025414796E+02 -0.70393395327E+02 -0.15906791055E+03  0.17925151768E+03  0.47000000000E+01 0.  1.
          5    1    4    4  502    0 -0.53629233663E+02  0.63615169548E+02 -0.57660991531E+02  0.10134033967E+03  0.47000000000E+01 0.  1.
         -5    1    4    4    0  502  0.67581465387E+02  0.80396996691E+02 -0.32414734315E+02  0.11001698297E+03  0.47000000000E+01 0.  1.
<mgrwt>
<rscale>  0 0.38905242E+03</rscale>
<asrwt>0</asrwt>
<pdfrwt beam="1">  1       21 0.15755790E-01 0.38905242E+03</pdfrwt>
<pdfrwt beam="2">  1       21 0.56844615E-01 0.38905242E+03</pdfrwt>
<totfact> 0.98415381E+04</totfact>
</mgrwt>
</event>
<event>
 8    1  0.9175398E-006  0.2685306E+03  0.7546771E-02  0.1102124E+00
         21   -1    0    0  504  503  0.00000000000E+00  0.00000000000E+00  0.66855063718E+03  0.66855063718E+03  0.00000000000E+00 0. -1.
         21   -1    0    0  503  504 -0.00000000000E+00 -0.00000000000E+00 -0.26964558371E+02  0.26964558371E+02  0.00000000000E+00 0. -1.
         25    2    1    2    0    0 -0.41708236077E+02  0.54036347300E+01  0.38606749011E+03  0.40796730919E+03  0.12498176756E+03 0.  0.
         25    2    1    2    0    0  0.41708236077E+02 -0.54036347300E+01  0.25551858870E+03  0.28754788637E+03  0.12500104622E+03 0.  0.
          5    1    3    3  501    0 -0.75052944806E+02 -0.19975913970E+02  0.32200743799E+03  0.33127460178E+03  0.47000000000E+01 0. -1.
         -5    1    3    3    0  501  0.33344708729E+02  0.25379548700E+02  0.64060052120E+02  0.76692707411E+02  0.47000000000E+01 0. -1.
          5    1    4    4  502    0  0.44495090496E+02  0.28667618296E+02  0.33397520877E+02  0.62762487345E+02  0.47000000000E+01 0.  1.
         -5    1    4    4    0  502 -0.27868544191E+01 -0.34071253026E+02  0.22212106783E+03  0.22478539902E+03  0.47000000000E+01 0.  1.
<mgrwt>
<rscale>  0 0.26853061E+03</rscale>
<asrwt>0</asrwt>
<pdfrwt beam="1">  1       21 0.10285393E+00 0.26853061E+03</pdfrwt>
<pdfrwt beam="2">  1       21 0.41483941E-02 0.26853061E+03</pdfrwt>
<totfact> 0.27686084E+05</totfact>
</mgrwt>
</event>
<event>
 8    1  0.9175398E-006  0.3257079E+03  0.7546771E-02  0.1073052E+00
         21   -1    0    0  504  503  0.00000000000E+00  0.00000000000E+00  0.39764629489E+03  0.39764629489E+03  0.00000000000E+00 0. -1.
         21   -1    0    0  503  504 -0.00000000000E+00 -0.00000000000E+00 -0.66695989474E+02  0.66695989474E+02  0.00000000000E+00 0. -1.
         25    2    1    2    0    0  0.92719381126E+02 -0.47845938710E+02  0.16053515253E+03  0.22865416635E+03  0.12500030042E+03 0.  0.
         25    2    1    2    0    0 -0.92719381126E+02  0.47845938710E+02  0.17041515289E+03  0.23568811801E+03  0.12498578779E+03 0.  0.
          5    1    3    3  501    0 -0.22039696160E+02 -0.32114190560E+02  0.74812024379E+02  0.84474839058E+02  0.47000000000E+01 0. -1.
         -5    1    3    3    0  501  0.11475907729E+03 -0.15731748150E+02  0.85723128151E+02  0.14417932730E+03  0.47000000000E+01 0. -1.
          5    1    4    4  502    0 -0.13256923516E+01 -0.37339756322E+02  0.43457036325E+02  0.57503207463E+02  0.47000000000E+01 0.  1.
         -5    1    4    4    0  502 -0.91393688775E+02  0.85185695032E+02  0.12695811656E+03  0.17818491055E+03  0.47000000000E+01 0.  1.
<mgrwt>
<rscale>  0 0.32570792E+03</rscale>
<asrwt>0</asrwt>
<pdfrwt beam="1">  1       21 0.61176352E-01 0.32570792E+03</pdfrwt>
<pdfrwt beam="2">  1       21 0.10260922E-01 0.32570792E+03</pdfrwt>
<totfact> 0.18584119E+05</totfact>
</mgrwt>
</event>
<event>
 8    1  0.9175398E-006  0.3011987E+03  0.7546771E-02  0.1084643E+00
         21   -1    0    0  504  503  0.00000000000E+00  0.00000000000E+00  0.17901829432E+03  0.17901829432E+03  0.00000000000E+00 0. -1.
         21   -1    0    0  503  504 -0.00000000000E+00 -0.00000000000E+00 -0.12669190320E+03  0.12669190320E+03  0.00000000000E+00 0. -1.
         25    2    1    2    0    0  0.69803273805E+02 -0.12661390673E+02  0.71798110917E+02  0.16066251788E+03  0.12499867228E+03 0.  0.
         25    2    1    2    0    0 -0.69803273805E+02  0.12661390673E+02 -0.19471719797E+02  0.14504767964E+03  0.12500749438E+03 0.  0.
          5    1    3    3  501    0  0.98371862343E+02  0.18370019598E+02  0.59310256634E+02  0.11642283909E+03  0.47000000000E+01 0.  1.
         -5    1    3    3    0  501 -0.28568588539E+02 -0.31031410271E+02  0.12487854283E+02  0.44239678786E+02  0.47000000000E+01 0.  1.
          5    1    4    4  502    0 -0.39921784927E+02  0.53519836213E+02 -0.51943454772E+02  0.84725051040E+02  0.47000000000E+01 0.  1.
         -5    1    4    4    0  502 -0.29881488878E+02 -0.40858445540E+02  0.32471734975E+02  0.60322628605E+02  0.47000000000E+01 0.  1.
<mgrwt>
<rscale>  0 0.30119873E+03</rscale>
<asrwt>0</asrwt>
<pdfrwt beam="1">  1       21 0.27541276E-01 0.30119873E+03</pdfrwt>
<pdfrwt beam="2">  1       21 0.19491062E-01 0.30119873E+03</pdfrwt>
<totfact> 0.29714677E+05</totfact>
</mgrwt>
</event>
<event>
 8    1  0.9175398E-006  0.3429242E+03  0.7546771E-02  0.1065557E+00
         21   -1    0    0  504  503  0.00000000000E+00  0.00000000000E+00  0.29765010421E+03  0.29765010421E+03  0.00000000000E+00 0. -1.
         21   -1    0    0  503  504 -0.00000000000E+00 -0.00000000000E+00 -0.98771196188E+02  0.98771196188E+02  0.00000000000E+00 0. -1.
         25    2    1    2    0    0  0.49738684530E+02 -0.10322020415E+03  0.70072410677E+02  0.18347703416E+03  0.12500132816E+03 0.  0.
         25    2    1    2    0    0 -0.49738684530E+02  0.10322020415E+03  0.12880649735E+03  0.21294426624E+03  0.12500319789E+03 0.  0.
          5    1    3    3  501    0 -0.65471563526E+01 -0.71342462500E+02 -0.18078837163E+02  0.74037467306E+02  0.47000000000E+01 0. -1.
         -5    1    3    3    0  501  0.56285840883E+02 -0.31877741651E+02  0.88151247840E+02  0.10943956685E+03  0.47000000000E+01 0. -1.
          5    1    4    4  502    0 -0.45261065781E+02  0.15260207096E+01 -0.38212243216E+01  0.45690092692E+02  0.47000000000E+01 0.  1.
         -5    1    4    4    0  502 -0.44776187486E+01  0.10169418344E+03  0.13262772167E+03  0.16725417355E+03  0.47000000000E+01 0.  1.
<mgrwt>
<rscale>  0 0.34292423E+03</rscale>
<asrwt>0</asrwt>
<pdfrwt beam="1">  1       21 0.45792323E-01 0.34292423E+03</pdfrwt>
<pdfrwt beam="2">  1       21 0.15195569E-01 0.34292423E+03</pdfrwt>
<totfact> 0.16823194E+05</totfact>
</mgrwt>
</event>
<event>
 8    1  0.9175398E-006  0.2730761E+03  0.7546771E-02  0.1099532E+00
         21   -1    0    0  504  503  0.00000000000E+00  0.00000000000E+00  0.24914711050E+03  0.24914711050E+03  0.00000000000E+00 0. -1.
         21   -1    0    0  503  504 -0.00000000000E+00 -0.00000000000E+00 -0.74825834571E+02  0.74825834571E+02  0.00000000000E+00 0. -1.
         25    2    1    2    0    0 -0.24146392581E+02  0.48821750294E+02  0.78576939160E+02  0.15737202677E+03  0.12500003147E+03 0.  0.
         25    2    1    2    0    0  0.24146392581E+02 -0.48821750294E+02  0.95744336770E+02  0.16660091830E+03  0.12498910504E+03 0.  0.
          5    1    3    3  501    0  0.71077220702E+01  0.14786244111E+01 -0.31922001881E+02  0.33072802229E+02  0.47000000000E+01 0. -1.
         -5    1    3    3    0  501 -0.31254114651E+02  0.47343125883E+02  0.11049894104E+03  0.12429922454E+03  0.47000000000E+01 0. -1.
          5    1    4    4  502    0  0.41875265654E+02  0.13620462261E+01  0.10429171241E+03  0.11249108552E+03  0.47000000000E+01 0. -1.
         -5    1    4    4    0  502 -0.17728873073E+02 -0.50183796521E+02 -0.85473756376E+01  0.54109832784E+02  0.47000000000E+01 0. -1.
<mgrwt>
<rscale>  0 0.27307611E+03</rscale>
<asrwt>0</asrwt>
<pdfrwt beam="1">  1       21 0.38330324E-01 0.27307611E+03</pdfrwt>
<pdfrwt beam="2">  1       21 0.11511667E-01 0.27307611E+03</pdfrwt>
<totfact> 0.40782872E+05</totfact>
</mgrwt>
</event>
<event>
 8    1  0.9175398E-006  0.2893845E+03  0.7546771E-02  0.1090671E+00
         21   -1    0    0  504  503  0.00000000000E+00  0.00000000000E+00  0.11854282161E+03  0.11854282161E+03  0.00000000000E+00 0.  1.
         21   -1    0    0  503  504 -0.00000000000E+00 -0.00000000000E+00 -0.17661002865E+03  0.17661002865E+03  0.00000000000E+00 0.  1.
         25    2    1    2    0    0 -0.62698069448E+02 -0.33369731673E+02 -0.12482842282E+02  0.14433145218E+03  0.12502463691E+03 0.  0.
         25    2    1    2    0    0  0.62698069448E+02  0.33369731673E+02 -0.45584364761E+02  0.15082139808E+03  0.12499829160E+03 0.  0.
          5    1    3    3  501    0  0.41437783646E+00  0.40481812623E+02  0.14731741029E+02  0.43336624880E+02  0.47000000000E+01 0. -1.
         -5    1    3    3    0  501 -0.63112447285E+02 -0.73851544296E+02 -0.27214583311E+02  0.10099482730E+03  0.47000000000E+01 0. -1.
          5    1    4    4  502    0  0.18762859555E+02 -0.68664916395E+01 -0.79500365769E+02  0.82107196783E+02  0.47000000000E+01 0. -1.
         -5    1    4    4    0  502  0.43935209893E+02  0.40236223312E+02  0.33916001008E+02  0.68714201292E+02  0.47000000000E+01 0. -1.
<mgrwt>
<rscale>  0 0.28938453E+03</rscale>
<asrwt>0</asrwt>
<pdfrwt beam="1">  1       21 0.18237357E-01 0.28938453E+03</pdfrwt>
<pdfrwt beam="2">  1       21 0.27170773E-01 0.28938453E+03</pdfrwt>
<totfact> 0.34639083E+05</totfact>
</mgrwt>
</event>
<event>
 8    1  0.9175398E-006  0.2676593E+03  0.7546771E-02  0.1102627E+00
         21   -1    0    0  504  503  0.00000000000E+00  0.00000000000E+00  0.16536694954E+03  0.16536694954E+03  0.00000000000E+00 0.  1.
         21   -1    0    0  503  504 -0.00000000000E+00 -0.00000000000E+00 -0.10830687866E+03  0.10830687866E+03  0.00000000000E+00 0.  1.
         25    2    1    2    0    0 -0.31919577504E+02  0.13503416693E+02  0.62189996799E+02  0.14385533668E+03  0.12500224198E+03 0.  0.
         25    2    1    2    0    0  0.31919577504E+02 -0.13503416693E+02 -0.51299259199E+01  0.12981849152E+03  0.12500129163E+03 0.  0.
          5    1    3    3  501    0 -0.32733486924E+02 -0.19431516075E+02  0.91686637673E+02  0.99386088116E+02  0.47000000000E+01 0. -1.
         -5    1    3    3    0  501  0.81390942082E+00  0.32934932768E+02 -0.29496640875E+02  0.44469248564E+02  0.47000000000E+01 0. -1.
          5    1    4    4  502    0  0.77695293271E+02  0.27551922773E+00 -0.18402294007E+02  0.79983554135E+02  0.47000000000E+01 0. -1.
         -5    1    4    4    0  502 -0.45775715767E+02 -0.13778935921E+02  0.13272368088E+02  0.49834937381E+02  0.47000000000E+01 0. -1.
<mgrwt>
<rscale>  0 0.26765932E+03</rscale>
<asrwt>0</asrwt>
<pdfrwt beam="1">  1       21 0.25441069E-01 0.26765932E+03</pdfrwt>
<pdfrwt beam="2">  1       21 0.16662597E-01 0.26765932E+03</pdfrwt>
<totfact> 0.46720059E+05</totfact>
</mgrwt>
</event>
<event>
 8    1  0.9175398E-006  0.4082977E+03  0.7546771E-02  0.1040944E+00
         21   -1    0    0  504  503  0.00000000000E+00  0.00000000000E+00  0.26695924062E+03  0.26695924062E+03  0.00000000000E+00 0. -1.
         21   -1    0    0  503  504 -0.00000000000E+00 -0.00000000000E+00 -0.15611650177E+03  0.15611650177E+03  0.00000000000E+00 0. -1.
         25    2    1    2    0    0  0.70113937337E+02 -0.36185678887E+02 -0.90489934716E+02  0.17330474792E+03  0.12498295804E+03 0.  0.
         25    2    1    2    0    0 -0.70113937337E+02  0.36185678887E+02  0.20133267357E+03  0.24977099447E+03  0.12500134666E+03 0.  0.
          5    1    3    3  501    0  0.90548268804E+02  0.77880302660E+01 -0.84563816286E+02  0.12422870612E+03  0.47000000000E+01 0.  1.
         -5    1    3    3    0  501 -0.20434331468E+02 -0.43973709153E+02 -0.59261184297E+01  0.49076041801E+02  0.47000000000E+01 0.  1.
          5    1    4    4  502    0 -0.66814056596E+01  0.16422079654E+02  0.17838075944E+03  0.17932125145E+03  0.47000000000E+01 0.  1.
         -5    1    4    4    0  502 -0.63432531677E+02  0.19763599233E+02  0.22951914124E+02  0.70449743020E+02  0.47000000000E+01 0.  1.
<mgrwt>
<rscale>  0 0.40829765E+03</rscale>
<asrwt>0</asrwt>
<pdfrwt beam="1">  1       21 0.41070652E-01 0.40829765E+03</pdfrwt>
<pdfrwt beam="2">  1       21 0.24017923E-01 0.40829765E+03</pdfrwt>
<totfact> 0.87615144E+04</totfact>
</mgrwt>
</event>
<event>
 8    1  0.9175398E-006  0.5545861E+03  0.7546771E-02  0.1000438E+00
         21   -1    0    0  504  503  0.00000000000E+00  0.00000000000E+00  0.88496043897E+02  0.88496043897E+02  0.00000000000E+00 0. -1.
         21   -1    0    0  503  504 -0.00000000000E+00 -0.00000000000E+00 -0.86886869342E+03  0.86886869342E+03  0.00000000000E+00 0. -1.
         25    2    1    2    0    0  0.73462230769E+02  0.19402225109E+03 -0.15713564265E+03  0.28871651212E+03  0.12499712364E+03 0.  0.
         25    2    1    2    0    0 -0.73462230769E+02 -0.19402225109E+03 -0.62323700688E+03  0.66864822519E+03  0.12499899617E+03 0.  0.
          5    1    3    3  501    0  0.12950350691E+01  0.10189501587E+03 -0.13550883534E+03  0.16961428546E+03  0.47000000000E+01 0.  1.
         -5    1    3    3    0  501  0.72167195700E+02  0.92127235213E+02 -0.21626807307E+02  0.11910222667E+03  0.47000000000E+01 0.  1.
          5    1    4    4  502    0 -0.23815480875E+02  0.10121408929E+02 -0.12792095477E+03  0.13059663364E+03  0.47000000000E+01 0.  1.
         -5    1    4    4    0  502 -0.49646749894E+02 -0.20414366002E+03 -0.49531605211E+03  0.53805159155E+03  0.47000000000E+01 0.  1.
<mgrwt>
<rscale>  0 0.55458612E+03</rscale>
<asrwt>0</asrwt>
<pdfrwt beam="1">  1       21 0.13614776E-01 0.55458612E+03</pdfrwt>
<pdfrwt beam="2">  1       21 0.13367211E+00 0.55458612E+03</pdfrwt>
<totfact> 0.16389682E+04</totfact>
</mgrwt>
</event>
<event>
 8    1  0.9175398E-006  0.2659161E+03  0.7546771E-02  0.1103640E+00
         21   -1    0    0  504  503  0.00000000000E+00  0.00000000000E+00  0.44365559918E+02  0.44365559918E+02  0.00000000000E+00 0. -1.
         21   -1    0    0  503  504 -0.00000000000E+00 -0.00000000000E+00 -0.39845876609E+03  0.39845876609E+03  0.00000000000E+00 0. -1.
         25    2    1    2    0    0  0.20753559061E+02  0.31447590187E+02 -0.13515886420E+03  0.18791649099E+03  0.12500011149E+03 0.  0.
         25    2    1    2    0    0 -0.20753559061E+02 -0.31447590187E+02 -0.21893434197E+03  0.25490783501E+03  0.12500438839E+03 0.  0.
          5    1    3    3  501    0 -0.47804748038E+02  0.33583090575E+02 -0.83046241814E+02  0.10164588623E+03  0.47000000000E+01 0. -1.
         -5    1    3    3    0  501  0.68558307099E+02 -0.21355003883E+01 -0.52112622389E+02  0.86270604765E+02  0.47000000000E+01 0. -1.
          5    1    4    4  502    0 -0.43662828493E+02 -0.54189193935E+02 -0.20971429277E+03  0.22100924398E+03  0.47000000000E+01 0.  1.
         -5    1    4    4    0  502  0.22909269432E+02  0.22741603748E+02 -0.92200491942E+01  0.33898591034E+02  0.47000000000E+01 0.  1.
<mgrwt>
<rscale>  0 0.26591612E+03</rscale>
<asrwt>0</asrwt>
<pdfrwt beam="1">  1       21 0.68254711E-02 0.26591612E+03</pdfrwt>
<pdfrwt beam="2">  1       21 0.61301346E-01 0.26591612E+03</pdfrwt>
<totfact> 0.38441867E+05</totfact>
</mgrwt>
</event>
<event>
 8    1  0.9175398E-006  0.3433757E+03  0.7546771E-02  0.1065367E+00
         21   -1    0    0  504  503  0.00000000000E+00  0.00000000000E+00  0.18951885987E+03  0.18951885987E+03  0.00000000000E+00 0. -1.
         21   -1    0    0  503  504 -0.00000000000E+00 -0.00000000000E+00 -0.15553452573E+03  0.15553452573E+03  0.00000000000E+00 0. -1.
         25    2    1    2    0    0 -0.57874931845E+01 -0.96706985756E+02 -0.50163301492E+02  0.16591395032E+03  0.12500138369E+03 0.  0.
         25    2    1    2    0    0  0.57874931845E+01  0.96706985756E+02  0.84147635631E+02  0.17913943527E+03  0.12499750603E+03 0.  0.
          5    1    3    3  501    0  0.24046100139E+02 -0.13907136658E+02 -0.70101531565E+02  0.75550897477E+02  0.47000000000E+01 0. -1.
         -5    1    3    3    0  501 -0.29833593323E+02 -0.82799849098E+02  0.19938230072E+02  0.90363052846E+02  0.47000000000E+01 0. -1.
          5    1    4    4  502    0 -0.16656957357E+02  0.46564711707E+02 -0.25920879761E+02  0.56033102826E+02  0.47000000000E+01 0. -1.
         -5    1    4    4    0  502  0.22444450542E+02  0.50142274049E+02  0.11006851539E+03  0.12310633244E+03  0.47000000000E+01 0. -1.
<mgrwt>
<rscale>  0 0.34337575E+03</rscale>
<asrwt>0</asrwt>
<pdfrwt beam="1">  1       21 0.29156748E-01 0.34337575E+03</pdfrwt>
<pdfrwt beam="2">  1       21 0.23928389E-01 0.34337575E+03</pdfrwt>
<totfact> 0.17832818E+05</totfact>
</mgrwt>
</event>
<event>
 8    1  0.9175398E-006  0.2618006E+03  0.7546771E-02  0.1106066E+00
         21   -1    0    0  504  503  0.00000000000E+00  0.00000000000E+00  0.19080427026E+03  0.19080427026E+03  0.00000000000E+00 0. -1.
         21   -1    0    0  503  504 -0.00000000000E+00 -0.00000000000E+00 -0.89803507706E+02  0.89803507706E+02  0.00000000000E+00 0. -1.
         25    2    1    2    0    0  0.29139669588E+02 -0.23917266310E+02  0.40350459668E+02  0.13664624507E+03  0.12499152261E+03 0.  0.
         25    2    1    2    0    0 -0.29139669588E+02  0.23917266310E+02  0.60650302882E+02  0.14396153289E+03  0.12500123096E+03 0.  0.
          5    1    3    3  501    0  0.70716384849E+02 -0.35395115270E+01  0.52824199632E+02  0.88463672175E+02  0.47000000000E+01 0. -1.
         -5    1    3    3    0  501 -0.41576715261E+02 -0.20377754783E+02 -0.12473739964E+02  0.48182572893E+02  0.47000000000E+01 0. -1.
          5    1    4    4  502    0  0.96024230136E+01  0.41311619400E+02  0.84764194847E+02  0.94899500279E+02  0.47000000000E+01 0. -1.
         -5    1    4    4    0  502 -0.38742092601E+02 -0.17394353090E+02 -0.24113891965E+02  0.49062032614E+02  0.47000000000E+01 0. -1.
<mgrwt>
<rscale>  0 0.26180063E+03</rscale>
<asrwt>0</asrwt>
<pdfrwt beam="1">  1       21 0.29354503E-01 0.26180063E+03</pdfrwt>
<pdfrwt beam="2">  1       21 0.13815924E-01 0.26180063E+03</pdfrwt>
<totfact> 0.49958628E+05</totfact>
</mgrwt>
</event>
<event>
 8    1  0.9175398E-006  0.3378171E+03  0.7546771E-02  0.1067729E+00
         21   -1    0    0  504  503  0.00000000000E+00  0.00000000000E+00  0.32121278477E+02  0.32121278477E+02  0.00000000000E+00 0.  1.
         21   -1    0    0  503  504 -0.00000000000E+00 -0.00000000000E+00 -0.88819941365E+03  0.88819941365E+03  0.00000000000E+00 0.  1.
         25    2    1    2    0    0  0.15058345333E+02 -0.65244945237E+02 -0.67804556839E+03  0.69271484579E+03  0.12499763242E+03 0.  0.
         25    2    1    2    0    0 -0.15058345333E+02  0.65244945237E+02 -0.17803256678E+03  0.22760584634E+03  0.12500067924E+03 0.  0.
          5    1    3    3  501    0 -0.16639173064E+01  0.34579076190E+02 -0.27123530209E+03  0.27347606884E+03  0.47000000000E+01 0.  1.
         -5    1    3    3    0  501  0.16722262640E+02 -0.99824021427E+02 -0.40681026631E+03  0.41923877694E+03  0.47000000000E+01 0.  1.
          5    1    4    4  502    0  0.38979403799E+02  0.65682790082E+02 -0.14538861607E+03  0.16429717744E+03  0.47000000000E+01 0. -1.
         -5    1    4    4    0  502 -0.54037749132E+02 -0.43784484521E+00 -0.32643950708E+02  0.63308668894E+02  0.47000000000E+01 0. -1.
<mgrwt>
<rscale>  0 0.33781711E+03</rscale>
<asrwt>0</asrwt>
<pdfrwt beam="1">  1       21 0.49417348E-02 0.33781711E+03</pdfrwt>
<pdfrwt beam="2">  1       21 0.13664607E+00 0.33781711E+03</pdfrwt>
<totfact> 0.99046018E+04</totfact>
</mgrwt>
</event>
<event>
 8    1  0.9175398E-006  0.3049339E+03  0.7546771E-02  0.1082800E+00
         21   -1    0    0  504  503  0.00000000000E+00  0.00000000000E+00  0.10108262171E+03  0.10108262171E+03  0.00000000000E+00 0.  1.
         21   -1    0    0  503  504 -0.00000000000E+00 -0.00000000000E+00 -0.22997197002E+03  0.22997197002E+03  0.00000000000E+00 0.  1.
         25    2    1    2    0    0  0.14456901025E+02  0.31580185180E+02 -0.15141066540E+03  0.19937906823E+03  0.12498205138E+03 0.  0.
         25    2    1    2    0    0 -0.14456901025E+02 -0.31580185180E+02  0.22521317095E+02  0.13167552350E+03  0.12499969473E+03 0.  0.
          5    1    3    3  501    0  0.38251312361E+02  0.10333410984E+02 -0.16089524489E+03  0.16576885144E+03  0.47000000000E+01 0.  1.
         -5    1    3    3    0  501 -0.23794411335E+02  0.21246774196E+02  0.94845794898E+01  0.33610216789E+02  0.47000000000E+01 0.  1.
          5    1    4    4  502    0  0.19566422552E+02 -0.44791414351E+02  0.61082592483E+02  0.78372755442E+02  0.47000000000E+01 0.  1.
         -5    1    4    4    0  502 -0.34023323577E+02  0.13211229171E+02 -0.38561275388E+02  0.53302768061E+02  0.47000000000E+01 0.  1.
<mgrwt>
<rscale>  0 0.30493389E+03</rscale>
<asrwt>0</asrwt>
<pdfrwt beam="1">  1       21 0.15551173E-01 0.30493389E+03</pdfrwt>
<pdfrwt beam="2">  1       21 0.35380303E-01 0.30493389E+03</pdfrwt>
<totfact> 0.27547312E+05</totfact>
</mgrwt>
</event>
<event>
 8    1  0.9175398E-006  0.2903389E+03  0.7546771E-02  0.1090172E+00
         21   -1    0    0  504  503  0.00000000000E+00  0.00000000000E+00  0.68691514585E+02  0.68691514585E+02  0.00000000000E+00 0. -1.
         21   -1    0    0  503  504 -0.00000000000E+00 -0.00000000000E+00 -0.30679439355E+03  0.30679439355E+03  0.00000000000E+00 0. -1.
         25    2    1    2    0    0 -0.68156141058E+02  0.18832872789E+02 -0.91646767110E+02  0.17036537942E+03  0.12500118368E+03 0.  0.
         25    2    1    2    0    0  0.68156141058E+02 -0.18832872789E+02 -0.14645611185E+03  0.20512052872E+03  0.12500040776E+03 0.  0.
          5    1    3    3  501    0  0.15115377908E+02  0.36532682799E+02  0.65161757351E+01  0.40344294615E+02  0.47000000000E+01 0.  1.
         -5    1    3    3    0  501 -0.83271518966E+02 -0.17699810009E+02 -0.98162942845E+02  0.13002108480E+03  0.47000000000E+01 0.  1.
          5    1    4    4  502    0  0.52377152129E+02 -0.26405128075E+01  0.40910946728E+01  0.52812549916E+02  0.47000000000E+01 0. -1.
         -5    1    4    4    0  502  0.15778988929E+02 -0.16192359982E+02 -0.15054720653E+03  0.15230797880E+03  0.47000000000E+01 0. -1.
<mgrwt>
<rscale>  0 0.29033892E+03</rscale>
<asrwt>0</asrwt>
<pdfrwt beam="1">  1       21 0.10567925E-01 0.29033892E+03</pdfrwt>
<pdfrwt beam="2">  1       21 0.47199138E-01 0.29033892E+03</pdfrwt>
<totfact> 0.30886851E+05</totfact>
</mgrwt>
</event>
<event>
 8    1  0.9175398E-006  0.2943427E+03  0.7546771E-02  0.1088103E+00
         21   -1    0    0  504  503  0.00000000000E+00  0.00000000000E+00  0.16214396789E+03  0.16214396789E+03  0.00000000000E+00 0. -1.
         21   -1    0    0  503  504 -0.00000000000E+00 -0.00000000000E+00 -0.13358137094E+03  0.13358137094E+03  0.00000000000E+00 0. -1.
         25    2    1    2    0    0  0.84530666538E+01 -0.12784212344E+02  0.90788792960E+02  0.15525290459E+03  0.12500387608E+03 0.  0.
         25    2    1    2    0    0 -0.84530666538E+01  0.12784212344E+02 -0.62226196002E+02  0.14047243424E+03  0.12500205955E+03 0.  0.
          5    1    3    3  501    0  0.96079939300E+01 -0.63123929816E+02  0.17792704272E+02  0.66450089452E+02  0.47000000000E+01 0.  1.
         -5    1    3    3    0  501 -0.11549272762E+01  0.50339717472E+02  0.72996088688E+02  0.88802815136E+02  0.47000000000E+01 0.  1.
          5    1    4    4  502    0  0.40296560059E+02  0.17216791373E+02 -0.77349225131E+02  0.89023723165E+02  0.47000000000E+01 0.  1.
         -5    1    4    4    0  502 -0.48749626713E+02 -0.44325790288E+01  0.15123029129E+02  0.51448711078E+02  0.47000000000E+01 0.  1.
<mgrwt>
<rscale>  0 0.29434275E+03</rscale>
<asrwt>0</asrwt>
<pdfrwt beam="1">  1       21 0.24945226E-01 0.29434275E+03</pdfrwt>
<pdfrwt beam="2">  1       21 0.20550980E-01 0.29434275E+03</pdfrwt>
<totfact> 0.32620662E+05</totfact>
</mgrwt>
</event>
<event>
 8    1  0.9175398E-006  0.4202651E+03  0.7546771E-02  0.1036980E+00
         21   -1    0    0  504  503  0.00000000000E+00  0.00000000000E+00  0.45235089019E+03  0.45235089019E+03  0.00000000000E+00 0.  1.
         21   -1    0    0  503  504 -0.00000000000E+00 -0.00000000000E+00 -0.97613791699E+02  0.97613791699E+02  0.00000000000E+00 0.  1.
         25    2    1    2    0    0 -0.15413449911E+01  0.56268055226E+02 -0.31031801314E+02  0.14056124430E+03  0.12500408363E+03 0.  0.
         25    2    1    2    0    0  0.15413449911E+01 -0.56268055226E+02  0.38576889981E+03  0.40940343759E+03  0.12500024346E+03 0.  0.
          5    1    3    3  501    0 -0.23475544941E+02 -0.69012730630E+01  0.37288482901E+02  0.44846959064E+02  0.47000000000E+01 0. -1.
         -5    1    3    3    0  501  0.21934199950E+02  0.63169328289E+02 -0.68320284215E+02  0.95714285241E+02  0.47000000000E+01 0. -1.
          5    1    4    4  502    0  0.80853973370E+01 -0.43783081605E+02  0.39107207925E+03  0.39362646387E+03  0.47000000000E+01 0.  1.
         -5    1    4    4    0  502 -0.65440523460E+01 -0.12484973622E+02 -0.53031794474E+01  0.15776973718E+02  0.47000000000E+01 0.  1.
<mgrwt>
<rscale>  0 0.42026509E+03</rscale>
<asrwt>0</asrwt>
<pdfrwt beam="1">  1       21 0.69592444E-01 0.42026509E+03</pdfrwt>
<pdfrwt beam="2">  1       21 0.15017507E-01 0.42026509E+03</pdfrwt>
<totfact> 0.68398088E+04</totfact>
</mgrwt>
</event>
<event>
 8    1  0.9175398E-006  0.2660001E+03  0.7546771E-02  0.1103591E+00
         21   -1    0    0  504  503  0.00000000000E+00  0.00000000000E+00  0.26285853943E+03  0.26285853943E+03  0.00000000000E+00 0. -1.
         21   -1    0    0  503  504 -0.00000000000E+00 -0.00000000000E+00 -0.67294791106E+02  0.67294791106E+02  0.00000000000E+00 0. -1.
         25    2    1    2    0    0  0.42046805463E+02 -0.11899458918E+02  0.11328179357E+03  0.17425720242E+03  0.12499310728E+03 0.  0.
         25    2    1    2    0    0 -0.42046805463E+02  0.11899458918E+02  0.82281954758E+02  0.15589612812E+03  0.12499500675E+03 0.  0.
          5    1    3    3  501    0 -0.30691985374E+02 -0.36090859281E+02  0.74005037660E+02  0.87996498162E+02  0.47000000000E+01 0. -1.
         -5    1    3    3    0  501  0.72738790837E+02  0.24191400363E+02  0.39276755908E+02  0.86260704255E+02  0.47000000000E+01 0. -1.
          5    1    4    4  502    0 -0.84660259785E+02 -0.36443663630E+01  0.65863742369E+02  0.10742794586E+03  0.47000000000E+01 0.  1.
         -5    1    4    4    0  502  0.42613454322E+02  0.15543825281E+02  0.16418212390E+02  0.48468182261E+02  0.47000000000E+01 0.  1.
<mgrwt>
<rscale>  0 0.26600008E+03</rscale>
<asrwt>0</asrwt>
<pdfrwt beam="1">  1       21 0.40439775E-01 0.26600008E+03</pdfrwt>
<pdfrwt beam="2">  1       21 0.10353045E-01 0.26600008E+03</pdfrwt>
<totfact> 0.44285837E+05</totfact>
</mgrwt>
</event>
<event>
 8    1  0.9175398E-006  0.5842007E+03  0.7546771E-02  0.9938738E-01
         21   -1    0    0  504  503  0.00000000000E+00  0.00000000000E+00  0.16138906411E+03  0.16138906411E+03  0.00000000000E+00 0.  1.
         21   -1    0    0  503  504 -0.00000000000E+00 -0.00000000000E+00 -0.52867663638E+03  0.52867663638E+03  0.00000000000E+00 0.  1.
         25    2    1    2    0    0 -0.86121082402E+02  0.24813527861E+03 -0.21502353517E+03  0.36172951005E+03  0.12500064176E+03 0.  0.
         25    2    1    2    0    0  0.86121082402E+02 -0.24813527861E+03 -0.15226403709E+03  0.32833619043E+03  0.12502943506E+03 0.  0.
          5    1    3    3  501    0 -0.14002439445E+02  0.20058448255E+03 -0.17415933884E+03  0.26605219085E+03  0.47000000000E+01 0.  1.
         -5    1    3    3    0  501 -0.72118642957E+02  0.47550796060E+02 -0.40864196331E+02  0.95677319202E+02  0.47000000000E+01 0.  1.
          5    1    4    4  502    0  0.10387836249E+03 -0.24991676768E+03 -0.13277898294E+03  0.30149867872E+03  0.47000000000E+01 0.  1.
         -5    1    4    4    0  502 -0.17757280087E+02  0.17814890712E+01 -0.19485054156E+02  0.26837511711E+02  0.47000000000E+01 0.  1.
<mgrwt>
<rscale>  0 0.58420074E+03</rscale>
<asrwt>0</asrwt>
<pdfrwt beam="1">  1       21 0.24829086E-01 0.58420074E+03</pdfrwt>
<pdfrwt beam="2">  1       21 0.81334869E-01 0.58420074E+03</pdfrwt>
<totfact> 0.17769467E+04</totfact>
</mgrwt>
</event>
<event>
 8    1  0.9175398E-006  0.2599290E+03  0.7546771E-02  0.1107186E+00
         21   -1    0    0  504  503  0.00000000000E+00  0.00000000000E+00  0.22497439705E+03  0.22497439705E+03  0.00000000000E+00 0.  1.
         21   -1    0    0  503  504 -0.00000000000E+00 -0.00000000000E+00 -0.75078662521E+02  0.75078662521E+02  0.00000000000E+00 0.  1.
         25    2    1    2    0    0  0.20929901128E+02  0.22550197255E+02  0.54303034708E+02  0.13971326710E+03  0.12499762105E+03 0.  0.
         25    2    1    2    0    0 -0.20929901128E+02 -0.22550197255E+02  0.95592699821E+02  0.16033979247E+03  0.12499725050E+03 0.  0.
          5    1    3    3  501    0  0.47666327975E+02  0.42819148548E+01  0.83174776331E+02  0.96075735933E+02  0.47000000000E+01 0.  1.
         -5    1    3    3    0  501 -0.26736426848E+02  0.18268282400E+02 -0.28871741623E+02  0.43637531172E+02  0.47000000000E+01 0.  1.
          5    1    4    4  502    0  0.35862113978E+02  0.25572612826E+02  0.67294904669E+02  0.80565153386E+02  0.47000000000E+01 0.  1.
         -5    1    4    4    0  502 -0.56792015105E+02 -0.48122810081E+02  0.28297795152E+02  0.79774639079E+02  0.47000000000E+01 0.  1.
<mgrwt>
<rscale>  0 0.25992904E+03</rscale>
<asrwt>0</asrwt>
<pdfrwt beam="1">  1       21 0.34611445E-01 0.25992904E+03</pdfrwt>
<pdfrwt beam="2">  1       21 0.11550564E-01 0.25992904E+03</pdfrwt>
<totfact> 0.49885793E+05</totfact>
</mgrwt>
</event>
<event>
 8    1  0.9175398E-006  0.7631209E+03  0.7546771E-02  0.9614988E-01
         21   -1    0    0  504  503  0.00000000000E+00  0.00000000000E+00  0.34991706434E+03  0.34991706434E+03  0.00000000000E+00 0. -1.
         21   -1    0    0  503  504 -0.00000000000E+00 -0.00000000000E+00 -0.41606533210E+03  0.41606533210E+03  0.00000000000E+00 0. -1.
         25    2    1    2    0    0  0.25954710458E+03  0.36394271021E+01 -0.28418279649E+03  0.40467689865E+03  0.12500234222E+03 0.  0.
         25    2    1    2    0    0 -0.25954710458E+03 -0.36394271021E+01  0.21803452872E+03  0.36130549778E+03  0.12499864835E+03 0.  0.
          5    1    3    3  501    0  0.26484674726E+03 -0.15926540737E+02 -0.27425228894E+03  0.38162004955E+03  0.47000000000E+01 0.  1.
         -5    1    3    3    0  501 -0.52996426866E+01  0.19565967839E+02 -0.99305075516E+01  0.23056849098E+02  0.47000000000E+01 0.  1.
          5    1    4    4  502    0 -0.74505591517E+02 -0.58718675734E+02  0.71629639652E+02  0.11896159600E+03  0.47000000000E+01 0. -1.
         -5    1    4    4    0  502 -0.18504151306E+03  0.55079248632E+02  0.14640488907E+03  0.24234390178E+03  0.47000000000E+01 0. -1.
<mgrwt>
<rscale>  0 0.76312085E+03</rscale>
<asrwt>0</asrwt>
<pdfrwt beam="1">  1       21 0.53833394E-01 0.76312085E+03</pdfrwt>
<pdfrwt beam="2">  1       21 0.64010051E-01 0.76312085E+03</pdfrwt>
<totfact> 0.60444497E+03</totfact>
</mgrwt>
</event>
<event>
 8    1  0.9175398E-006  0.2554631E+03  0.7546771E-02  0.1109900E+00
         21   -1    0    0  504  503  0.00000000000E+00  0.00000000000E+00  0.56883940429E+02  0.56883940429E+02  0.00000000000E+00 0. -1.
         21   -1    0    0  503  504 -0.00000000000E+00 -0.00000000000E+00 -0.28681813840E+03  0.28681813840E+03  0.00000000000E+00 0. -1.
         25    2    1    2    0    0  0.85106860762E+01 -0.15734459778E+02 -0.89057307217E+02  0.15451922967E+03  0.12499993347E+03 0.  0.
         25    2    1    2    0    0 -0.85106860762E+01  0.15734459778E+02 -0.14087689076E+03  0.18918284916E+03  0.12499538817E+03 0.  0.
          5    1    3    3  501    0  0.24950599640E+02  0.27119171676E+02 -0.10036098796E+03  0.10701588574E+03  0.47000000000E+01 0. -1.
         -5    1    3    3    0  501 -0.16439913564E+02 -0.42853631454E+02  0.11303680748E+02  0.47503343937E+02  0.47000000000E+01 0. -1.
          5    1    4    4  502    0  0.18705439530E+02 -0.48744089030E+02 -0.38326301146E+02  0.64937470253E+02  0.47000000000E+01 0.  1.
         -5    1    4    4    0  502 -0.27216125606E+02  0.64478548808E+02 -0.10255058961E+03  0.12424537891E+03  0.47000000000E+01 0.  1.
<mgrwt>
<rscale>  0 0.25546308E+03</rscale>
<asrwt>0</asrwt>
<pdfrwt beam="1">  1       21 0.87513753E-02 0.25546308E+03</pdfrwt>
<pdfrwt beam="2">  1       21 0.44125868E-01 0.25546308E+03</pdfrwt>
<totfact> 0.49981369E+05</totfact>
</mgrwt>
</event>
<event>
 8    1  0.9175398E-006  0.3003130E+03  0.7546771E-02  0.1085084E+00
         21   -1    0    0  504  503  0.00000000000E+00  0.00000000000E+00  0.13606784572E+03  0.13606784572E+03  0.00000000000E+00 0.  1.
         21   -1    0    0  503  504 -0.00000000000E+00 -0.00000000000E+00 -0.16570388586E+03  0.16570388586E+03  0.00000000000E+00 0.  1.
         25    2    1    2    0    0  0.63207098811E+02 -0.42642765358E+02 -0.48226389950E+02  0.15415798317E+03  0.12500142523E+03 0.  0.
         25    2    1    2    0    0 -0.63207098811E+02  0.42642765358E+02  0.18590349816E+02  0.14761374841E+03  0.12502269728E+03 0.  0.
          5    1    3    3  501    0  0.71645599129E+02  0.40307170202E+01 -0.71244380002E+02  0.10122840627E+03  0.47000000000E+01 0. -1.
         -5    1    3    3    0  501 -0.84385003183E+01 -0.46673482378E+02  0.23017990052E+02  0.52929576902E+02  0.47000000000E+01 0. -1.
          5    1    4    4  502    0  0.27158050384E+02 -0.11542152182E+02  0.28989112617E+02  0.41632194609E+02  0.47000000000E+01 0. -1.
         -5    1    4    4    0  502 -0.90365149195E+02  0.54184917540E+02 -0.10398762801E+02  0.10598155380E+03  0.47000000000E+01 0. -1.
<mgrwt>
<rscale>  0 0.30031298E+03</rscale>
<asrwt>0</asrwt>
<pdfrwt beam="1">  1       21 0.20933515E-01 0.30031298E+03</pdfrwt>
<pdfrwt beam="2">  1       21 0.25492905E-01 0.30031298E+03</pdfrwt>
<totfact> 0.30173648E+05</totfact>
</mgrwt>
</event>
<event>
 8    1  0.9175398E-006  0.2957395E+03  0.7546771E-02  0.1087390E+00
         21   -1    0    0  504  503  0.00000000000E+00  0.00000000000E+00  0.46762292404E+03  0.46762292404E+03  0.00000000000E+00 0. -1.
         21   -1    0    0  503  504 -0.00000000000E+00 -0.00000000000E+00 -0.46758754644E+02  0.46758754644E+02  0.00000000000E+00 0. -1.
         25    2    1    2    0    0 -0.74260897335E+02  0.23218367862E+02  0.23420427791E+03  0.27664288127E+03  0.12500346590E+03 0.  0.
         25    2    1    2    0    0  0.74260897335E+02 -0.23218367862E+02  0.18665989149E+03  0.23773879742E+03  0.12499618885E+03 0.  0.
          5    1    3    3  501    0  0.24933296717E+02 -0.41422060649E+01  0.61921217993E+01  0.26443515815E+02  0.47000000000E+01 0. -1.
         -5    1    3    3    0  501 -0.99194194052E+02  0.27360573927E+02  0.22801215611E+03  0.25019936545E+03  0.47000000000E+01 0. -1.
          5    1    4    4  502    0 -0.58770825420E+01  0.78894103273E+00  0.14310693355E+03  0.14330682802E+03  0.47000000000E+01 0. -1.
         -5    1    4    4    0  502  0.80137979877E+02 -0.24007308895E+02  0.43552957939E+02  0.94431969398E+02  0.47000000000E+01 0. -1.
<mgrwt>
<rscale>  0 0.29573952E+03</rscale>
<asrwt>0</asrwt>
<pdfrwt beam="1">  1       21 0.71941985E-01 0.29573952E+03</pdfrwt>
<pdfrwt beam="2">  1       21 0.71936549E-02 0.29573952E+03</pdfrwt>
<totfact> 0.24488753E+05</totfact>
</mgrwt>
</event>
<event>
 8    1  0.9175398E-006  0.2926619E+03  0.7546771E-02  0.1088967E+00
         21   -1    0    0  504  503  0.00000000000E+00  0.00000000000E+00  0.78876744609E+03  0.78876744609E+03  0.00000000000E+00 0. -1.
         21   -1    0    0  503  504 -0.00000000000E+00 -0.00000000000E+00 -0.27147094864E+02  0.27147094864E+02  0.00000000000E+00 0. -1.
         25    2    1    2    0    0 -0.33057211633E+02  0.32900098710E+01  0.18999218824E+03  0.22983592886E+03  0.12499567672E+03 0.  0.
         25    2    1    2    0    0  0.33057211633E+02 -0.32900098710E+01  0.57162816299E+03  0.58607861210E+03  0.12500311767E+03 0.  0.
          5    1    3    3  501    0 -0.39010780041E+02  0.20326961082E+02  0.20256815580E+03  0.20734264890E+03  0.47000000000E+01 0. -1.
         -5    1    3    3    0  501  0.59535684074E+01 -0.17036951211E+02 -0.12575967564E+02  0.22493279964E+02  0.47000000000E+01 0. -1.
          5    1    4    4  502    0 -0.26795551877E+02  0.32029424789E+02  0.37750378375E+03  0.37983559918E+03  0.47000000000E+01 0. -1.
         -5    1    4    4    0  502  0.59852763510E+02 -0.35319434660E+02  0.19412437924E+03  0.20624301292E+03  0.47000000000E+01 0. -1.
<mgrwt>
<rscale>  0 0.29266188E+03</rscale>
<asrwt>0</asrwt>
<pdfrwt beam="1">  1       21 0.12134882E+00 0.29266188E+03</pdfrwt>
<pdfrwt beam="2">  1       21 0.41764767E-02 0.29266188E+03</pdfrwt>
<totfact> 0.18112367E+05</totfact>
</mgrwt>
</event>
<event>
 8    1  0.9175398E-006  0.2913178E+03  0.7546771E-02  0.1089663E+00
         21   -1    0    0  504  503  0.00000000000E+00  0.00000000000E+00  0.18473441845E+04  0.18473441845E+04  0.00000000000E+00 0. -1.
         21   -1    0    0  503  504 -0.00000000000E+00 -0.00000000000E+00 -0.11484871185E+02  0.11484871185E+02  0.00000000000E+00 0. -1.
         25    2    1    2    0    0 -0.37412639937E+01  0.36934552429E+02  0.50379599685E+03  0.52039836716E+03  0.12500358347E+03 0.  0.
         25    2    1    2    0    0  0.37412639937E+01 -0.36934552429E+02  0.13320633164E+04  0.13384306885E+04  0.12500348272E+03 0.  0.
          5    1    3    3  501    0  0.88805183262E+01  0.81989117357E+02  0.34742589211E+03  0.35711051437E+03  0.47000000000E+01 0. -1.
         -5    1    3    3    0  501 -0.12621782320E+02 -0.45054564929E+02  0.15637010474E+03  0.16328785278E+03  0.47000000000E+01 0. -1.
          5    1    4    4  502    0 -0.81590464592E+01 -0.81942557171E+02  0.76233117875E+03  0.76678032630E+03  0.47000000000E+01 0. -1.
         -5    1    4    4    0  502  0.11900310453E+02  0.45008004742E+02  0.56973213768E+03  0.57165036219E+03  0.47000000000E+01 0. -1.
<mgrwt>
<rscale>  0 0.29131776E+03</rscale>
<asrwt>0</asrwt>
<pdfrwt beam="1">  1       21 0.28420656E+00 0.29131776E+03</pdfrwt>
<pdfrwt beam="2">  1       21 0.17669047E-02 0.29131776E+03</pdfrwt>
<totfact> 0.59180623E+04</totfact>
</mgrwt>
</event>
<event>
 8    1  0.9175398E-006  0.2580503E+03  0.7546771E-02  0.1108320E+00
         21   -1    0    0  504  503  0.00000000000E+00  0.00000000000E+00  0.37746209354E+03  0.37746209354E+03  0.00000000000E+00 0. -1.
         21   -1    0    0  503  504 -0.00000000000E+00 -0.00000000000E+00 -0.44103724216E+02  0.44103724216E+02  0.00000000000E+00 0. -1.
         25    2    1    2    0    0 -0.11306503742E+02 -0.10801503829E+02  0.12138502498E+03  0.17498475695E+03  0.12506330941E+03 0.  0.
         25    2    1    2    0    0  0.11306503742E+02  0.10801503829E+02  0.21197334434E+03  0.24658106082E+03  0.12500004531E+03 0.  0.
          5    1    3    3  501    0 -0.43456806813E+02 -0.17832915760E+02  0.13191911410E+03  0.14011156129E+03  0.47000000000E+01 0.  1.
         -5    1    3    3    0  501  0.32150303072E+02  0.70314119311E+01 -0.10534089118E+02  0.34873195651E+02  0.47000000000E+01 0.  1.
          5    1    4    4  502    0 -0.43199825942E+02  0.41414227577E+02  0.75967629198E+02  0.96822176660E+02  0.47000000000E+01 0.  1.
         -5    1    4    4    0  502  0.54506329683E+02 -0.30612723748E+02  0.13600571515E+03  0.14975888416E+03  0.47000000000E+01 0.  1.
<mgrwt>
<rscale>  0 0.25805026E+03</rscale>
<asrwt>0</asrwt>
<pdfrwt beam="1">  1       21 0.58071089E-01 0.25805026E+03</pdfrwt>
<pdfrwt beam="2">  1       21 0.67851886E-02 0.25805026E+03</pdfrwt>
<totfact> 0.43729932E+05</totfact>
</mgrwt>
</event>
<event>
 8    1  0.9175398E-006  0.2873455E+03  0.7546771E-02  0.1091743E+00
         21   -1    0    0  504  503  0.00000000000E+00  0.00000000000E+00  0.80332793671E+02  0.80332793671E+02  0.00000000000E+00 0.  1.
         21   -1    0    0  503  504 -0.00000000000E+00 -0.00000000000E+00 -0.25695426431E+03  0.25695426431E+03  0.00000000000E+00 0.  1.
         25    2    1    2    0    0  0.21155117645E+02 -0.65644336335E+02 -0.10748791909E+03  0.17868056577E+03  0.12496549099E+03 0.  0.
         25    2    1    2    0    0 -0.21155117645E+02  0.65644336335E+02 -0.69133551549E+02  0.15860649221E+03  0.12497941241E+03 0.  0.
          5    1    3    3  501    0  0.55827141006E+02 -0.78172338090E+02 -0.10352583317E+03  0.14130559879E+03  0.47000000000E+01 0. -1.
         -5    1    3    3    0  501 -0.34672023361E+02  0.12528001755E+02 -0.39620859161E+01  0.37374966980E+02  0.47000000000E+01 0. -1.
          5    1    4    4  502    0  0.26590190397E+02  0.86127232953E+02 -0.48885656278E+02  0.10264909094E+03  0.47000000000E+01 0.  1.
         -5    1    4    4    0  502 -0.47745308042E+02 -0.20482896617E+02 -0.20247895271E+02  0.55957401269E+02  0.47000000000E+01 0.  1.
<mgrwt>
<rscale>  0 0.28734546E+03</rscale>
<asrwt>0</asrwt>
<pdfrwt beam="1">  1       21 0.12358891E-01 0.28734546E+03</pdfrwt>
<pdfrwt beam="2">  1       21 0.39531426E-01 0.28734546E+03</pdfrwt>
<totfact> 0.33610935E+05</totfact>
</mgrwt>
</event>
<event>
 8    1  0.9175398E-006  0.2519670E+03  0.7546771E-02  0.1112068E+00
         21   -1    0    0  504  503  0.00000000000E+00  0.00000000000E+00  0.62102619182E+02  0.62102619182E+02  0.00000000000E+00 0. -1.
         21   -1    0    0  503  504 -0.00000000000E+00 -0.00000000000E+00 -0.25557451932E+03  0.25557451932E+03  0.00000000000E+00 0. -1.
         25    2    1    2    0    0 -0.11771901710E+02 -0.71500666824E+01 -0.87112683812E+02  0.15297521791E+03  0.12499238573E+03 0.  0.
         25    2    1    2    0    0  0.11771901710E+02  0.71500666824E+01 -0.10635921632E+03  0.16470192058E+03  0.12499895449E+03 0.  0.
          5    1    3    3  501    0  0.53853558579E+02 -0.18137327235E+02 -0.53884764750E+02  0.78452700928E+02  0.47000000000E+01 0.  1.
         -5    1    3    3    0  501 -0.65625460289E+02  0.10987260552E+02 -0.33227919062E+02  0.74522516985E+02  0.47000000000E+01 0.  1.
          5    1    4    4  502    0  0.16376199255E+02  0.58005177842E+02 -0.94314781774E+02  0.11202744583E+03  0.47000000000E+01 0. -1.
         -5    1    4    4    0  502 -0.46042975454E+01 -0.50855111159E+02 -0.12044434547E+02  0.52674474753E+02  0.47000000000E+01 0. -1.
<mgrwt>
<rscale>  0 0.25196704E+03</rscale>
<asrwt>0</asrwt>
<pdfrwt beam="1">  1       21 0.95542491E-02 0.25196704E+03</pdfrwt>
<pdfrwt beam="2">  1       21 0.39319157E-01 0.25196704E+03</pdfrwt>
<totfact> 0.54222138E+05</totfact>
</mgrwt>
</event>
<event>
 8    1  0.9175398E-006  0.4261344E+03  0.7546771E-02  0.1035088E+00
         21   -1    0    0  504  503  0.00000000000E+00  0.00000000000E+00  0.12690696555E+04  0.12690696555E+04  0.00000000000E+00 0.  1.
         21   -1    0    0  503  504 -0.00000000000E+00 -0.00000000000E+00 -0.35772379742E+02  0.35772379742E+02  0.00000000000E+00 0.  1.
         25    2    1    2    0    0  0.89407151503E+02 -0.14726384681E+03  0.64594465069E+03  0.68011128124E+03  0.12500633503E+03 0.  0.
         25    2    1    2    0    0 -0.89407151503E+02  0.14726384681E+03  0.58735262512E+03  0.62473075405E+03  0.12500051804E+03 0.  0.
          5    1    3    3  501    0  0.48581900958E+02 -0.14843502597E+03  0.59207430285E+03  0.61234567699E+03  0.47000000000E+01 0. -1.
         -5    1    3    3    0  501  0.40825250545E+02  0.11711791616E+01  0.53870347841E+02  0.67765604249E+02  0.47000000000E+01 0. -1.
          5    1    4    4  502    0  0.11889162188E+02  0.86318787198E+02  0.33242981062E+03  0.34369165569E+03  0.47000000000E+01 0. -1.
         -5    1    4    4    0  502 -0.10129631369E+03  0.60945059608E+02  0.25492281450E+03  0.28103909837E+03  0.47000000000E+01 0. -1.
<mgrwt>
<rscale>  0 0.42613445E+03</rscale>
<asrwt>0</asrwt>
<pdfrwt beam="1">  1       21 0.19524145E+00 0.42613445E+03</pdfrwt>
<pdfrwt beam="2">  1       21 0.55034440E-02 0.42613445E+03</pdfrwt>
<totfact> 0.29499701E+04</totfact>
</mgrwt>
</event>
<event>
 8    1  0.9175398E-006  0.2757119E+03  0.7546771E-02  0.1098054E+00
         21   -1    0    0  504  503  0.00000000000E+00  0.00000000000E+00  0.16543988103E+03  0.16543988103E+03  0.00000000000E+00 0. -1.
         21   -1    0    0  503  504 -0.00000000000E+00 -0.00000000000E+00 -0.11487106962E+03  0.11487106962E+03  0.00000000000E+00 0. -1.
         25    2    1    2    0    0  0.39196074283E+02  0.27097374607E+02  0.59132903565E+02  0.14626294469E+03  0.12500219500E+03 0.  0.
         25    2    1    2    0    0 -0.39196074283E+02 -0.27097374607E+02 -0.85640921527E+01  0.13404800596E+03  0.12499969711E+03 0.  0.
          5    1    3    3  501    0 -0.60846271385E+01  0.57814926479E+02  0.69125185298E+02  0.90443184673E+02  0.47000000000E+01 0.  1.
         -5    1    3    3    0  501  0.45280701421E+02 -0.30717551872E+02 -0.99922817333E+01  0.55819760018E+02  0.47000000000E+01 0.  1.
          5    1    4    4  502    0  0.33391093845E+02 -0.19677861136E+02  0.31957535566E+02  0.50453517682E+02  0.47000000000E+01 0. -1.
         -5    1    4    4    0  502 -0.72587168128E+02 -0.74195134718E+01 -0.40521627719E+02  0.83594488275E+02  0.47000000000E+01 0. -1.
<mgrwt>
<rscale>  0 0.27571185E+03</rscale>
<asrwt>0</asrwt>
<pdfrwt beam="1">  1       21 0.25452289E-01 0.27571185E+03</pdfrwt>
<pdfrwt beam="2">  1       21 0.17672472E-01 0.27571185E+03</pdfrwt>
<totfact> 0.41791893E+05</totfact>
</mgrwt>
</event>
<event>
 8    1  0.9175398E-006  0.2868728E+03  0.7546771E-02  0.1091993E+00
         21   -1    0    0  504  503  0.00000000000E+00  0.00000000000E+00  0.17447542274E+03  0.17447542274E+03  0.00000000000E+00 0.  1.
         21   -1    0    0  503  504 -0.00000000000E+00 -0.00000000000E+00 -0.11791920723E+03  0.11791920723E+03  0.00000000000E+00 0.  1.
         25    2    1    2    0    0 -0.40712426505E+01  0.70241774296E+02  0.28150751314E+02  0.14616889524E+03  0.12498959661E+03 0.  0.
         25    2    1    2    0    0  0.40712426505E+01 -0.70241774296E+02  0.28405464189E+02  0.14622573473E+03  0.12499845291E+03 0.  0.
          5    1    3    3  501    0  0.19627665783E+02  0.88685137216E+02  0.54423914569E+02  0.10599222285E+03  0.47000000000E+01 0. -1.
         -5    1    3    3    0  501 -0.23698908433E+02 -0.18443362920E+02 -0.26273163255E+02  0.40176672388E+02  0.47000000000E+01 0. -1.
          5    1    4    4  502    0  0.41497275772E+02 -0.18490702461E+02 -0.33899489804E+02  0.56878777967E+02  0.47000000000E+01 0.  1.
         -5    1    4    4    0  502 -0.37426033122E+02 -0.51751071835E+02  0.62304953993E+02  0.89346956766E+02  0.47000000000E+01 0.  1.
<mgrwt>
<rscale>  0 0.28687282E+03</rscale>
<asrwt>0</asrwt>
<pdfrwt beam="1">  1       21 0.26842373E-01 0.28687282E+03</pdfrwt>
<pdfrwt beam="2">  1       21 0.18141416E-01 0.28687282E+03</pdfrwt>
<totfact> 0.35835326E+05</totfact>
</mgrwt>
</event>
<event>
 8    1  0.9175398E-006  0.2726362E+03  0.7546771E-02  0.1099780E+00
         21   -1    0    0  504  503  0.00000000000E+00  0.00000000000E+00  0.10618996651E+03  0.10618996651E+03  0.00000000000E+00 0.  1.
         21   -1    0    0  503  504 -0.00000000000E+00 -0.00000000000E+00 -0.17499419014E+03  0.17499419014E+03  0.00000000000E+00 0.  1.
         25    2    1    2    0    0  0.36935050606E+02 -0.36140727908E+02 -0.51829208324E+02  0.14485556458E+03  0.12500607016E+03 0.  0.
         25    2    1    2    0    0 -0.36935050606E+02  0.36140727908E+02 -0.16975015304E+02  0.13632859207E+03  0.12500793453E+03 0.  0.
          5    1    3    3  501    0 -0.11234581695E+02  0.10278477270E+02  0.33044159483E+02  0.36686092689E+02  0.47000000000E+01 0. -1.
         -5    1    3    3    0  501  0.48169632301E+02 -0.46419205179E+02 -0.84873367807E+02  0.10816947189E+03  0.47000000000E+01 0. -1.
          5    1    4    4  502    0 -0.28254365245E+01 -0.37844950491E+02  0.23863208373E+02  0.45075116007E+02  0.47000000000E+01 0. -1.
         -5    1    4    4    0  502 -0.34109614081E+02  0.73985678399E+02 -0.40838223677E+02  0.91253476066E+02  0.47000000000E+01 0. -1.
<mgrwt>
<rscale>  0 0.27263622E+03</rscale>
<asrwt>0</asrwt>
<pdfrwt beam="1">  1       21 0.16336918E-01 0.27263622E+03</pdfrwt>
<pdfrwt beam="2">  1       21 0.26922183E-01 0.27263622E+03</pdfrwt>
<totfact> 0.43397122E+05</totfact>
</mgrwt>
</event>
<event>
 8    1  0.9175398E-006  0.3270746E+03  0.7546771E-02  0.1072439E+00
         21   -1    0    0  504  503  0.00000000000E+00  0.00000000000E+00  0.17886518517E+03  0.17886518517E+03  0.00000000000E+00 0.  1.
         21   -1    0    0  503  504 -0.00000000000E+00 -0.00000000000E+00 -0.14952296907E+03  0.14952296907E+03  0.00000000000E+00 0.  1.
         25    2    1    2    0    0  0.36053854121E+02 -0.98896899073E+02  0.83764580561E+01  0.16363200372E+03  0.12499916219E+03 0.  0.
         25    2    1    2    0    0 -0.36053854121E+02  0.98896899073E+02  0.20965758053E+02  0.16475615052E+03  0.12499819631E+03 0.  0.
          5    1    3    3  501    0  0.67371546365E+02 -0.61570993922E+02  0.45602289407E+02  0.10213506426E+03  0.47000000000E+01 0. -1.
         -5    1    3    3    0  501 -0.31317692244E+02 -0.37325905151E+02 -0.37225831351E+02  0.61496939457E+02  0.47000000000E+01 0. -1.
          5    1    4    4  502    0 -0.17698554816E+02  0.12724377749E+03  0.10013542344E+02  0.12894409169E+03  0.47000000000E+01 0. -1.
         -5    1    4    4    0  502 -0.18355299306E+02 -0.28346878418E+02  0.10952215710E+02  0.35812058829E+02  0.47000000000E+01 0. -1.
<mgrwt>
<rscale>  0 0.32707463E+03</rscale>
<asrwt>0</asrwt>
<pdfrwt beam="1">  1       21 0.27517721E-01 0.32707463E+03</pdfrwt>
<pdfrwt beam="2">  1       21 0.23003534E-01 0.32707463E+03</pdfrwt>
<totfact> 0.21618174E+05</totfact>
</mgrwt>
</event>
<event>
 8    1  0.9175398E-006  0.3557514E+03  0.7546771E-02  0.1060279E+00
         21   -1    0    0  504  503  0.00000000000E+00  0.00000000000E+00  0.19092345539E+03  0.19092345539E+03  0.00000000000E+00 0. -1.
         21   -1    0    0  503  504 -0.00000000000E+00 -0.00000000000E+00 -0.16571962464E+03  0.16571962464E+03  0.00000000000E+00 0. -1.
         25    2    1    2    0    0  0.32363440162E+02 -0.11408644853E+03  0.56908766908E+02  0.18145504858E+03  0.12499686759E+03 0.  0.
         25    2    1    2    0    0 -0.32363440162E+02  0.11408644853E+03 -0.31704936157E+02  0.17518803146E+03  0.12499013317E+03 0.  0.
          5    1    3    3  501    0 -0.36957671925E+02 -0.80388052779E+02  0.56734670549E+01  0.88782806737E+02  0.47000000000E+01 0.  1.
         -5    1    3    3    0  501  0.69321112086E+02 -0.33698395756E+02  0.51235299853E+02  0.92672241844E+02  0.47000000000E+01 0.  1.
          5    1    4    4  502    0 -0.99622373788E+01 -0.12109424702E+02  0.28993114469E+02  0.33295270337E+02  0.47000000000E+01 0. -1.
         -5    1    4    4    0  502 -0.22401202783E+02  0.12619587324E+03 -0.60698050626E+02  0.14189276112E+03  0.47000000000E+01 0. -1.
<mgrwt>
<rscale>  0 0.35575139E+03</rscale>
<asrwt>0</asrwt>
<pdfrwt beam="1">  1       21 0.29372839E-01 0.35575139E+03</pdfrwt>
<pdfrwt beam="2">  1       21 0.25495327E-01 0.35575139E+03</pdfrwt>
<totfact> 0.15507915E+05</totfact>
</mgrwt>
</event>
<event>
 8    1  0.9175398E-006  0.3009879E+03  0.7546771E-02  0.1084748E+00
         21   -1    0    0  504  503  0.00000000000E+00  0.00000000000E+00  0.91533918217E+02  0.91533918217E+02  0.00000000000E+00 0.  1.
         21   -1    0    0  503  504 -0.00000000000E+00 -0.00000000000E+00 -0.24743215466E+03  0.24743215466E+03  0.00000000000E+00 0.  1.
         25    2    1    2    0    0  0.26330486441E+02 -0.41789138683E+01  0.11526440976E+02  0.12832609864E+03  0.12499588359E+03 0.  0.
         25    2    1    2    0    0 -0.26330486441E+02  0.41789138683E+01 -0.16742467742E+03  0.21063997424E+03  0.12500967283E+03 0.  0.
          5    1    3    3  501    0 -0.40741597711E+02 -0.28525671240E+01 -0.28539331009E+02  0.50045962252E+02  0.47000000000E+01 0. -1.
         -5    1    3    3    0  501  0.67072084152E+02 -0.13263467443E+01  0.40065771985E+02  0.78280136388E+02  0.47000000000E+01 0. -1.
          5    1    4    4  502    0 -0.97346476263E+01 -0.21992786669E+02 -0.17635401740E+03  0.17804852003E+03  0.47000000000E+01 0. -1.
         -5    1    4    4    0  502 -0.16595838815E+02  0.26171700538E+02  0.89293399828E+01  0.32591454210E+02  0.47000000000E+01 0. -1.
<mgrwt>
<rscale>  0 0.30098794E+03</rscale>
<asrwt>0</asrwt>
<pdfrwt beam="1">  1       21 0.14082141E-01 0.30098794E+03</pdfrwt>
<pdfrwt beam="2">  1       21 0.38066485E-01 0.30098794E+03</pdfrwt>
<totfact> 0.28541303E+05</totfact>
</mgrwt>
</event>
<event>
 8    1  0.9175398E-006  0.2850758E+03  0.7546771E-02  0.1092949E+00
         21   -1    0    0  504  503  0.00000000000E+00  0.00000000000E+00  0.18244396000E+04  0.18244396000E+04  0.00000000000E+00 0.  1.
         21   -1    0    0  503  504 -0.00000000000E+00 -0.00000000000E+00 -0.11136050791E+02  0.11136050791E+02  0.00000000000E+00 0.  1.
         25    2    1    2    0    0  0.26223989097E+02 -0.62084544764E+02  0.82771929769E+03  0.83981308074E+03  0.12499834600E+03 0.  0.
         25    2    1    2    0    0 -0.26223989097E+02  0.62084544764E+02  0.98558425149E+03  0.99576257003E+03  0.12499836310E+03 0.  0.
          5    1    3    3  501    0  0.73522067857E+02 -0.58103684545E+02  0.51505397381E+03  0.52353053259E+03  0.47000000000E+01 0.  1.
         -5    1    3    3    0  501 -0.47298078760E+02 -0.39808602195E+01  0.31266532388E+03  0.31628254814E+03  0.47000000000E+01 0.  1.
          5    1    4    4  502    0 -0.14322250119E+02  0.81749037004E+02  0.94674379174E+03  0.95038619997E+03  0.47000000000E+01 0. -1.
         -5    1    4    4    0  502 -0.11901738978E+02 -0.19664492240E+02  0.38840459754E+02  0.45376370058E+02  0.47000000000E+01 0. -1.
<mgrwt>
<rscale>  0 0.28507579E+03</rscale>
<asrwt>0</asrwt>
<pdfrwt beam="1">  1       21 0.28068278E+00 0.28507579E+03</pdfrwt>
<pdfrwt beam="2">  1       21 0.17132400E-02 0.28507579E+03</pdfrwt>
<totfact> 0.65506945E+04</totfact>
</mgrwt>
</event>
<event>
 8    1  0.9175398E-006  0.3171099E+03  0.7546771E-02  0.1076987E+00
         21   -1    0    0  504  503  0.00000000000E+00  0.00000000000E+00  0.30373825356E+03  0.30373825356E+03  0.00000000000E+00 0. -1.
         21   -1    0    0  503  504 -0.00000000000E+00 -0.00000000000E+00 -0.82767550969E+02  0.82767550969E+02  0.00000000000E+00 0. -1.
         25    2    1    2    0    0  0.62018949512E+02 -0.52688222746E+02  0.44844434512E+02  0.15574372704E+03  0.12499074482E+03 0.  0.
         25    2    1    2    0    0 -0.62018949512E+02  0.52688222746E+02  0.17612626808E+03  0.23076207749E+03  0.12493308282E+03 0.  0.
          5    1    3    3  501    0  0.93831414407E+02 -0.65427527765E+02  0.36471406650E+02  0.12015552098E+03  0.47000000000E+01 0.  1.
         -5    1    3    3    0  501 -0.31812464895E+02  0.12739305019E+02  0.83730278615E+01  0.35588206061E+02  0.47000000000E+01 0.  1.
          5    1    4    4  502    0 -0.18307999370E+02  0.76020891802E+02  0.44618958679E+02  0.90151540780E+02  0.47000000000E+01 0.  1.
         -5    1    4    4    0  502 -0.43710950142E+02 -0.23332669057E+02  0.13150730940E+03  0.14061053671E+03  0.47000000000E+01 0.  1.
<mgrwt>
<rscale>  0 0.31710990E+03</rscale>
<asrwt>0</asrwt>
<pdfrwt beam="1">  1       21 0.46728961E-01 0.31710990E+03</pdfrwt>
<pdfrwt beam="2">  1       21 0.12733470E-01 0.31710990E+03</pdfrwt>
<totfact> 0.22414054E+05</totfact>
</mgrwt>
</event>
<event>
 8    1  0.9175398E-006  0.3207168E+03  0.7546771E-02  0.1075320E+00
         21   -1    0    0  504  503  0.00000000000E+00  0.00000000000E+00  0.54456807371E+02  0.54456807371E+02  0.00000000000E+00 0. -1.
         21   -1    0    0  503  504 -0.00000000000E+00 -0.00000000000E+00 -0.47220582929E+03  0.47220582929E+03  0.00000000000E+00 0. -1.
         25    2    1    2    0    0  0.70655717734E+02 -0.69829246153E+02 -0.23325497492E+03  0.28267111917E+03  0.12500689671E+03 0.  0.
         25    2    1    2    0    0 -0.70655717734E+02  0.69829246153E+02 -0.18449404700E+03  0.24399151748E+03  0.12500181263E+03 0.  0.
          5    1    3    3  501    0  0.83808915375E+02 -0.11594563886E+00 -0.92047864699E+02  0.12457466490E+03  0.47000000000E+01 0.  1.
         -5    1    3    3    0  501 -0.13153197642E+02 -0.69713300514E+02 -0.14120711022E+03  0.15809645427E+03  0.47000000000E+01 0.  1.
          5    1    4    4  502    0 -0.50207387245E+02 -0.87647272474E+01 -0.14459615969E+03  0.15338755352E+03  0.47000000000E+01 0.  1.
         -5    1    4    4    0  502 -0.20448330488E+02  0.78593973400E+02 -0.39897887310E+02  0.90603963966E+02  0.47000000000E+01 0.  1.
<mgrwt>
<rscale>  0 0.32071683E+03</rscale>
<asrwt>0</asrwt>
<pdfrwt beam="1">  1       21 0.83779705E-02 0.32071683E+03</pdfrwt>
<pdfrwt beam="2">  1       21 0.72647050E-01 0.32071683E+03</pdfrwt>
<totfact> 0.18231713E+05</totfact>
</mgrwt>
</event>
<event>
 8    1  0.9175398E-006  0.4779919E+03  0.7546771E-02  0.1019689E+00
         21   -1    0    0  504  503  0.00000000000E+00  0.00000000000E+00  0.94209645794E+02  0.94209645794E+02  0.00000000000E+00 0. -1.
         21   -1    0    0  503  504 -0.00000000000E+00 -0.00000000000E+00 -0.60629732311E+03  0.60629732311E+03  0.00000000000E+00 0. -1.
         25    2    1    2    0    0  0.11931084957E+03 -0.64989341741E+02 -0.33623374850E+02  0.18766042903E+03  0.12500884737E+03 0.  0.
         25    2    1    2    0    0 -0.11931084957E+03  0.64989341741E+02 -0.47846430247E+03  0.51284653988E+03  0.12499916546E+03 0.  0.
          5    1    3    3  501    0  0.62370067058E+02 -0.54767325957E+02 -0.78463338932E+02  0.11431566303E+03  0.47000000000E+01 0.  1.
         -5    1    3    3    0  501  0.56940782517E+02 -0.10222015783E+02  0.44839964083E+02  0.73344765997E+02  0.47000000000E+01 0.  1.
          5    1    4    4  502    0  0.16101764309E+01  0.54780758693E+02 -0.86570017191E+02  0.10256696382E+03  0.47000000000E+01 0.  1.
         -5    1    4    4    0  502 -0.12092102601E+03  0.10208583048E+02 -0.39189428528E+03  0.41027957606E+03  0.47000000000E+01 0.  1.
<mgrwt>
<rscale>  0 0.47799187E+03</rscale>
<asrwt>0</asrwt>
<pdfrwt beam="1">  1       21 0.14493791E-01 0.47799187E+03</pdfrwt>
<pdfrwt beam="2">  1       21 0.93276512E-01 0.47799187E+03</pdfrwt>
<totfact> 0.36601370E+04</totfact>
</mgrwt>
</event>
<event>
 8    1  0.9175398E-006  0.4473355E+03  0.7546771E-02  0.1028520E+00
         21   -1    0    0  504  503  0.00000000000E+00  0.00000000000E+00  0.31866707947E+03  0.31866707947E+03  0.00000000000E+00 0.  1.
         21   -1    0    0  503  504 -0.00000000000E+00 -0.00000000000E+00 -0.15698913440E+03  0.15698913440E+03  0.00000000000E+00 0.  1.
         25    2    1    2    0    0 -0.63527793886E+01  0.13042087253E+03 -0.59229216105E+02  0.19021856270E+03  0.12500015903E+03 0.  0.
         25    2    1    2    0    0  0.63527793886E+01 -0.13042087253E+03  0.22090716118E+03  0.28543765118E+03  0.12499886820E+03 0.  0.
          5    1    3    3  501    0 -0.42358218699E+01  0.38663742492E+02 -0.85994512292E+02  0.94498536046E+02  0.47000000000E+01 0. -1.
         -5    1    3    3    0  501 -0.21169575187E+01  0.91757130038E+02  0.26765296187E+02  0.95720026650E+02  0.47000000000E+01 0. -1.
          5    1    4    4  502    0  0.56021120354E+02 -0.10369809780E+03  0.18154096276E+03  0.21649681885E+03  0.47000000000E+01 0. -1.
         -5    1    4    4    0  502 -0.49668340965E+02 -0.26722774728E+02  0.39366198421E+02  0.68940832324E+02  0.47000000000E+01 0. -1.
<mgrwt>
<rscale>  0 0.44733553E+03</rscale>
<asrwt>0</asrwt>
<pdfrwt beam="1">  1       21 0.49025704E-01 0.44733553E+03</pdfrwt>
<pdfrwt beam="2">  1       21 0.24152175E-01 0.44733553E+03</pdfrwt>
<totfact> 0.59359782E+04</totfact>
</mgrwt>
</event>
<event>
 8    1  0.9175398E-006  0.2886195E+03  0.7546771E-02  0.1091072E+00
         21   -1    0    0  504  503  0.00000000000E+00  0.00000000000E+00  0.18781360494E+03  0.18781360494E+03  0.00000000000E+00 0. -1.
         21   -1    0    0  503  504 -0.00000000000E+00 -0.00000000000E+00 -0.11088285559E+03  0.11088285559E+03  0.00000000000E+00 0. -1.
         25    2    1    2    0    0  0.63059788941E+02 -0.61595103166E+01  0.74110529097E+02  0.15852592376E+03  0.12499448561E+03 0.  0.
         25    2    1    2    0    0 -0.63059788941E+02  0.61595103166E+01  0.28202202508E+01  0.14017053676E+03  0.12500139674E+03 0.  0.
          5    1    3    3  501    0 -0.17446956965E+02  0.14226243752E+02  0.71713669658E+02  0.75310840750E+02  0.47000000000E+01 0. -1.
         -5    1    3    3    0  501  0.80506745906E+02 -0.20385754069E+02  0.23968594395E+01  0.83215083011E+02  0.47000000000E+01 0. -1.
          5    1    4    4  502    0 -0.86993484959E+02  0.66170606327E+01 -0.35856695003E+02  0.94442810702E+02  0.47000000000E+01 0. -1.
         -5    1    4    4    0  502  0.23933696018E+02 -0.45755031607E+00  0.38676915254E+02  0.45727726063E+02  0.47000000000E+01 0. -1.
<mgrwt>
<rscale>  0 0.28861953E+03</rscale>
<asrwt>0</asrwt>
<pdfrwt beam="1">  1       21 0.28894401E-01 0.28861953E+03</pdfrwt>
<pdfrwt beam="2">  1       21 0.17058901E-01 0.28861953E+03</pdfrwt>
<totfact> 0.34794861E+05</totfact>
</mgrwt>
</event>
<event>
 8    1  0.9175398E-006  0.2806719E+03  0.7546771E-02  0.1095323E+00
         21   -1    0    0  504  503  0.00000000000E+00  0.00000000000E+00  0.61012721969E+02  0.61012721969E+02  0.00000000000E+00 0.  1.
         21   -1    0    0  503  504 -0.00000000000E+00 -0.00000000000E+00 -0.32278814341E+03  0.32278814341E+03  0.00000000000E+00 0.  1.
         25    2    1    2    0    0  0.45898391829E+02  0.43839259670E+02 -0.13966986536E+03  0.19789101217E+03  0.12499855338E+03 0.  0.
         25    2    1    2    0    0 -0.45898391829E+02 -0.43839259670E+02 -0.12210555608E+03  0.18590985321E+03  0.12499665449E+03 0.  0.
          5    1    3    3  501    0  0.54785944363E+01  0.66042636158E+02 -0.19728340470E+02  0.69303262588E+02  0.47000000000E+01 0. -1.
         -5    1    3    3    0  501  0.40419797393E+02 -0.22203376488E+02 -0.11994152489E+03  0.12858774958E+03  0.47000000000E+01 0. -1.
          5    1    4    4  502    0 -0.24513692450E+02 -0.61412799534E+01  0.22941228590E+02  0.34453249574E+02  0.47000000000E+01 0.  1.
         -5    1    4    4    0  502 -0.21384699379E+02 -0.37697979716E+02 -0.14504678467E+03  0.15145660364E+03  0.47000000000E+01 0.  1.
<mgrwt>
<rscale>  0 0.28067193E+03</rscale>
<asrwt>0</asrwt>
<pdfrwt beam="1">  1       21 0.93865725E-02 0.28067193E+03</pdfrwt>
<pdfrwt beam="2">  1       21 0.49659715E-01 0.28067193E+03</pdfrwt>
<totfact> 0.34363744E+05</totfact>
</mgrwt>
</event>
<event>
 8    1  0.9175398E-006  0.2659141E+03  0.7546771E-02  0.1103641E+00
         21   -1    0    0  504  503  0.00000000000E+00  0.00000000000E+00  0.52076807829E+02  0.52076807829E+02  0.00000000000E+00 0. -1.
         21   -1    0    0  503  504 -0.00000000000E+00 -0.00000000000E+00 -0.33945196733E+03  0.33945196733E+03  0.00000000000E+00 0. -1.
         25    2    1    2    0    0 -0.30076428383E+02 -0.33798323630E+02 -0.14631200716E+03  0.19769209871E+03  0.12501217631E+03 0.  0.
         25    2    1    2    0    0  0.30076428383E+02  0.33798323630E+02 -0.14106315234E+03  0.19383667645E+03  0.12500770363E+03 0.  0.
          5    1    3    3  501    0 -0.33236765597E+02 -0.58759408860E+02 -0.15621882322E+03  0.17024617894E+03  0.47000000000E+01 0. -1.
         -5    1    3    3    0  501  0.31603372143E+01  0.24961085229E+02  0.99068160581E+01  0.27445919761E+02  0.47000000000E+01 0. -1.
          5    1    4    4  502    0  0.46693462632E+02  0.72635150610E+02 -0.11533172993E+03  0.14415145676E+03  0.47000000000E+01 0. -1.
         -5    1    4    4    0  502 -0.16617034249E+02 -0.38836826979E+02 -0.25731422410E+02  0.49685219697E+02  0.47000000000E+01 0. -1.
<mgrwt>
<rscale>  0 0.26591408E+03</rscale>
<asrwt>0</asrwt>
<pdfrwt beam="1">  1       21 0.80118165E-02 0.26591408E+03</pdfrwt>
<pdfrwt beam="2">  1       21 0.52223380E-01 0.26591408E+03</pdfrwt>
<totfact> 0.40976530E+05</totfact>
</mgrwt>
</event>
<event>
 8    1  0.9175398E-006  0.4202606E+03  0.7546771E-02  0.1036982E+00
         21   -1    0    0  504  503  0.00000000000E+00  0.00000000000E+00  0.63076689183E+03  0.63076689183E+03  0.00000000000E+00 0.  1.
         21   -1    0    0  503  504 -0.00000000000E+00 -0.00000000000E+00 -0.70001674683E+02  0.70001674683E+02  0.00000000000E+00 0.  1.
         25    2    1    2    0    0  0.69771963191E+02  0.15198236319E+03  0.24081525901E+03  0.31872166771E+03  0.12499898771E+03 0.  0.
         25    2    1    2    0    0 -0.69771963191E+02 -0.15198236319E+03  0.31994995814E+03  0.38204689881E+03  0.12500036642E+03 0.  0.
          5    1    3    3  501    0 -0.32201355837E+02  0.68408919352E+02  0.72432075769E+02  0.10481031994E+03  0.47000000000E+01 0.  1.
         -5    1    3    3    0  501  0.10197331903E+03  0.83573443840E+02  0.16838318324E+03  0.21391134777E+03  0.47000000000E+01 0.  1.
          5    1    4    4  502    0 -0.14369635825E+02 -0.11010932627E+03  0.28123386851E+03  0.30239895662E+03  0.47000000000E+01 0. -1.
         -5    1    4    4    0  502 -0.55402327366E+02 -0.41873036918E+02  0.38716089624E+02  0.79647942184E+02  0.47000000000E+01 0. -1.
<mgrwt>
<rscale>  0 0.42026058E+03</rscale>
<asrwt>0</asrwt>
<pdfrwt beam="1">  1       21 0.97041056E-01 0.42026058E+03</pdfrwt>
<pdfrwt beam="2">  1       21 0.10769489E-01 0.42026058E+03</pdfrwt>
<totfact> 0.58064648E+04</totfact>
</mgrwt>
</event>
<event>
 8    1  0.9175398E-006  0.5251471E+03  0.7546771E-02  0.1007416E+00
         21   -1    0    0  504  503  0.00000000000E+00  0.00000000000E+00  0.14358814909E+03  0.14358814909E+03  0.00000000000E+00 0.  1.
         21   -1    0    0  503  504 -0.00000000000E+00 -0.00000000000E+00 -0.48015707971E+03  0.48015707971E+03  0.00000000000E+00 0.  1.
         25    2    1    2    0    0  0.14059124689E+03  0.17404367987E+03 -0.23609766747E+03  0.34846328456E+03  0.12500980318E+03 0.  0.
         25    2    1    2    0    0 -0.14059124689E+03 -0.17404367987E+03 -0.10047126315E+03  0.27528194425E+03  0.12501429081E+03 0.  0.
          5    1    3    3  501    0  0.29378853502E+02  0.64891524721E+02 -0.75193539142E+01  0.71782015136E+02  0.47000000000E+01 0.  1.
         -5    1    3    3    0  501  0.11121239339E+03  0.10915215515E+03 -0.22857831356E+03  0.27668126942E+03  0.47000000000E+01 0.  1.
          5    1    4    4  502    0 -0.13504027446E+03 -0.70375369265E+02 -0.61353999838E+02  0.16424059066E+03  0.47000000000E+01 0. -1.
         -5    1    4    4    0  502 -0.55509724385E+01 -0.10366831060E+03 -0.39117263309E+02  0.11104135359E+03  0.47000000000E+01 0. -1.
<mgrwt>
<rscale>  0 0.52514709E+03</rscale>
<asrwt>0</asrwt>
<pdfrwt beam="1">  1       21 0.22090485E-01 0.52514709E+03</pdfrwt>
<pdfrwt beam="2">  1       21 0.73870320E-01 0.52514709E+03</pdfrwt>
<totfact> 0.28182924E+04</totfact>
</mgrwt>
</event>
<event>
 8    1  0.9175398E-006  0.2919215E+03  0.7546771E-02  0.1089350E+00
         21   -1    0    0  504  503  0.00000000000E+00  0.00000000000E+00  0.18273030352E+03  0.18273030352E+03  0.00000000000E+00 0. -1.
         21   -1    0    0  503  504 -0.00000000000E+00 -0.00000000000E+00 -0.11659009194E+03  0.11659009194E+03  0.00000000000E+00 0. -1.
         25    2    1    2    0    0  0.16721441100E+02  0.75568558308E+01 -0.41861683051E+02  0.13310452635E+03  0.12501080660E+03 0.  0.
         25    2    1    2    0    0 -0.16721441100E+02 -0.75568558308E+01  0.10800189463E+03  0.16621586910E+03  0.12500637278E+03 0.  0.
          5    1    3    3  501    0 -0.16889865790E+02  0.45415543110E+02 -0.61643189537E+02  0.78548150447E+02  0.47000000000E+01 0.  1.
         -5    1    3    3    0  501  0.33611306890E+02 -0.37858687279E+02  0.19781506486E+02  0.54556375908E+02  0.47000000000E+01 0.  1.
          5    1    4    4  502    0 -0.39049675030E+02  0.42585477095E+02  0.92190824799E+02  0.10890196581E+03  0.47000000000E+01 0. -1.
         -5    1    4    4    0  502  0.22328233930E+02 -0.50142332926E+02  0.15811069834E+02  0.57313903296E+02  0.47000000000E+01 0. -1.
<mgrwt>
<rscale>  0 0.29192152E+03</rscale>
<asrwt>0</asrwt>
<pdfrwt beam="1">  1       21 0.28112354E-01 0.29192152E+03</pdfrwt>
<pdfrwt beam="2">  1       21 0.17936937E-01 0.29192152E+03</pdfrwt>
<totfact> 0.33417826E+05</totfact>
</mgrwt>
</event>
<event>
 8    1  0.9175398E-006  0.2642377E+03  0.7546771E-02  0.1104624E+00
         21   -1    0    0  504  503  0.00000000000E+00  0.00000000000E+00  0.48466303190E+02  0.48466303190E+02  0.00000000000E+00 0. -1.
         21   -1    0    0  503  504 -0.00000000000E+00 -0.00000000000E+00 -0.36015529605E+03  0.36015529605E+03  0.00000000000E+00 0. -1.
         25    2    1    2    0    0  0.27644879928E+01  0.12519971859E+02 -0.21897969360E+03  0.25246955543E+03  0.12499751246E+03 0.  0.
         25    2    1    2    0    0 -0.27644879928E+01 -0.12519971859E+02 -0.92709299262E+02  0.15615204381E+03  0.12499621805E+03 0.  0.
          5    1    3    3  501    0 -0.15542980500E+02  0.59566385781E+02 -0.61968754874E+02  0.87475454491E+02  0.47000000000E+01 0. -1.
         -5    1    3    3    0  501  0.18307468493E+02 -0.47046413921E+02 -0.15701093872E+03  0.16499410094E+03  0.47000000000E+01 0. -1.
          5    1    4    4  502    0  0.16946968136E+02 -0.52434421064E+02 -0.96503652147E+02  0.11122775337E+03  0.47000000000E+01 0. -1.
         -5    1    4    4    0  502 -0.19711456129E+02  0.39914449205E+02  0.37943528843E+01  0.44924290444E+02  0.47000000000E+01 0. -1.
<mgrwt>
<rscale>  0 0.26423774E+03</rscale>
<asrwt>0</asrwt>
<pdfrwt beam="1">  1       21 0.74563546E-02 0.26423774E+03</pdfrwt>
<pdfrwt beam="2">  1       21 0.55408505E-01 0.26423774E+03</pdfrwt>
<totfact> 0.40985599E+05</totfact>
</mgrwt>
</event>
<event>
 8    1  0.9175398E-006  0.3578583E+03  0.7546771E-02  0.1059435E+00
         21   -1    0    0  504  503  0.00000000000E+00  0.00000000000E+00  0.71516110701E+03  0.71516110701E+03  0.00000000000E+00 0.  1.
         21   -1    0    0  503  504 -0.00000000000E+00 -0.00000000000E+00 -0.44767031616E+02  0.44767031616E+02  0.00000000000E+00 0.  1.
         25    2    1    2    0    0 -0.18095796471E+02 -0.12462456230E+03  0.28622730898E+03  0.33676339726E+03  0.12499909580E+03 0.  0.
         25    2    1    2    0    0  0.18095796471E+02  0.12462456230E+03  0.38416676642E+03  0.42316474137E+03  0.12500221814E+03 0.  0.
          5    1    3    3  501    0 -0.40807127223E+02 -0.45635149208E+02  0.31388359552E+02  0.68957288163E+02  0.47000000000E+01 0.  1.
         -5    1    3    3    0  501  0.22711330752E+02 -0.78989413093E+02  0.25483894943E+03  0.26780610910E+03  0.47000000000E+01 0.  1.
          5    1    4    4  502    0  0.65657805527E+02  0.10195161034E+03  0.22804921970E+03  0.25832850188E+03  0.47000000000E+01 0. -1.
         -5    1    4    4    0  502 -0.47562009056E+02  0.22672951962E+02  0.15611754672E+03  0.16483623949E+03  0.47000000000E+01 0. -1.
<mgrwt>
<rscale>  0 0.35785830E+03</rscale>
<asrwt>0</asrwt>
<pdfrwt beam="1">  1       21 0.11002478E+00 0.35785830E+03</pdfrwt>
<pdfrwt beam="2">  1       21 0.68872362E-02 0.35785830E+03</pdfrwt>
<totfact> 0.96022435E+04</totfact>
</mgrwt>
</event>
<event>
 8    1  0.9175398E-006  0.3657825E+03  0.7546771E-02  0.1056317E+00
         21   -1    0    0  504  503  0.00000000000E+00  0.00000000000E+00  0.74389980286E+03  0.74389980286E+03  0.00000000000E+00 0.  1.
         21   -1    0    0  503  504 -0.00000000000E+00 -0.00000000000E+00 -0.44964671852E+02  0.44964671852E+02  0.00000000000E+00 0.  1.
         25    2    1    2    0    0  0.12061637239E+03 -0.55591511227E+02  0.37882113298E+03  0.42043927288E+03  0.12500002390E+03 0.  0.
         25    2    1    2    0    0 -0.12061637239E+03  0.55591511227E+02  0.32011399803E+03  0.36842520184E+03  0.12500172881E+03 0.  0.
          5    1    3    3  501    0  0.81115559546E+02 -0.70675995672E+02  0.13380805572E+03  0.17176005397E+03  0.47000000000E+01 0.  1.
         -5    1    3    3    0  501  0.39500812848E+02  0.15084484446E+02  0.24501307726E+03  0.24867921891E+03  0.47000000000E+01 0.  1.
          5    1    4    4  502    0 -0.12321919853E+03  0.64270757435E+02  0.17766862527E+03  0.22561456415E+03  0.47000000000E+01 0. -1.
         -5    1    4    4    0  502  0.26028261362E+01 -0.86792462087E+01  0.14244537275E+03  0.14281063769E+03  0.47000000000E+01 0. -1.
<mgrwt>
<rscale>  0 0.36578251E+03</rscale>
<asrwt>0</asrwt>
<pdfrwt beam="1">  1       21 0.11444611E+00 0.36578251E+03</pdfrwt>
<pdfrwt beam="2">  1       21 0.69176424E-02 0.36578251E+03</pdfrwt>
<totfact> 0.86258179E+04</totfact>
</mgrwt>
</event>
<event>
 8    1  0.9175398E-006  0.3154412E+03  0.7546771E-02  0.1077767E+00
         21   -1    0    0  504  503  0.00000000000E+00  0.00000000000E+00  0.33216480774E+02  0.33216480774E+02  0.00000000000E+00 0. -1.
         21   -1    0    0  503  504 -0.00000000000E+00 -0.00000000000E+00 -0.74889873113E+03  0.74889873113E+03  0.00000000000E+00 0. -1.
         25    2    1    2    0    0  0.61196748719E+02  0.51977207497E+02 -0.22656647734E+03  0.27093246164E+03  0.12500143185E+03 0.  0.
         25    2    1    2    0    0 -0.61196748719E+02 -0.51977207497E+02 -0.48911577302E+03  0.51118275026E+03  0.12500757016E+03 0.  0.
          5    1    3    3  501    0  0.50207491113E+02  0.25361986374E+02 -0.23409255383E+03  0.24080165339E+03  0.47000000000E+01 0.  1.
         -5    1    3    3    0  501  0.10989257606E+02  0.26615221124E+02  0.75260764975E+01  0.30130808247E+02  0.47000000000E+01 0.  1.
          5    1    4    4  502    0 -0.75311112226E+01  0.38790378867E+02 -0.91151007204E+02  0.99458570486E+02  0.47000000000E+01 0. -1.
         -5    1    4    4    0  502 -0.53665637496E+02 -0.90767586364E+02 -0.39796476581E+03  0.41172417977E+03  0.47000000000E+01 0. -1.
<mgrwt>
<rscale>  0 0.31544115E+03</rscale>
<asrwt>0</asrwt>
<pdfrwt beam="1">  1       21 0.51102279E-02 0.31544115E+03</pdfrwt>
<pdfrwt beam="2">  1       21 0.11521519E+00 0.31544115E+03</pdfrwt>
<totfact> 0.14525449E+05</totfact>
</mgrwt>
</event>
<event>
 8    1  0.9175398E-006  0.2851613E+03  0.7546771E-02  0.1092903E+00
         21   -1    0    0  504  503  0.00000000000E+00  0.00000000000E+00  0.13434440048E+02  0.13434440048E+02  0.00000000000E+00 0.  1.
         21   -1    0    0  503  504 -0.00000000000E+00 -0.00000000000E+00 -0.15132185132E+04  0.15132185132E+04  0.00000000000E+00 0.  1.
         25    2    1    2    0    0  0.83204339606E+01  0.46207555624E+02 -0.48220480617E+03  0.50034993501E+03  0.12499685818E+03 0.  0.
         25    2    1    2    0    0 -0.83204339606E+01 -0.46207555624E+02 -0.10175792670E+04  0.10263030182E+04  0.12500381126E+03 0.  0.
          5    1    3    3  501    0  0.17128736382E+02  0.48299124449E+02 -0.64469164053E+02  0.82489769949E+02  0.47000000000E+01 0. -1.
         -5    1    3    3    0  501 -0.88083024210E+01 -0.20915688254E+01 -0.41773564211E+03  0.41786016506E+03  0.47000000000E+01 0. -1.
          5    1    4    4  502    0  0.17484216554E+02  0.10617439484E+00 -0.85583250623E+03  0.85602399372E+03  0.47000000000E+01 0.  1.
         -5    1    4    4    0  502 -0.25804650515E+02 -0.46313730018E+02 -0.16174676073E+03  0.17027902450E+03  0.47000000000E+01 0.  1.
<mgrwt>
<rscale>  0 0.28516131E+03</rscale>
<asrwt>0</asrwt>
<pdfrwt beam="1">  1       21 0.20668378E-02 0.28516131E+03</pdfrwt>
<pdfrwt beam="2">  1       21 0.23280275E+00 0.28516131E+03</pdfrwt>
<totfact> 0.93193356E+04</totfact>
</mgrwt>
</event>
<event>
 8    1  0.9175398E-006  0.2723020E+03  0.7546771E-02  0.1099969E+00
         21   -1    0    0  504  503  0.00000000000E+00  0.00000000000E+00  0.32190362937E+02  0.32190362937E+02  0.00000000000E+00 0. -1.
         21   -1    0    0  503  504 -0.00000000000E+00 -0.00000000000E+00 -0.57585854105E+03  0.57585854105E+03  0.00000000000E+00 0. -1.
         25    2    1    2    0    0 -0.37883746666E+02  0.53788260311E+01 -0.35675295251E+03  0.37995049605E+03  0.12500240116E+03 0.  0.
         25    2    1    2    0    0  0.37883746666E+02 -0.53788260311E+01 -0.18691522560E+03  0.22809840793E+03  0.12500988804E+03 0.  0.
          5    1    3    3  501    0  0.11766307523E+02  0.40159806093E+02 -0.42353849076E+02  0.59725995594E+02  0.47000000000E+01 0.  1.
         -5    1    3    3    0  501 -0.49650054190E+02 -0.34780980062E+02 -0.31439910343E+03  0.32022450046E+03  0.47000000000E+01 0.  1.
          5    1    4    4  502    0  0.56385278089E+02 -0.17699075279E+01 -0.19786105409E+03  0.20579970575E+03  0.47000000000E+01 0. -1.
         -5    1    4    4    0  502 -0.18501531423E+02 -0.36089185033E+01  0.10945828492E+02  0.22298702185E+02  0.47000000000E+01 0. -1.
<mgrwt>
<rscale>  0 0.27230200E+03</rscale>
<asrwt>0</asrwt>
<pdfrwt beam="1">  1       21 0.49523637E-02 0.27230200E+03</pdfrwt>
<pdfrwt beam="2">  1       21 0.88593618E-01 0.27230200E+03</pdfrwt>
<totfact> 0.29152354E+05</totfact>
</mgrwt>
</event>
<event>
 8    1  0.9175398E-006  0.3445185E+03  0.7546771E-02  0.1064888E+00
         21   -1    0    0  504  503  0.00000000000E+00  0.00000000000E+00  0.42460995950E+03  0.42460995950E+03  0.00000000000E+00 0.  1.
         21   -1    0    0  503  504 -0.00000000000E+00 -0.00000000000E+00 -0.69883542401E+02  0.69883542401E+02  0.00000000000E+00 0.  1.
         25    2    1    2    0    0 -0.60089447683E+02  0.89953915140E+02  0.24689943304E+03  0.29712906032E+03  0.12499559945E+03 0.  0.
         25    2    1    2    0    0  0.60089447683E+02 -0.89953915140E+02  0.10782698406E+03  0.19736444158E+03  0.12499446282E+03 0.  0.
          5    1    3    3  501    0  0.31149464196E+02 -0.57895014633E+01  0.36397745638E+02  0.48483949245E+02  0.47000000000E+01 0. -1.
         -5    1    3    3    0  501 -0.91238911878E+02  0.95743416604E+02  0.21050168740E+03  0.24864511107E+03  0.47000000000E+01 0. -1.
          5    1    4    4  502    0  0.74047749279E+02 -0.10840105960E+03  0.60809804393E+02  0.14475420963E+03  0.47000000000E+01 0. -1.
         -5    1    4    4    0  502 -0.13958301597E+02  0.18447144455E+02  0.47017179668E+02  0.52610231951E+02  0.47000000000E+01 0. -1.
<mgrwt>
<rscale>  0 0.34451849E+03</rscale>
<asrwt>0</asrwt>
<pdfrwt beam="1">  1       21 0.65324608E-01 0.34451849E+03</pdfrwt>
<pdfrwt beam="2">  1       21 0.10751314E-01 0.34451849E+03</pdfrwt>
<totfact> 0.14736349E+05</totfact>
</mgrwt>
</event>
<event>
 8    1  0.9175398E-006  0.2616476E+03  0.7546771E-02  0.1106157E+00
         21   -1    0    0  504  503  0.00000000000E+00  0.00000000000E+00  0.65207414447E+03  0.65207414447E+03  0.00000000000E+00 0.  1.
         21   -1    0    0  503  504 -0.00000000000E+00 -0.00000000000E+00 -0.26246808984E+02  0.26246808984E+02  0.00000000000E+00 0.  1.
         25    2    1    2    0    0  0.11139366920E+02  0.36945672471E+02  0.31278646624E+03  0.33904452872E+03  0.12500700292E+03 0.  0.
         25    2    1    2    0    0 -0.11139366920E+02 -0.36945672471E+02  0.31304086924E+03  0.33927642473E+03  0.12499935342E+03 0.  0.
          5    1    3    3  501    0 -0.66912583648E+01  0.74050693098E+02  0.26742192308E+03  0.27760557096E+03  0.47000000000E+01 0. -1.
         -5    1    3    3    0  501  0.17830625285E+02 -0.37105020626E+02  0.45364543168E+02  0.61438957759E+02  0.47000000000E+01 0. -1.
          5    1    4    4  502    0  0.24247545056E+02 -0.66531153213E+02  0.10923969939E+03  0.13026795351E+03  0.47000000000E+01 0. -1.
         -5    1    4    4    0  502 -0.35386911976E+02  0.29585480742E+02  0.20380116985E+03  0.20900847122E+03  0.47000000000E+01 0. -1.
<mgrwt>
<rscale>  0 0.26164759E+03</rscale>
<asrwt>0</asrwt>
<pdfrwt beam="1">  1       21 0.10031909E+00 0.26164759E+03</pdfrwt>
<pdfrwt beam="2">  1       21 0.40379711E-02 0.26164759E+03</pdfrwt>
<totfact> 0.30825637E+05</totfact>
</mgrwt>
</event>
<event>
 8    1  0.9175398E-006  0.5626291E+03  0.7546771E-02  0.9986123E-01
         21   -1    0    0  504  503  0.00000000000E+00  0.00000000000E+00  0.14244577484E+04  0.14244577484E+04  0.00000000000E+00 0.  1.
         21   -1    0    0  503  504 -0.00000000000E+00 -0.00000000000E+00 -0.55556483900E+02  0.55556483900E+02  0.00000000000E+00 0.  1.
         25    2    1    2    0    0  0.36986712618E+02 -0.11270111936E+03  0.12693686275E+04  0.12810121732E+04  0.12500366538E+03 0.  0.
         25    2    1    2    0    0 -0.36986712618E+02  0.11270111936E+03  0.99532637076E+02  0.19900205911E+03  0.12500205787E+03 0.  0.
          5    1    3    3  501    0  0.34759844158E+02  0.18747086530E+02  0.35696124711E+03  0.35917004602E+03  0.47000000000E+01 0.  1.
         -5    1    3    3    0  501  0.22268684594E+01 -0.13144820589E+03  0.91240738034E+03  0.92184212720E+03  0.47000000000E+01 0.  1.
          5    1    4    4  502    0  0.31314133823E+02 -0.87962340964E+01  0.19034426042E+02  0.37978258071E+02  0.47000000000E+01 0.  1.
         -5    1    4    4    0  502 -0.68300846440E+02  0.12149735346E+03  0.80498211034E+02  0.16102380104E+03  0.47000000000E+01 0.  1.
<mgrwt>
<rscale>  0 0.56262906E+03</rscale>
<asrwt>0</asrwt>
<pdfrwt beam="1">  1       21 0.21914732E+00 0.56262906E+03</pdfrwt>
<pdfrwt beam="2">  1       21 0.85471524E-02 0.56262906E+03</pdfrwt>
<totfact> 0.90709836E+03</totfact>
</mgrwt>
</event>
<event>
 8    1  0.9175398E-006  0.3203848E+03  0.7546771E-02  0.1075472E+00
         21   -1    0    0  504  503  0.00000000000E+00  0.00000000000E+00  0.14686198851E+03  0.14686198851E+03  0.00000000000E+00 0. -1.
         21   -1    0    0  503  504 -0.00000000000E+00 -0.00000000000E+00 -0.17473283022E+03  0.17473283022E+03  0.00000000000E+00 0. -1.
         25    2    1    2    0    0 -0.67698093533E+02 -0.37782755307E+02 -0.77589980927E+02  0.16629896158E+03  0.12499828405E+03 0.  0.
         25    2    1    2    0    0  0.67698093533E+02  0.37782755307E+02  0.49719139215E+02  0.15529585715E+03  0.12503696244E+03 0.  0.
          5    1    3    3  501    0 -0.88951290547E+02 -0.59357249253E+02 -0.82651406893E+02  0.13523668212E+03  0.47000000000E+01 0. -1.
         -5    1    3    3    0  501  0.21253197015E+02  0.21574493946E+02  0.50614259660E+01  0.31062279459E+02  0.47000000000E+01 0. -1.
          5    1    4    4  502    0  0.77548416208E+02  0.37666873092E+02 -0.16738557660E+02  0.87947822585E+02  0.47000000000E+01 0.  1.
         -5    1    4    4    0  502 -0.98503226751E+01  0.11588221517E+00  0.66457696874E+02  0.67348034562E+02  0.47000000000E+01 0.  1.
<mgrwt>
<rscale>  0 0.32038484E+03</rscale>
<asrwt>0</asrwt>
<pdfrwt beam="1">  1       21 0.22594152E-01 0.32038484E+03</pdfrwt>
<pdfrwt beam="2">  1       21 0.26881974E-01 0.32038484E+03</pdfrwt>
<totfact> 0.23448879E+05</totfact>
</mgrwt>
</event>
<event>
 8    1  0.9175398E-006  0.2898071E+03  0.7546771E-02  0.1090450E+00
         21   -1    0    0  504  503  0.00000000000E+00  0.00000000000E+00  0.12855515669E+04  0.12855515669E+04  0.00000000000E+00 0.  1.
         21   -1    0    0  503  504 -0.00000000000E+00 -0.00000000000E+00 -0.16333100680E+02  0.16333100680E+02  0.00000000000E+00 0.  1.
         25    2    1    2    0    0  0.35551837001E+02  0.16399840809E+01  0.92247563205E+03  0.93158442461E+03  0.12498650239E+03 0.  0.
         25    2    1    2    0    0 -0.35551837001E+02 -0.16399840809E+01  0.34674283412E+03  0.37030024292E+03  0.12500021694E+03 0.  0.
          5    1    3    3  501    0 -0.28778506302E+02  0.11970469811E+02  0.71924090251E+02  0.78528079888E+02  0.47000000000E+01 0. -1.
         -5    1    3    3    0  501  0.64330343303E+02 -0.10330485730E+02  0.85055154180E+03  0.85305634472E+03  0.47000000000E+01 0. -1.
          5    1    4    4  502    0 -0.13045745199E+02 -0.41751056118E+01  0.34686679278E+03  0.34716895729E+03  0.47000000000E+01 0.  1.
         -5    1    4    4    0  502 -0.22506091802E+02  0.25351215309E+01 -0.12395865662E+00  0.23131285634E+02  0.47000000000E+01 0.  1.
<mgrwt>
<rscale>  0 0.28980713E+03</rscale>
<asrwt>0</asrwt>
<pdfrwt beam="1">  1       21 0.19777708E+00 0.28980713E+03</pdfrwt>
<pdfrwt beam="2">  1       21 0.25127857E-02 0.28980713E+03</pdfrwt>
<totfact> 0.11228862E+05</totfact>
</mgrwt>
</event>
<event>
 8    1  0.9175398E-006  0.3207427E+03  0.7546771E-02  0.1075308E+00
         21   -1    0    0  504  503  0.00000000000E+00  0.00000000000E+00  0.68520111385E+02  0.68520111385E+02  0.00000000000E+00 0.  1.
         21   -1    0    0  503  504 -0.00000000000E+00 -0.00000000000E+00 -0.37534922736E+03  0.37534922736E+03  0.00000000000E+00 0.  1.
         25    2    1    2    0    0 -0.19628640550E+02  0.73425061454E+02 -0.24432017352E+03  0.28476937739E+03  0.12499891173E+03 0.  0.
         25    2    1    2    0    0  0.19628640550E+02 -0.73425061454E+02 -0.62508942463E+02  0.15909996136E+03  0.12501562557E+03 0.  0.
          5    1    3    3  501    0 -0.57693127421E+02  0.40965400999E+02 -0.57458019457E+02  0.91269792541E+02  0.47000000000E+01 0. -1.
         -5    1    3    3    0  501  0.38064486871E+02  0.32459660456E+02 -0.18686215406E+03  0.19349958485E+03  0.47000000000E+01 0. -1.
          5    1    4    4  502    0  0.42479851924E+02 -0.46206404230E+02  0.22499180559E+02  0.66842147910E+02  0.47000000000E+01 0.  1.
         -5    1    4    4    0  502 -0.22851211374E+02 -0.27218657224E+02 -0.85008123022E+02  0.92257813448E+02  0.47000000000E+01 0.  1.
<mgrwt>
<rscale>  0 0.32074271E+03</rscale>
<asrwt>0</asrwt>
<pdfrwt beam="1">  1       21 0.10541556E-01 0.32074271E+03</pdfrwt>
<pdfrwt beam="2">  1       21 0.57746034E-01 0.32074271E+03</pdfrwt>
<totfact> 0.20092612E+05</totfact>
</mgrwt>
</event>
<event>
 8    1  0.9175398E-006  0.4297795E+03  0.7546771E-02  0.1033930E+00
         21   -1    0    0  504  503  0.00000000000E+00  0.00000000000E+00  0.86745388283E+03  0.86745388283E+03  0.00000000000E+00 0.  1.
         21   -1    0    0  503  504 -0.00000000000E+00 -0.00000000000E+00 -0.53233494041E+02  0.53233494041E+02  0.00000000000E+00 0.  1.
         25    2    1    2    0    0 -0.24825351418E+01 -0.14490699904E+03  0.61642946749E+03  0.64545955447E+03  0.12501418605E+03 0.  0.
         25    2    1    2    0    0  0.24825351418E+01  0.14490699904E+03  0.19779092130E+03  0.27522782240E+03  0.12499961730E+03 0.  0.
          5    1    3    3  501    0  0.48474533027E+02 -0.10083012720E+03  0.48421327617E+03  0.49699203387E+03  0.47000000000E+01 0.  1.
         -5    1    3    3    0  501 -0.50957068169E+02 -0.44076871840E+02  0.13221619132E+03  0.14846752061E+03  0.47000000000E+01 0.  1.
          5    1    4    4  502    0  0.52219684865E+02  0.12794626429E+03  0.15050330224E+03  0.20437826699E+03  0.47000000000E+01 0.  1.
         -5    1    4    4    0  502 -0.49737149723E+02  0.16960734750E+02  0.47287619058E+02  0.70849555412E+02  0.47000000000E+01 0.  1.
<mgrwt>
<rscale>  0 0.42977948E+03</rscale>
<asrwt>0</asrwt>
<pdfrwt beam="1">  1       21 0.13345443E+00 0.42977948E+03</pdfrwt>
<pdfrwt beam="2">  1       21 0.81897690E-02 0.42977948E+03</pdfrwt>
<totfact> 0.42582040E+04</totfact>
</mgrwt>
</event>
<event>
 8    1  0.9175398E-006  0.2563124E+03  0.7546771E-02  0.1109379E+00
         21   -1    0    0  504  503  0.00000000000E+00  0.00000000000E+00  0.60368945472E+03  0.60368945472E+03  0.00000000000E+00 0. -1.
         21   -1    0    0  503  504 -0.00000000000E+00 -0.00000000000E+00 -0.27206067326E+02  0.27206067326E+02  0.00000000000E+00 0. -1.
         25    2    1    2    0    0  0.14406825045E+02 -0.17836980969E+02  0.24757743609E+03  0.27829056088E+03  0.12500133964E+03 0.  0.
         25    2    1    2    0    0 -0.14406825045E+02  0.17836980969E+02  0.32890595130E+03  0.35260496117E+03  0.12500167736E+03 0.  0.
          5    1    3    3  501    0  0.28639537045E+02  0.45963195807E+02  0.67555811046E+02  0.86710530254E+02  0.47000000000E+01 0. -1.
         -5    1    3    3    0  501 -0.14232712000E+02 -0.63800176776E+02  0.18002162505E+03  0.19158003062E+03  0.47000000000E+01 0. -1.
          5    1    4    4  502    0 -0.30203776276E+02 -0.31486508067E+02  0.27199444653E+03  0.27551177331E+03  0.47000000000E+01 0. -1.
         -5    1    4    4    0  502  0.15796951232E+02  0.49323489036E+02  0.56911504775E+02  0.77093187861E+02  0.47000000000E+01 0. -1.
<mgrwt>
<rscale>  0 0.25631243E+03</rscale>
<asrwt>0</asrwt>
<pdfrwt beam="1">  1       21 0.92875290E-01 0.25631243E+03</pdfrwt>
<pdfrwt beam="2">  1       21 0.41855493E-02 0.25631243E+03</pdfrwt>
<totfact> 0.34873577E+05</totfact>
</mgrwt>
</event>
