<event>
 8    1  0.9705063E-006  0.2896941E+03  0.7546771E-02  0.1090509E+00
         21   -1    0    0  504  503  0.00000000000E+00  0.00000000000E+00  0.52504784233E+03  0.52504784233E+03  0.00000000000E+00 0. -1.
         21   -1    0    0  503  504 -0.00000000000E+00 -0.00000000000E+00 -0.39959536328E+02  0.39959536328E+02  0.00000000000E+00 0. -1.
         25    2    1    2    0    0 -0.76491145805E+01  0.40389696121E+02  0.12445456462E+03  0.18111817905E+03  0.12500007849E+03 0.  0.
         25    2    1    2    0    0  0.76491145805E+01 -0.40389696121E+02  0.36063374138E+03  0.38388919960E+03  0.12499754254E+03 0.  0.
          5    1    3    3  501    0 -0.61343674902E+02  0.31290592386E+02  0.99331835315E+02  0.12095888198E+03  0.47000000000E+01 0.  1.
         -5    1    3    3    0  501  0.53694560321E+02  0.90991037347E+01  0.25122729301E+02  0.60159297074E+02  0.47000000000E+01 0.  1.
          5    1    4    4  502    0 -0.15213087442E+02 -0.42605370601E+02  0.34944902004E+02  0.57357578485E+02  0.47000000000E+01 0. -1.
         -5    1    4    4    0  502  0.22862202023E+02  0.22156744803E+01  0.32568883938E+03  0.32653162112E+03  0.47000000000E+01 0. -1.
<mgrwt>
<rscale>  0 0.28969410E+03</rscale>
<asrwt>0</asrwt>
<pdfrwt beam="1">  1       21 0.80776586E-01 0.28969410E+03</pdfrwt>
<pdfrwt beam="2">  1       21 0.61476213E-02 0.28969410E+03</pdfrwt>
<totfact> 0.24788562E+05</totfact>
</mgrwt>
</event>
<event>
 8    1  0.9705063E-006  0.3258810E+03  0.7546771E-02  0.1072974E+00
         21   -1    0    0  504  503  0.00000000000E+00  0.00000000000E+00  0.84353978596E+03  0.84353978596E+03  0.00000000000E+00 0.  1.
         21   -1    0    0  503  504 -0.00000000000E+00 -0.00000000000E+00 -0.31474042531E+02  0.31474042531E+02  0.00000000000E+00 0.  1.
         25    2    1    2    0    0  0.52047096755E+02 -0.75960788404E+02  0.27321924548E+03  0.31424674484E+03  0.12499327538E+03 0.  0.
         25    2    1    2    0    0 -0.52047096755E+02  0.75960788404E+02  0.53884649795E+03  0.56076708365E+03  0.12500092837E+03 0.  0.
          5    1    3    3  501    0  0.83013593759E+02 -0.42368243847E+02  0.24017085360E+03  0.25766345056E+03  0.47000000000E+01 0. -1.
         -5    1    3    3    0  501 -0.30966497004E+02 -0.33592544557E+02  0.33048391882E+02  0.56583294288E+02  0.47000000000E+01 0. -1.
          5    1    4    4  502    0 -0.26450707486E+02  0.87021223458E+02  0.51719562210E+03  0.52515305843E+03  0.47000000000E+01 0. -1.
         -5    1    4    4    0  502 -0.25596389269E+02 -0.11060435054E+02  0.21650875854E+02  0.35614025221E+02  0.47000000000E+01 0. -1.
<mgrwt>
<rscale>  0 0.32588100E+03</rscale>
<asrwt>0</asrwt>
<pdfrwt beam="1">  1       21 0.12977533E+00 0.32588100E+03</pdfrwt>
<pdfrwt beam="2">  1       21 0.48421610E-02 0.32588100E+03</pdfrwt>
<totfact> 0.11758818E+05</totfact>
</mgrwt>
</event>
<event>
 8    1  0.9705063E-006  0.2692945E+03  0.7546771E-02  0.1101684E+00
         21   -1    0    0  504  503  0.00000000000E+00  0.00000000000E+00  0.40855336560E+03  0.40855336560E+03  0.00000000000E+00 0.  1.
         21   -1    0    0  503  504 -0.00000000000E+00 -0.00000000000E+00 -0.44375791842E+02  0.44375791842E+02  0.00000000000E+00 0.  1.
         25    2    1    2    0    0  0.12186917006E+02  0.46280483568E+02  0.20665948571E+03  0.24622453080E+03  0.12501188916E+03 0.  0.
         25    2    1    2    0    0 -0.12186917006E+02 -0.46280483568E+02  0.15751808805E+03  0.20670462664E+03  0.12499780200E+03 0.  0.
          5    1    3    3  501    0 -0.30024010870E+02 -0.31718742153E+02  0.54003329503E+02  0.69612997564E+02  0.47000000000E+01 0. -1.
         -5    1    3    3    0  501  0.42210927876E+02  0.77999225721E+02  0.15265615621E+03  0.17661153324E+03  0.47000000000E+01 0. -1.
          5    1    4    4  502    0  0.16414848412E+02 -0.85016631273E+01  0.15793805598E+03  0.15908565319E+03  0.47000000000E+01 0.  1.
         -5    1    4    4    0  502 -0.28601765418E+02 -0.37778820441E+02 -0.41996793416E+00  0.47618973445E+02  0.47000000000E+01 0.  1.
<mgrwt>
<rscale>  0 0.26929448E+03</rscale>
<asrwt>0</asrwt>
<pdfrwt beam="1">  1       21 0.62854361E-01 0.26929448E+03</pdfrwt>
<pdfrwt beam="2">  1       21 0.68270452E-02 0.26929448E+03</pdfrwt>
<totfact> 0.36363909E+05</totfact>
</mgrwt>
</event>
<event>
 8    1  0.9705063E-006  0.3049242E+03  0.7546771E-02  0.1082805E+00
         21   -1    0    0  504  503  0.00000000000E+00  0.00000000000E+00  0.28285529543E+03  0.28285529543E+03  0.00000000000E+00 0.  1.
         21   -1    0    0  503  504 -0.00000000000E+00 -0.00000000000E+00 -0.82178716117E+02  0.82178716117E+02  0.00000000000E+00 0.  1.
         25    2    1    2    0    0 -0.58349889733E+01  0.81200179591E+02  0.62626386733E+02  0.16178618488E+03  0.12500075617E+03 0.  0.
         25    2    1    2    0    0  0.58349889733E+01 -0.81200179591E+02  0.13805019258E+03  0.20324782666E+03  0.12499722841E+03 0.  0.
          5    1    3    3  501    0 -0.18900141873E+02 -0.26783088136E+02  0.37544182739E+02  0.50062009852E+02  0.47000000000E+01 0.  1.
         -5    1    3    3    0  501  0.13065152900E+02  0.10798326773E+03  0.25082203995E+02  0.11172417503E+03  0.47000000000E+01 0.  1.
          5    1    4    4  502    0  0.43523681275E+02  0.11746927762E+02  0.23966841175E+02  0.51271830662E+02  0.47000000000E+01 0.  1.
         -5    1    4    4    0  502 -0.37688692301E+02 -0.92947107354E+02  0.11408335140E+03  0.15197599600E+03  0.47000000000E+01 0.  1.
<mgrwt>
<rscale>  0 0.30492415E+03</rscale>
<asrwt>0</asrwt>
<pdfrwt beam="1">  1       21 0.43516199E-01 0.30492415E+03</pdfrwt>
<pdfrwt beam="2">  1       21 0.12642880E-01 0.30492415E+03</pdfrwt>
<totfact> 0.26394664E+05</totfact>
</mgrwt>
</event>
<event>
 8    1  0.9705063E-006  0.2759319E+03  0.7546771E-02  0.1097932E+00
         21   -1    0    0  504  503  0.00000000000E+00  0.00000000000E+00  0.16666163765E+03  0.16666163765E+03  0.00000000000E+00 0.  1.
         21   -1    0    0  503  504 -0.00000000000E+00 -0.00000000000E+00 -0.11421108684E+03  0.11421108684E+03  0.00000000000E+00 0.  1.
         25    2    1    2    0    0 -0.34792276018E+02 -0.35342430474E+02 -0.51374126071E+01  0.13457681351E+03  0.12499974346E+03 0.  0.
         25    2    1    2    0    0  0.34792276018E+02  0.35342430474E+02  0.57587963414E+02  0.14629591097E+03  0.12500612055E+03 0.  0.
          5    1    3    3  501    0 -0.40577443267E+01 -0.67335731475E+02  0.33585704614E+02  0.75502685890E+02  0.47000000000E+01 0. -1.
         -5    1    3    3    0  501 -0.30734531691E+02  0.31993301000E+02 -0.38723117221E+02  0.59074127624E+02  0.47000000000E+01 0. -1.
          5    1    4    4  502    0  0.44246651653E+02 -0.12434048357E+02  0.80074709666E+02  0.92446854296E+02  0.47000000000E+01 0. -1.
         -5    1    4    4    0  502 -0.94543756348E+01  0.47776478831E+02 -0.22486746253E+02  0.53849056679E+02  0.47000000000E+01 0. -1.
<mgrwt>
<rscale>  0 0.27593192E+03</rscale>
<asrwt>0</asrwt>
<pdfrwt beam="1">  1       21 0.25640252E-01 0.27593192E+03</pdfrwt>
<pdfrwt beam="2">  1       21 0.17570936E-01 0.27593192E+03</pdfrwt>
<totfact> 0.41645262E+05</totfact>
</mgrwt>
</event>
<event>
 8    1  0.9705063E-006  0.3381407E+03  0.7546771E-02  0.1067591E+00
         21   -1    0    0  504  503  0.00000000000E+00  0.00000000000E+00  0.19962957580E+03  0.19962957580E+03  0.00000000000E+00 0. -1.
         21   -1    0    0  503  504 -0.00000000000E+00 -0.00000000000E+00 -0.14318914258E+03  0.14318914258E+03  0.00000000000E+00 0. -1.
         25    2    1    2    0    0 -0.66764029042E+01  0.80182170663E+02 -0.53456616370E+02  0.15795262338E+03  0.12497066276E+03 0.  0.
         25    2    1    2    0    0  0.66764029042E+01 -0.80182170663E+02  0.10989704959E+03  0.18486609500E+03  0.12499742687E+03 0.  0.
          5    1    3    3  501    0 -0.33479633571E+02  0.85028740735E+02  0.67015389260E+01  0.91748423632E+02  0.47000000000E+01 0.  1.
         -5    1    3    3    0  501  0.26803230667E+02 -0.48465700717E+01 -0.60158155296E+02  0.66204199748E+02  0.47000000000E+01 0.  1.
          5    1    4    4  502    0  0.36250779969E+02  0.20962257938E+02  0.41531534018E+02  0.59164969569E+02  0.47000000000E+01 0. -1.
         -5    1    4    4    0  502 -0.29574377064E+02 -0.10114442860E+03  0.68365515571E+02  0.12570112543E+03  0.47000000000E+01 0. -1.
<mgrwt>
<rscale>  0 0.33814073E+03</rscale>
<asrwt>0</asrwt>
<pdfrwt beam="1">  1       21 0.30712242E-01 0.33814073E+03</pdfrwt>
<pdfrwt beam="2">  1       21 0.22029099E-01 0.33814073E+03</pdfrwt>
<totfact> 0.18879545E+05</totfact>
</mgrwt>
</event>
<event>
 8    1  0.9705063E-006  0.2759028E+03  0.7546771E-02  0.1097948E+00
         21   -1    0    0  504  503  0.00000000000E+00  0.00000000000E+00  0.34146487580E+03  0.34146487580E+03  0.00000000000E+00 0. -1.
         21   -1    0    0  503  504 -0.00000000000E+00 -0.00000000000E+00 -0.55732194141E+02  0.55732194141E+02  0.00000000000E+00 0. -1.
         25    2    1    2    0    0  0.55201126783E+02 -0.54927796999E+01  0.16893723105E+03  0.21735171320E+03  0.12499857667E+03 0.  0.
         25    2    1    2    0    0 -0.55201126783E+02  0.54927796999E+01  0.11679545061E+03  0.17984535674E+03  0.12500336008E+03 0.  0.
          5    1    3    3  501    0  0.11922015130E+02 -0.38369923149E+02  0.66661148095E+00  0.40458865754E+02  0.47000000000E+01 0.  1.
         -5    1    3    3    0  501  0.43279111654E+02  0.32877143449E+02  0.16827061957E+03  0.17689284745E+03  0.47000000000E+01 0.  1.
          5    1    4    4  502    0 -0.90662822855E+02 -0.39516832297E+00  0.49493166092E+02  0.10340003431E+03  0.47000000000E+01 0. -1.
         -5    1    4    4    0  502  0.35461696072E+02  0.58879480228E+01  0.67302284517E+02  0.76445322430E+02  0.47000000000E+01 0. -1.
<mgrwt>
<rscale>  0 0.27590279E+03</rscale>
<asrwt>0</asrwt>
<pdfrwt beam="1">  1       21 0.52533057E-01 0.27590279E+03</pdfrwt>
<pdfrwt beam="2">  1       21 0.85741839E-02 0.27590279E+03</pdfrwt>
<totfact> 0.35847635E+05</totfact>
</mgrwt>
</event>
<event>
 8    1  0.9705063E-006  0.2603710E+03  0.7546771E-02  0.1106921E+00
         21   -1    0    0  504  503  0.00000000000E+00  0.00000000000E+00  0.30747677983E+03  0.30747677983E+03  0.00000000000E+00 0.  1.
         21   -1    0    0  503  504 -0.00000000000E+00 -0.00000000000E+00 -0.55120468177E+02  0.55120468177E+02  0.00000000000E+00 0.  1.
         25    2    1    2    0    0 -0.32499636623E+02  0.16240852189E+02  0.12326863164E+03  0.17927171734E+03  0.12499280552E+03 0.  0.
         25    2    1    2    0    0  0.32499636623E+02 -0.16240852189E+02  0.12908768001E+03  0.18332553066E+03  0.12499851760E+03 0.  0.
          5    1    3    3  501    0 -0.33317762130E+01  0.63867308043E+02  0.30789690415E+02  0.71135285234E+02  0.47000000000E+01 0. -1.
         -5    1    3    3    0  501 -0.29167860410E+02 -0.47626455855E+02  0.92478941228E+02  0.10813643211E+03  0.47000000000E+01 0. -1.
          5    1    4    4  502    0 -0.36057960395E+02 -0.89933427401E+01  0.63206368396E+00  0.37463932335E+02  0.47000000000E+01 0.  1.
         -5    1    4    4    0  502  0.68557597018E+02 -0.72475094486E+01  0.12845561632E+03  0.14586159833E+03  0.47000000000E+01 0.  1.
<mgrwt>
<rscale>  0 0.26037100E+03</rscale>
<asrwt>0</asrwt>
<pdfrwt beam="1">  1       21 0.47304119E-01 0.26037100E+03</pdfrwt>
<pdfrwt beam="2">  1       21 0.84800722E-02 0.26037100E+03</pdfrwt>
<totfact> 0.45695923E+05</totfact>
</mgrwt>
</event>
<event>
 8    1  0.9705063E-006  0.4032575E+03  0.7546771E-02  0.1042658E+00
         21   -1    0    0  504  503  0.00000000000E+00  0.00000000000E+00  0.15165222623E+04  0.15165222623E+04  0.00000000000E+00 0. -1.
         21   -1    0    0  503  504 -0.00000000000E+00 -0.00000000000E+00 -0.26807484391E+02  0.26807484391E+02  0.00000000000E+00 0. -1.
         25    2    1    2    0    0 -0.38437373466E+02 -0.11167549929E+03  0.11477369566E+04  0.11605473604E+04  0.12498482093E+03 0.  0.
         25    2    1    2    0    0  0.38437373466E+02  0.11167549929E+03  0.34197782137E+03  0.38278238631E+03  0.12499870455E+03 0.  0.
          5    1    3    3  501    0 -0.26438560460E+02  0.53340310729E+01  0.54491477788E+02  0.60982460742E+02  0.47000000000E+01 0. -1.
         -5    1    3    3    0  501 -0.11998813006E+02 -0.11700953037E+03  0.10932454788E+04  0.10995648997E+04  0.47000000000E+01 0. -1.
          5    1    4    4  502    0  0.49813713797E+02  0.41445344042E+01  0.18788074145E+03  0.19447325331E+03  0.47000000000E+01 0. -1.
         -5    1    4    4    0  502 -0.11376340331E+02  0.10753096489E+03  0.15409707993E+03  0.18830913300E+03  0.47000000000E+01 0. -1.
<mgrwt>
<rscale>  0 0.40325747E+03</rscale>
<asrwt>0</asrwt>
<pdfrwt beam="1">  1       21 0.23331105E+00 0.40325747E+03</pdfrwt>
<pdfrwt beam="2">  1       21 0.41242296E-02 0.40325747E+03</pdfrwt>
<totfact> 0.27723227E+04</totfact>
</mgrwt>
</event>
<event>
 8    1  0.9705063E-006  0.3637927E+03  0.7546771E-02  0.1057092E+00
         21   -1    0    0  504  503  0.00000000000E+00  0.00000000000E+00  0.59453470722E+02  0.59453470722E+02  0.00000000000E+00 0. -1.
         21   -1    0    0  503  504 -0.00000000000E+00 -0.00000000000E+00 -0.55650719939E+03  0.55650719939E+03  0.00000000000E+00 0. -1.
         25    2    1    2    0    0 -0.54083719384E+02  0.38045140681E+02 -0.54828545277E+02  0.15167782515E+03  0.12501004692E+03 0.  0.
         25    2    1    2    0    0  0.54083719384E+02 -0.38045140681E+02 -0.44222518339E+03  0.46428284497E+03  0.12499186323E+03 0.  0.
          5    1    3    3  501    0 -0.14181100094E+02  0.35992590855E+02  0.35550313050E+02  0.52749264964E+02  0.47000000000E+01 0.  1.
         -5    1    3    3    0  501 -0.39902619289E+02  0.20525498258E+01 -0.90378858327E+02  0.98928560181E+02  0.47000000000E+01 0.  1.
          5    1    4    4  502    0 -0.38743265383E+01  0.38431944068E+02 -0.72533335060E+02  0.82311599583E+02  0.47000000000E+01 0.  1.
         -5    1    4    4    0  502  0.57958045922E+02 -0.76477084748E+02 -0.36969184833E+03  0.38197124539E+03  0.47000000000E+01 0.  1.
<mgrwt>
<rscale>  0 0.36379271E+03</rscale>
<asrwt>0</asrwt>
<pdfrwt beam="1">  1       21 0.91466885E-02 0.36379271E+03</pdfrwt>
<pdfrwt beam="2">  1       21 0.85616485E-01 0.36379271E+03</pdfrwt>
<totfact> 0.10608431E+05</totfact>
</mgrwt>
</event>
<event>
 8    1  0.9705063E-006  0.3219121E+03  0.7546771E-02  0.1074773E+00
         21   -1    0    0  504  503  0.00000000000E+00  0.00000000000E+00  0.25896380562E+02  0.25896380562E+02  0.00000000000E+00 0.  1.
         21   -1    0    0  503  504 -0.00000000000E+00 -0.00000000000E+00 -0.10004039983E+04  0.10004039983E+04  0.00000000000E+00 0.  1.
         25    2    1    2    0    0 -0.24692927574E+02 -0.96611267824E+02 -0.42894305547E+03  0.45777762786E+03  0.12499893594E+03 0.  0.
         25    2    1    2    0    0  0.24692927574E+02  0.96611267824E+02 -0.54556456232E+03  0.56852275106E+03  0.12503579115E+03 0.  0.
          5    1    3    3  501    0 -0.69275228102E+02 -0.42129871450E+02 -0.29994141314E+03  0.31074253750E+03  0.47000000000E+01 0.  1.
         -5    1    3    3    0  501  0.44582300529E+02 -0.54481396375E+02 -0.12900164233E+03  0.14703509035E+03  0.47000000000E+01 0.  1.
          5    1    4    4  502    0 -0.42645552050E+02  0.10907022874E+02 -0.24044392653E+03  0.24448512851E+03  0.47000000000E+01 0. -1.
         -5    1    4    4    0  502  0.67338479624E+02  0.85704244950E+02 -0.30512063578E+03  0.32403762254E+03  0.47000000000E+01 0. -1.
<mgrwt>
<rscale>  0 0.32191205E+03</rscale>
<asrwt>0</asrwt>
<pdfrwt beam="1">  1       21 0.39840586E-02 0.32191205E+03</pdfrwt>
<pdfrwt beam="2">  1       21 0.15390831E+00 0.32191205E+03</pdfrwt>
<totfact> 0.10469345E+05</totfact>
</mgrwt>
</event>
<event>
 8    1  0.9705063E-006  0.4625489E+03  0.7546771E-02  0.1024045E+00
         21   -1    0    0  504  503  0.00000000000E+00  0.00000000000E+00  0.53565749668E+03  0.53565749668E+03  0.00000000000E+00 0. -1.
         21   -1    0    0  503  504 -0.00000000000E+00 -0.00000000000E+00 -0.99854605868E+02  0.99854605868E+02  0.00000000000E+00 0. -1.
         25    2    1    2    0    0 -0.15769805720E+03 -0.73814293625E+02  0.33724112280E+03  0.39959224182E+03  0.12500063051E+03 0.  0.
         25    2    1    2    0    0  0.15769805720E+03  0.73814293625E+02  0.98561768005E+02  0.23591986072E+03  0.12500612537E+03 0.  0.
          5    1    3    3  501    0  0.50281673491E+01 -0.43344934739E+02  0.10973724756E+03  0.11818806766E+03  0.47000000000E+01 0. -1.
         -5    1    3    3    0  501 -0.16272622455E+03 -0.30469358886E+02  0.22750387524E+03  0.28140417416E+03  0.47000000000E+01 0. -1.
          5    1    4    4  502    0 -0.65164914977E+01  0.48852478532E+01  0.50536507758E+02  0.51403880442E+02  0.47000000000E+01 0.  1.
         -5    1    4    4    0  502  0.16421454870E+03  0.68929045772E+02  0.48025260247E+02  0.18451598028E+03  0.47000000000E+01 0.  1.
<mgrwt>
<rscale>  0 0.46254889E+03</rscale>
<asrwt>0</asrwt>
<pdfrwt beam="1">  1       21 0.82408844E-01 0.46254889E+03</pdfrwt>
<pdfrwt beam="2">  1       21 0.15362247E-01 0.46254889E+03</pdfrwt>
<totfact> 0.44152840E+04</totfact>
</mgrwt>
</event>
<event>
 8    1  0.9705063E-006  0.3469432E+03  0.7546771E-02  0.1063877E+00
         21   -1    0    0  504  503  0.00000000000E+00  0.00000000000E+00  0.37164580370E+03  0.37164580370E+03  0.00000000000E+00 0.  1.
         21   -1    0    0  503  504 -0.00000000000E+00 -0.00000000000E+00 -0.80970628260E+02  0.80970628260E+02  0.00000000000E+00 0.  1.
         25    2    1    2    0    0  0.10448662196E+03  0.48067044367E+02  0.19126713825E+03  0.25580485793E+03  0.12500044896E+03 0.  0.
         25    2    1    2    0    0 -0.10448662196E+03 -0.48067044367E+02  0.99408037187E+02  0.19681157403E+03  0.12499977157E+03 0.  0.
          5    1    3    3  501    0  0.77315385609E+02 -0.17482864451E+02  0.15897387912E+03  0.17770228936E+03  0.47000000000E+01 0.  1.
         -5    1    3    3    0  501  0.27171236354E+02  0.65549908818E+02  0.32293259131E+02  0.78102568565E+02  0.47000000000E+01 0.  1.
          5    1    4    4  502    0 -0.63401770127E+02 -0.79292156874E+02  0.22528068466E+02  0.10409915689E+03  0.47000000000E+01 0. -1.
         -5    1    4    4    0  502 -0.41084851836E+02  0.31225112507E+02  0.76879968721E+02  0.92712417141E+02  0.47000000000E+01 0. -1.
<mgrwt>
<rscale>  0 0.34694319E+03</rscale>
<asrwt>0</asrwt>
<pdfrwt beam="1">  1       21 0.57176276E-01 0.34694319E+03</pdfrwt>
<pdfrwt beam="2">  1       21 0.12457020E-01 0.34694319E+03</pdfrwt>
<totfact> 0.15101056E+05</totfact>
</mgrwt>
</event>
<event>
 8    1  0.9705063E-006  0.8052785E+03  0.7546771E-02  0.9552408E-01
         21   -1    0    0  504  503  0.00000000000E+00  0.00000000000E+00  0.47315593943E+03  0.47315593943E+03  0.00000000000E+00 0. -1.
         21   -1    0    0  503  504 -0.00000000000E+00 -0.00000000000E+00 -0.34263199409E+03  0.34263199409E+03  0.00000000000E+00 0. -1.
         25    2    1    2    0    0 -0.18561952851E+03  0.31004602883E+03  0.19304333200E+03  0.42833785110E+03  0.12499774919E+03 0.  0.
         25    2    1    2    0    0  0.18561952851E+03 -0.31004602883E+03 -0.62519386669E+02  0.38745008242E+03  0.12500297317E+03 0.  0.
          5    1    3    3  501    0 -0.93335571732E+02  0.11499651188E+03  0.14479647765E+03  0.20718068596E+03  0.47000000000E+01 0. -1.
         -5    1    3    3    0  501 -0.92283956776E+02  0.19504951695E+03  0.48246854355E+02  0.22115716515E+03  0.47000000000E+01 0. -1.
          5    1    4    4  502    0  0.91275280671E+02 -0.11494396115E+03 -0.84740656610E+02  0.16954751531E+03  0.47000000000E+01 0.  1.
         -5    1    4    4    0  502  0.94344247837E+02 -0.19510206768E+03  0.22221269941E+02  0.21790256711E+03  0.47000000000E+01 0.  1.
<mgrwt>
<rscale>  0 0.80527849E+03</rscale>
<asrwt>0</asrwt>
<pdfrwt beam="1">  1       21 0.72793221E-01 0.80527849E+03</pdfrwt>
<pdfrwt beam="2">  1       21 0.52712614E-01 0.80527849E+03</pdfrwt>
<totfact> 0.46903277E+03</totfact>
</mgrwt>
</event>
<event>
 8    1  0.9705063E-006  0.2687941E+03  0.7546771E-02  0.1101972E+00
         21   -1    0    0  504  503  0.00000000000E+00  0.00000000000E+00  0.68596650337E+03  0.68596650337E+03  0.00000000000E+00 0. -1.
         21   -1    0    0  503  504 -0.00000000000E+00 -0.00000000000E+00 -0.26331559381E+02  0.26331559381E+02  0.00000000000E+00 0. -1.
         25    2    1    2    0    0 -0.11869077038E+02  0.44404937366E+02  0.28275955943E+03  0.31258212644E+03  0.12506775711E+03 0.  0.
         25    2    1    2    0    0  0.11869077038E+02 -0.44404937366E+02  0.37687538456E+03  0.39971593631E+03  0.12500040320E+03 0.  0.
          5    1    3    3  501    0 -0.47260567818E+02  0.26713065686E+02  0.42672540354E+02  0.69211161305E+02  0.47000000000E+01 0.  1.
         -5    1    3    3    0  501  0.35391490781E+02  0.17691871679E+02  0.24008701907E+03  0.24337096513E+03  0.47000000000E+01 0.  1.
          5    1    4    4  502    0 -0.51689805809E+01  0.53415660688E+00  0.33704844648E+03  0.33712126744E+03  0.47000000000E+01 0.  1.
         -5    1    4    4    0  502  0.17038057619E+02 -0.44939093973E+02  0.39826938080E+02  0.62594668873E+02  0.47000000000E+01 0.  1.
<mgrwt>
<rscale>  0 0.26879410E+03</rscale>
<asrwt>0</asrwt>
<pdfrwt beam="1">  1       21 0.10553329E+00 0.26879410E+03</pdfrwt>
<pdfrwt beam="2">  1       21 0.40510097E-02 0.26879410E+03</pdfrwt>
<totfact> 0.27078404E+05</totfact>
</mgrwt>
</event>
<event>
 8    1  0.9705063E-006  0.3852068E+03  0.7546771E-02  0.1049026E+00
         21   -1    0    0  504  503  0.00000000000E+00  0.00000000000E+00  0.35764856044E+03  0.35764856044E+03  0.00000000000E+00 0.  1.
         21   -1    0    0  503  504 -0.00000000000E+00 -0.00000000000E+00 -0.10372214275E+03  0.10372214275E+03  0.00000000000E+00 0.  1.
         25    2    1    2    0    0  0.29477067737E+02  0.12329833934E+03  0.21498602829E+03  0.27913068478E+03  0.12499427515E+03 0.  0.
         25    2    1    2    0    0 -0.29477067737E+02 -0.12329833934E+03  0.38940389396E+02  0.18224001841E+03  0.12499476941E+03 0.  0.
          5    1    3    3  501    0 -0.24452474610E+02  0.12104150436E+03  0.15645190830E+03  0.19936965392E+03  0.47000000000E+01 0.  1.
         -5    1    3    3    0  501  0.53929542347E+02  0.22568349810E+01  0.58534119989E+02  0.79761030866E+02  0.47000000000E+01 0.  1.
          5    1    4    4  502    0  0.43796294655E+02 -0.23342433177E+02 -0.62448528286E+01  0.50240151264E+02  0.47000000000E+01 0.  1.
         -5    1    4    4    0  502 -0.73273362393E+02 -0.99955906159E+02  0.45185242224E+02  0.13199986715E+03  0.47000000000E+01 0.  1.
<mgrwt>
<rscale>  0 0.38520683E+03</rscale>
<asrwt>0</asrwt>
<pdfrwt beam="1">  1       21 0.55022855E-01 0.38520683E+03</pdfrwt>
<pdfrwt beam="2">  1       21 0.15957253E-01 0.38520683E+03</pdfrwt>
<totfact> 0.10320193E+05</totfact>
</mgrwt>
</event>
<event>
 8    1  0.9705063E-006  0.2884145E+03  0.7546771E-02  0.1091180E+00
         21   -1    0    0  504  503  0.00000000000E+00  0.00000000000E+00  0.28096227464E+04  0.28096227464E+04  0.00000000000E+00 0. -1.
         21   -1    0    0  503  504 -0.00000000000E+00 -0.00000000000E+00 -0.74016094681E+01  0.74016094681E+01  0.00000000000E+00 0. -1.
         25    2    1    2    0    0 -0.21197857450E+02 -0.68013202411E+02  0.14964394177E+04  0.15033401350E+04  0.12500194311E+03 0.  0.
         25    2    1    2    0    0  0.21197857450E+02  0.68013202411E+02  0.13057817192E+04  0.13136842208E+04  0.12500075610E+03 0.  0.
          5    1    3    3  501    0  0.47599962300E+01 -0.42352732603E+02  0.13910376361E+04  0.13916983173E+04  0.47000000000E+01 0. -1.
         -5    1    3    3    0  501 -0.25957853680E+02 -0.25660469808E+02  0.10540178161E+03  0.11164181763E+03  0.47000000000E+01 0. -1.
          5    1    4    4  502    0 -0.21242026922E+02 -0.40587342515E+01  0.45251293790E+02  0.50373272885E+02  0.47000000000E+01 0. -1.
         -5    1    4    4    0  502  0.42439884372E+02  0.72071936662E+02  0.12605304254E+04  0.12633109480E+04  0.47000000000E+01 0. -1.
<mgrwt>
<rscale>  0 0.28841450E+03</rscale>
<asrwt>0</asrwt>
<pdfrwt beam="1">  1       21 0.43224880E+00 0.28841450E+03</pdfrwt>
<pdfrwt beam="2">  1       21 0.11387114E-02 0.28841450E+03</pdfrwt>
<totfact> 0.15027178E+04</totfact>
</mgrwt>
</event>
<event>
 8    1  0.9705063E-006  0.2931962E+03  0.7546771E-02  0.1088692E+00
         21   -1    0    0  504  503  0.00000000000E+00  0.00000000000E+00  0.12934116243E+03  0.12934116243E+03  0.00000000000E+00 0. -1.
         21   -1    0    0  503  504 -0.00000000000E+00 -0.00000000000E+00 -0.16615743409E+03  0.16615743409E+03  0.00000000000E+00 0. -1.
         25    2    1    2    0    0  0.56935857603E+02  0.38562365835E+02 -0.52409812739E+02  0.15198088915E+03  0.12499061668E+03 0.  0.
         25    2    1    2    0    0 -0.56935857603E+02 -0.38562365835E+02  0.15593541081E+02  0.14351770737E+03  0.12500170345E+03 0.  0.
          5    1    3    3  501    0 -0.18051551524E+02  0.60534746598E+02 -0.14401267970E+02  0.64959992127E+02  0.47000000000E+01 0.  1.
         -5    1    3    3    0  501  0.74987409127E+02 -0.21972380762E+02 -0.38008544769E+02  0.87020897027E+02  0.47000000000E+01 0.  1.
          5    1    4    4  502    0 -0.47300343051E+02 -0.29574023495E+02 -0.50842853966E+02  0.75624275983E+02  0.47000000000E+01 0. -1.
         -5    1    4    4    0  502 -0.96355145515E+01 -0.89883423400E+01  0.66436395047E+02  0.67893431387E+02  0.47000000000E+01 0. -1.
<mgrwt>
<rscale>  0 0.29319615E+03</rscale>
<asrwt>0</asrwt>
<pdfrwt beam="1">  1       21 0.19898640E-01 0.29319615E+03</pdfrwt>
<pdfrwt beam="2">  1       21 0.25562682E-01 0.29319615E+03</pdfrwt>
<totfact> 0.33078421E+05</totfact>
</mgrwt>
</event>
<event>
 8    1  0.9705063E-006  0.2586498E+03  0.7546771E-02  0.1107957E+00
         21   -1    0    0  504  503  0.00000000000E+00  0.00000000000E+00  0.34802285615E+03  0.34802285615E+03  0.00000000000E+00 0.  1.
         21   -1    0    0  503  504 -0.00000000000E+00 -0.00000000000E+00 -0.48056980513E+02  0.48056980513E+02  0.00000000000E+00 0.  1.
         25    2    1    2    0    0 -0.13520373111E+01 -0.30595206043E+02  0.16944106372E+03  0.21277667676E+03  0.12500298180E+03 0.  0.
         25    2    1    2    0    0  0.13520373111E+01  0.30595206043E+02  0.13052481192E+03  0.18330315991E+03  0.12500170906E+03 0.  0.
          5    1    3    3  501    0 -0.99373556396E+00 -0.34972086121E+02  0.18895799606E+03  0.19222707560E+03  0.47000000000E+01 0. -1.
         -5    1    3    3    0  501 -0.35830174715E+00  0.43768800784E+01 -0.19516932346E+02  0.20549601154E+02  0.47000000000E+01 0. -1.
          5    1    4    4  502    0  0.12857644810E+02  0.13616415990E+02 -0.22035796634E+02  0.29298330119E+02  0.47000000000E+01 0.  1.
         -5    1    4    4    0  502 -0.11505607499E+02  0.16978790053E+02  0.15256060856E+03  0.15400482979E+03  0.47000000000E+01 0.  1.
<mgrwt>
<rscale>  0 0.25864978E+03</rscale>
<asrwt>0</asrwt>
<pdfrwt beam="1">  1       21 0.53541976E-01 0.25864978E+03</pdfrwt>
<pdfrwt beam="2">  1       21 0.73933819E-02 0.25864978E+03</pdfrwt>
<totfact> 0.44792514E+05</totfact>
</mgrwt>
</event>
<event>
 8    1  0.9705063E-006  0.2688596E+03  0.7546771E-02  0.1101934E+00
         21   -1    0    0  504  503  0.00000000000E+00  0.00000000000E+00  0.60691147586E+02  0.60691147586E+02  0.00000000000E+00 0. -1.
         21   -1    0    0  503  504 -0.00000000000E+00 -0.00000000000E+00 -0.29775952149E+03  0.29775952149E+03  0.00000000000E+00 0. -1.
         25    2    1    2    0    0 -0.16270561273E+01 -0.46447447109E+02 -0.14109503343E+03  0.19414318471E+03  0.12499502012E+03 0.  0.
         25    2    1    2    0    0  0.16270561273E+01  0.46447447109E+02 -0.95973340471E+02  0.16430748437E+03  0.12500421866E+03 0.  0.
          5    1    3    3  501    0 -0.84881659738E+01  0.12981020429E+02 -0.13254202027E+03  0.13352914659E+03  0.47000000000E+01 0. -1.
         -5    1    3    3    0  501  0.68611098466E+01 -0.59428467538E+02 -0.85530131651E+01  0.60614038114E+02  0.47000000000E+01 0. -1.
          5    1    4    4  502    0  0.27664246631E+02  0.23062916808E+00  0.21483998228E+02  0.35341419204E+02  0.47000000000E+01 0.  1.
         -5    1    4    4    0  502 -0.26037190504E+02  0.46216817941E+02 -0.11745733870E+03  0.12896606517E+03  0.47000000000E+01 0.  1.
<mgrwt>
<rscale>  0 0.26885957E+03</rscale>
<asrwt>0</asrwt>
<pdfrwt beam="1">  1       21 0.93370997E-02 0.26885957E+03</pdfrwt>
<pdfrwt beam="2">  1       21 0.45809157E-01 0.26885957E+03</pdfrwt>
<totfact> 0.41150991E+05</totfact>
</mgrwt>
</event>
<event>
 8    1  0.9705063E-006  0.3824804E+03  0.7546771E-02  0.1050021E+00
         21   -1    0    0  504  503  0.00000000000E+00  0.00000000000E+00  0.22775012031E+02  0.22775012031E+02  0.00000000000E+00 0.  1.
         21   -1    0    0  503  504 -0.00000000000E+00 -0.00000000000E+00 -0.16058305557E+04  0.16058305557E+04  0.00000000000E+00 0.  1.
         25    2    1    2    0    0  0.12488610622E+03 -0.28351745941E+02 -0.50436689862E+03  0.53517344210E+03  0.12499713470E+03 0.  0.
         25    2    1    2    0    0 -0.12488610622E+03  0.28351745941E+02 -0.10786886450E+04  0.10934321256E+04  0.12499703747E+03 0.  0.
          5    1    3    3  501    0  0.12142999386E+03  0.11798002454E+02 -0.45590713486E+03  0.47197228932E+03  0.47000000000E+01 0. -1.
         -5    1    3    3    0  501  0.34561123553E+01 -0.40149748396E+02 -0.48459763757E+02  0.63201152776E+02  0.47000000000E+01 0. -1.
          5    1    4    4  502    0 -0.34321731703E+02 -0.52168079396E+01 -0.74990941194E+03  0.75072725571E+03  0.47000000000E+01 0. -1.
         -5    1    4    4    0  502 -0.90564374517E+02  0.33568553881E+02 -0.32877923311E+03  0.34270486992E+03  0.47000000000E+01 0. -1.
<mgrwt>
<rscale>  0 0.38248038E+03</rscale>
<asrwt>0</asrwt>
<pdfrwt beam="1">  1       21 0.35038479E-02 0.38248038E+03</pdfrwt>
<pdfrwt beam="2">  1       21 0.24705086E+00 0.38248038E+03</pdfrwt>
<totfact> 0.30330566E+04</totfact>
</mgrwt>
</event>
<event>
 8    1  0.9705063E-006  0.2694855E+03  0.7546771E-02  0.1101574E+00
         21   -1    0    0  504  503  0.00000000000E+00  0.00000000000E+00  0.32402487857E+03  0.32402487857E+03  0.00000000000E+00 0. -1.
         21   -1    0    0  503  504 -0.00000000000E+00 -0.00000000000E+00 -0.56031534252E+02  0.56031534252E+02  0.00000000000E+00 0. -1.
         25    2    1    2    0    0 -0.32343467806E+02 -0.60263921046E+01  0.18743229906E+03  0.22767336679E+03  0.12498751099E+03 0.  0.
         25    2    1    2    0    0  0.32343467806E+02  0.60263921046E+01  0.80561045259E+02  0.15238304603E+03  0.12509233947E+03 0.  0.
          5    1    3    3  501    0  0.28174665977E+02 -0.29228456644E+02  0.14356655136E+03  0.14927008792E+03  0.47000000000E+01 0. -1.
         -5    1    3    3    0  501 -0.60518133783E+02  0.23202064539E+02  0.43865747704E+02  0.78403278867E+02  0.47000000000E+01 0. -1.
          5    1    4    4  502    0  0.48671461831E+02  0.24700426154E+02 -0.12304092943E+02  0.56147154443E+02  0.47000000000E+01 0.  1.
         -5    1    4    4    0  502 -0.16327994025E+02 -0.18674034049E+02  0.92865138201E+02  0.96235891588E+02  0.47000000000E+01 0.  1.
<mgrwt>
<rscale>  0 0.26948552E+03</rscale>
<asrwt>0</asrwt>
<pdfrwt beam="1">  1       21 0.49849980E-01 0.26948552E+03</pdfrwt>
<pdfrwt beam="2">  1       21 0.86202363E-02 0.26948552E+03</pdfrwt>
<totfact> 0.39715008E+05</totfact>
</mgrwt>
</event>
<event>
 8    1  0.9705063E-006  0.2709563E+03  0.7546771E-02  0.1100734E+00
         21   -1    0    0  504  503  0.00000000000E+00  0.00000000000E+00  0.59903741811E+03  0.59903741811E+03  0.00000000000E+00 0. -1.
         21   -1    0    0  503  504 -0.00000000000E+00 -0.00000000000E+00 -0.30639697448E+02  0.30639697448E+02  0.00000000000E+00 0. -1.
         25    2    1    2    0    0  0.28568182842E+02  0.16478687342E+02  0.37819452645E+03  0.39968918276E+03  0.12503061534E+03 0.  0.
         25    2    1    2    0    0 -0.28568182842E+02 -0.16478687342E+02  0.19020319422E+03  0.22998793280E+03  0.12501802244E+03 0.  0.
          5    1    3    3  501    0 -0.32915564497E+01  0.35186528028E+02  0.22734343682E+02  0.42283170188E+02  0.47000000000E+01 0.  1.
         -5    1    3    3    0  501  0.31859739292E+02 -0.18707840686E+02  0.35546018276E+03  0.35740601257E+03  0.47000000000E+01 0.  1.
          5    1    4    4  502    0 -0.31621447394E+02  0.37908522319E+01 -0.59266723694E+01  0.32733804260E+02  0.47000000000E+01 0. -1.
         -5    1    4    4    0  502  0.30532645518E+01 -0.20269539574E+02  0.19612986659E+03  0.19725412854E+03  0.47000000000E+01 0. -1.
<mgrwt>
<rscale>  0 0.27095627E+03</rscale>
<asrwt>0</asrwt>
<pdfrwt beam="1">  1       21 0.92159594E-01 0.27095627E+03</pdfrwt>
<pdfrwt beam="2">  1       21 0.47138000E-02 0.27095627E+03</pdfrwt>
<totfact> 0.28925771E+05</totfact>
</mgrwt>
</event>
<event>
 8    1  0.9705063E-006  0.3261311E+03  0.7546771E-02  0.1072862E+00
         21   -1    0    0  504  503  0.00000000000E+00  0.00000000000E+00  0.31758867588E+03  0.31758867588E+03  0.00000000000E+00 0. -1.
         21   -1    0    0  503  504 -0.00000000000E+00 -0.00000000000E+00 -0.83725809007E+02  0.83725809007E+02  0.00000000000E+00 0. -1.
         25    2    1    2    0    0  0.10028819884E+03  0.27088281411E+02  0.10079401061E+03  0.19125779663E+03  0.12501445669E+03 0.  0.
         25    2    1    2    0    0 -0.10028819884E+03 -0.27088281411E+02  0.13306885626E+03  0.21005668826E+03  0.12499997583E+03 0.  0.
          5    1    3    3  501    0  0.12551411054E+03  0.22355718910E+02  0.10448877474E+03  0.16490471236E+03  0.47000000000E+01 0. -1.
         -5    1    3    3    0  501 -0.25225911698E+02  0.47325625016E+01 -0.36947641234E+01  0.26353084274E+02  0.47000000000E+01 0. -1.
          5    1    4    4  502    0  0.13890037928E+02 -0.15116130121E+02  0.81387992497E+02  0.84068578353E+02  0.47000000000E+01 0.  1.
         -5    1    4    4    0  502 -0.11417823677E+03 -0.11972151290E+02  0.51680863763E+02  0.12598810990E+03  0.47000000000E+01 0.  1.
<mgrwt>
<rscale>  0 0.32613107E+03</rscale>
<asrwt>0</asrwt>
<pdfrwt beam="1">  1       21 0.48859795E-01 0.32613107E+03</pdfrwt>
<pdfrwt beam="2">  1       21 0.12880894E-01 0.32613107E+03</pdfrwt>
<totfact> 0.19952914E+05</totfact>
</mgrwt>
</event>
<event>
 8    1  0.9705063E-006  0.3696130E+03  0.7546771E-02  0.1054841E+00
         21   -1    0    0  504  503  0.00000000000E+00  0.00000000000E+00  0.32954790747E+03  0.32954790747E+03  0.00000000000E+00 0. -1.
         21   -1    0    0  503  504 -0.00000000000E+00 -0.00000000000E+00 -0.10363727410E+03  0.10363727410E+03  0.00000000000E+00 0. -1.
         25    2    1    2    0    0  0.16217971896E+02 -0.10486917731E+03  0.21286921077E+03  0.26869812657E+03  0.12499926146E+03 0.  0.
         25    2    1    2    0    0 -0.16217971896E+02  0.10486917731E+03  0.13041422604E+02  0.16448705500E+03  0.12500138238E+03 0.  0.
          5    1    3    3  501    0  0.48031729716E+02 -0.98457474497E+02  0.20855572691E+03  0.23562364603E+03  0.47000000000E+01 0. -1.
         -5    1    3    3    0  501 -0.31813757821E+02 -0.64117028174E+01  0.43134838611E+01  0.33074480536E+02  0.47000000000E+01 0. -1.
          5    1    4    4  502    0  0.16918699672E+02 -0.13223580072E+02  0.33481991408E+02  0.40052955161E+02  0.47000000000E+01 0. -1.
         -5    1    4    4    0  502 -0.33136671568E+02  0.11809275739E+03 -0.20440568804E+02  0.12443409984E+03  0.47000000000E+01 0. -1.
<mgrwt>
<rscale>  0 0.36961302E+03</rscale>
<asrwt>0</asrwt>
<pdfrwt beam="1">  1       21 0.50699677E-01 0.36961302E+03</pdfrwt>
<pdfrwt beam="2">  1       21 0.15944196E-01 0.36961302E+03</pdfrwt>
<totfact> 0.12351861E+05</totfact>
</mgrwt>
</event>
<event>
 8    1  0.9705063E-006  0.4053793E+03  0.7546771E-02  0.1041933E+00
         21   -1    0    0  504  503  0.00000000000E+00  0.00000000000E+00  0.17085196862E+03  0.17085196862E+03  0.00000000000E+00 0. -1.
         21   -1    0    0  503  504 -0.00000000000E+00 -0.00000000000E+00 -0.24046018665E+03  0.24046018665E+03  0.00000000000E+00 0. -1.
         25    2    1    2    0    0  0.23484611512E+02  0.14770921066E+03 -0.91189143278E+02  0.21519775450E+03  0.12500030319E+03 0.  0.
         25    2    1    2    0    0 -0.23484611512E+02 -0.14770921066E+03  0.21580925251E+02  0.19611440077E+03  0.12500233583E+03 0.  0.
          5    1    3    3  501    0  0.81678278005E+01 -0.10188734752E+02 -0.49070448833E+02  0.50995320134E+02  0.47000000000E+01 0.  1.
         -5    1    3    3    0  501  0.15316783711E+02  0.15789794541E+03 -0.42118694444E+02  0.16420243436E+03  0.47000000000E+01 0.  1.
          5    1    4    4  502    0  0.80782812126E+01  0.19019611704E+02 -0.10022722606E+02  0.23442466277E+02  0.47000000000E+01 0.  1.
         -5    1    4    4    0  502 -0.31562892725E+02 -0.16672882237E+03  0.31603647857E+02  0.17267193450E+03  0.47000000000E+01 0.  1.
<mgrwt>
<rscale>  0 0.40537931E+03</rscale>
<asrwt>0</asrwt>
<pdfrwt beam="1">  1       21 0.26284918E-01 0.40537931E+03</pdfrwt>
<pdfrwt beam="2">  1       21 0.36993875E-01 0.40537931E+03</pdfrwt>
<totfact> 0.91145344E+04</totfact>
</mgrwt>
</event>
<event>
 8    1  0.9705063E-006  0.2780158E+03  0.7546771E-02  0.1096778E+00
         21   -1    0    0  504  503  0.00000000000E+00  0.00000000000E+00  0.63088935354E+03  0.63088935354E+03  0.00000000000E+00 0. -1.
         21   -1    0    0  503  504 -0.00000000000E+00 -0.00000000000E+00 -0.30628501894E+02  0.30628501894E+02  0.00000000000E+00 0. -1.
         25    2    1    2    0    0 -0.18414138847E+02  0.15392468524E+02  0.43309170087E+03  0.45140733799E+03  0.12499661930E+03 0.  0.
         25    2    1    2    0    0  0.18414138847E+02 -0.15392468524E+02  0.16716915078E+03  0.21011051745E+03  0.12499958389E+03 0.  0.
          5    1    3    3  501    0  0.43888192733E+02  0.14742873364E+02  0.77740312966E+02  0.90604481327E+02  0.47000000000E+01 0.  1.
         -5    1    3    3    0  501 -0.62302331580E+02  0.64959516003E+00  0.35535138790E+03  0.36080285666E+03  0.47000000000E+01 0.  1.
          5    1    4    4  502    0  0.68992054108E+02  0.11021125957E+02  0.92914498615E+02  0.11634673524E+03  0.47000000000E+01 0.  1.
         -5    1    4    4    0  502 -0.50577915262E+02 -0.26413594482E+02  0.74254652167E+02  0.93763782209E+02  0.47000000000E+01 0.  1.
<mgrwt>
<rscale>  0 0.27801580E+03</rscale>
<asrwt>0</asrwt>
<pdfrwt beam="1">  1       21 0.97059891E-01 0.27801580E+03</pdfrwt>
<pdfrwt beam="2">  1       21 0.47120777E-02 0.27801580E+03</pdfrwt>
<totfact> 0.25565054E+05</totfact>
</mgrwt>
</event>
<event>
 8    1  0.9705063E-006  0.3060261E+03  0.7546771E-02  0.1082266E+00
         21   -1    0    0  504  503  0.00000000000E+00  0.00000000000E+00  0.34451337824E+03  0.34451337824E+03  0.00000000000E+00 0. -1.
         21   -1    0    0  503  504 -0.00000000000E+00 -0.00000000000E+00 -0.67959607177E+02  0.67959607177E+02  0.00000000000E+00 0. -1.
         25    2    1    2    0    0 -0.52479825211E+01 -0.21667013824E+02  0.23202342400E+02  0.12908397496E+03  0.12500929201E+03 0.  0.
         25    2    1    2    0    0  0.52479825211E+01  0.21667013824E+02  0.25335142866E+03  0.28338901046E+03  0.12500153613E+03 0.  0.
          5    1    3    3  501    0  0.28383316454E+02  0.30832930786E+02 -0.25981947768E+02  0.49532150000E+02  0.47000000000E+01 0.  1.
         -5    1    3    3    0  501 -0.33631298975E+02 -0.52499944610E+02  0.49184290168E+02  0.79551824958E+02  0.47000000000E+01 0.  1.
          5    1    4    4  502    0  0.27986492332E+02 -0.46319600615E+02  0.12513496088E+03  0.13641699890E+03  0.47000000000E+01 0. -1.
         -5    1    4    4    0  502 -0.22738509811E+02  0.67986614439E+02  0.12821646778E+03  0.14697201156E+03  0.47000000000E+01 0. -1.
<mgrwt>
<rscale>  0 0.30602610E+03</rscale>
<asrwt>0</asrwt>
<pdfrwt beam="1">  1       21 0.53002057E-01 0.30602610E+03</pdfrwt>
<pdfrwt beam="2">  1       21 0.10455324E-01 0.30602610E+03</pdfrwt>
<totfact> 0.24579207E+05</totfact>
</mgrwt>
</event>
<event>
 8    1  0.9705063E-006  0.4563637E+03  0.7546771E-02  0.1025841E+00
         21   -1    0    0  504  503  0.00000000000E+00  0.00000000000E+00  0.15212451330E+03  0.15212451330E+03  0.00000000000E+00 0.  1.
         21   -1    0    0  503  504 -0.00000000000E+00 -0.00000000000E+00 -0.34226534029E+03  0.34226534029E+03  0.00000000000E+00 0.  1.
         25    2    1    2    0    0 -0.15356843323E+03  0.82246921701E+02 -0.17964067404E+03  0.27972011463E+03  0.12499900379E+03 0.  0.
         25    2    1    2    0    0  0.15356843323E+03 -0.82246921701E+02 -0.10500152956E+02  0.21466973896E+03  0.12500009520E+03 0.  0.
          5    1    3    3  501    0  0.96450392941E+01 -0.15851338009E+02 -0.19770391578E+01  0.19242930741E+02  0.47000000000E+01 0. -1.
         -5    1    3    3    0  501 -0.16321347252E+03  0.98098259710E+02 -0.17766363488E+03  0.26047718389E+03  0.47000000000E+01 0. -1.
          5    1    4    4  502    0  0.16882177967E+03 -0.47066170477E+02 -0.13991004083E+02  0.17588023167E+03  0.47000000000E+01 0.  1.
         -5    1    4    4    0  502 -0.15253346449E+02 -0.35180751224E+02  0.34908511271E+01  0.38789507295E+02  0.47000000000E+01 0.  1.
<mgrwt>
<rscale>  0 0.45636366E+03</rscale>
<asrwt>0</asrwt>
<pdfrwt beam="1">  1       21 0.23403772E-01 0.45636366E+03</pdfrwt>
<pdfrwt beam="2">  1       21 0.52656206E-01 0.45636366E+03</pdfrwt>
<totfact> 0.54071440E+04</totfact>
</mgrwt>
</event>
<event>
 8    1  0.9705063E-006  0.3135930E+03  0.7546771E-02  0.1078636E+00
         21   -1    0    0  504  503  0.00000000000E+00  0.00000000000E+00  0.22138554848E+03  0.22138554848E+03  0.00000000000E+00 0. -1.
         21   -1    0    0  503  504 -0.00000000000E+00 -0.00000000000E+00 -0.11105125685E+03  0.11105125685E+03  0.00000000000E+00 0. -1.
         25    2    1    2    0    0  0.70380072201E+02 -0.56029916294E+02  0.86381249098E+02  0.17657942648E+03  0.12500347026E+03 0.  0.
         25    2    1    2    0    0 -0.70380072201E+02  0.56029916294E+02  0.23953042536E+02  0.15585737885E+03  0.12500027285E+03 0.  0.
          5    1    3    3  501    0  0.10402049606E+03 -0.28870755892E+02  0.75286777790E+02  0.13169651877E+03  0.47000000000E+01 0.  1.
         -5    1    3    3    0  501 -0.33640423856E+02 -0.27159160401E+02  0.11094471308E+02  0.44882907710E+02  0.47000000000E+01 0.  1.
          5    1    4    4  502    0 -0.79921677633E+02  0.11158538674E+02 -0.28780636755E+02  0.85804443900E+02  0.47000000000E+01 0.  1.
         -5    1    4    4    0  502  0.95416054323E+01  0.44871377619E+02  0.52733679291E+02  0.70052934951E+02  0.47000000000E+01 0.  1.
<mgrwt>
<rscale>  0 0.31359301E+03</rscale>
<asrwt>0</asrwt>
<pdfrwt beam="1">  1       21 0.34059315E-01 0.31359301E+03</pdfrwt>
<pdfrwt beam="2">  1       21 0.17084809E-01 0.31359301E+03</pdfrwt>
<totfact> 0.24933130E+05</totfact>
</mgrwt>
</event>
<event>
 8    1  0.9705063E-006  0.2942598E+03  0.7546771E-02  0.1088146E+00
         21   -1    0    0  504  503  0.00000000000E+00  0.00000000000E+00  0.19822911037E+03  0.19822911037E+03  0.00000000000E+00 0.  1.
         21   -1    0    0  503  504 -0.00000000000E+00 -0.00000000000E+00 -0.10920297940E+03  0.10920297940E+03  0.00000000000E+00 0.  1.
         25    2    1    2    0    0  0.86041407985E+01 -0.74485395799E+02  0.23611161389E+02  0.14766648653E+03  0.12500319547E+03 0.  0.
         25    2    1    2    0    0 -0.86041407985E+01  0.74485395799E+02  0.65414969583E+02  0.15976560323E+03  0.12499529712E+03 0.  0.
          5    1    3    3  501    0 -0.20488706480E+02 -0.25379468922E+02 -0.46590761616E+02  0.57067447848E+02  0.47000000000E+01 0. -1.
         -5    1    3    3    0  501  0.29092847278E+02 -0.49105926877E+02  0.70201923005E+02  0.90599038686E+02  0.47000000000E+01 0. -1.
          5    1    4    4  502    0 -0.33459521777E+02  0.24625074455E+02 -0.28407798593E+02  0.50547274015E+02  0.47000000000E+01 0.  1.
         -5    1    4    4    0  502  0.24855380978E+02  0.49860321344E+02  0.93822768175E+02  0.10921832921E+03  0.47000000000E+01 0.  1.
<mgrwt>
<rscale>  0 0.29425981E+03</rscale>
<asrwt>0</asrwt>
<pdfrwt beam="1">  1       21 0.30496786E-01 0.29425981E+03</pdfrwt>
<pdfrwt beam="2">  1       21 0.16800458E-01 0.29425981E+03</pdfrwt>
<totfact> 0.32157291E+05</totfact>
</mgrwt>
</event>
<event>
 8    1  0.9705063E-006  0.3642762E+03  0.7546771E-02  0.1056903E+00
         21   -1    0    0  504  503  0.00000000000E+00  0.00000000000E+00  0.49933129657E+02  0.49933129657E+02  0.00000000000E+00 0.  1.
         21   -1    0    0  503  504 -0.00000000000E+00 -0.00000000000E+00 -0.66437425540E+03  0.66437425540E+03  0.00000000000E+00 0.  1.
         25    2    1    2    0    0  0.71652099930E+02  0.28556772373E+01 -0.88838837974E+02  0.16930474159E+03  0.12501831097E+03 0.  0.
         25    2    1    2    0    0 -0.71652099930E+02 -0.28556772373E+01 -0.52560228777E+03  0.54500264346E+03  0.12501175208E+03 0.  0.
          5    1    3    3  501    0  0.67561960623E+02  0.41037924551E+02 -0.78830336976E+01  0.79579909493E+02  0.47000000000E+01 0. -1.
         -5    1    3    3    0  501  0.40901393062E+01 -0.38182247313E+02 -0.80955804276E+02  0.89724832100E+02  0.47000000000E+01 0. -1.
          5    1    4    4  502    0 -0.86810262114E+02 -0.98964202644E+01 -0.51916355909E+03  0.52648537665E+03  0.47000000000E+01 0. -1.
         -5    1    4    4    0  502  0.15158162184E+02  0.70407430271E+01 -0.64387286811E+01  0.18517266813E+02  0.47000000000E+01 0. -1.
<mgrwt>
<rscale>  0 0.36427619E+03</rscale>
<asrwt>0</asrwt>
<pdfrwt beam="1">  1       21 0.76820200E-02 0.36427619E+03</pdfrwt>
<pdfrwt beam="2">  1       21 0.10221142E+00 0.36427619E+03</pdfrwt>
<totfact> 0.94806801E+04</totfact>
</mgrwt>
</event>
<event>
 8    1  0.9705063E-006  0.2721433E+03  0.7546771E-02  0.1100059E+00
         21   -1    0    0  504  503  0.00000000000E+00  0.00000000000E+00  0.16552624146E+03  0.16552624146E+03  0.00000000000E+00 0. -1.
         21   -1    0    0  503  504 -0.00000000000E+00 -0.00000000000E+00 -0.11185832358E+03  0.11185832358E+03  0.00000000000E+00 0. -1.
         25    2    1    2    0    0 -0.37406033692E+02 -0.37256636621E+02  0.16513443675E+02  0.13669911277E+03  0.12500674095E+03 0.  0.
         25    2    1    2    0    0  0.37406033692E+02  0.37256636621E+02  0.37154474209E+02  0.14068545226E+03  0.12499869278E+03 0.  0.
          5    1    3    3  501    0  0.23563485443E+02  0.64730885275E+01  0.48880384259E+02  0.54849983470E+02  0.47000000000E+01 0. -1.
         -5    1    3    3    0  501 -0.60969519135E+02 -0.43729725148E+02 -0.32366940584E+02  0.81849129304E+02  0.47000000000E+01 0. -1.
          5    1    4    4  502    0  0.13453778789E+02  0.78455204246E+02  0.45901092950E+02  0.92006649602E+02  0.47000000000E+01 0.  1.
         -5    1    4    4    0  502  0.23952254903E+02 -0.41198567625E+02 -0.87466187418E+01  0.48678802663E+02  0.47000000000E+01 0.  1.
<mgrwt>
<rscale>  0 0.27214326E+03</rscale>
<asrwt>0</asrwt>
<pdfrwt beam="1">  1       21 0.25465576E-01 0.27214326E+03</pdfrwt>
<pdfrwt beam="2">  1       21 0.17208973E-01 0.27214326E+03</pdfrwt>
<totfact> 0.43891912E+05</totfact>
</mgrwt>
</event>
<event>
 8    1  0.9705063E-006  0.3057560E+03  0.7546771E-02  0.1082398E+00
         21   -1    0    0  504  503  0.00000000000E+00  0.00000000000E+00  0.12629392812E+03  0.12629392812E+03  0.00000000000E+00 0. -1.
         21   -1    0    0  503  504 -0.00000000000E+00 -0.00000000000E+00 -0.18505788187E+03  0.18505788187E+03  0.00000000000E+00 0. -1.
         25    2    1    2    0    0 -0.75061644686E+02 -0.43182872642E+02 -0.13431523864E+02  0.15266031846E+03  0.12500302399E+03 0.  0.
         25    2    1    2    0    0  0.75061644686E+02  0.43182872642E+02 -0.45332429887E+02  0.15869149153E+03  0.12501579617E+03 0.  0.
          5    1    3    3  501    0 -0.59422968044E+02 -0.64587118663E+02  0.37103806273E+02  0.95401087354E+02  0.47000000000E+01 0.  1.
         -5    1    3    3    0  501 -0.15638676642E+02  0.21404246021E+02 -0.50535330137E+02  0.57259231107E+02  0.47000000000E+01 0.  1.
          5    1    4    4  502    0  0.10426302979E+03  0.33085178771E+02 -0.59236522907E+02  0.12448479458E+03  0.47000000000E+01 0.  1.
         -5    1    4    4    0  502 -0.29201385104E+02  0.10097693871E+02  0.13904093020E+02  0.34206696949E+02  0.47000000000E+01 0.  1.
<mgrwt>
<rscale>  0 0.30575603E+03</rscale>
<asrwt>0</asrwt>
<pdfrwt beam="1">  1       21 0.19429835E-01 0.30575603E+03</pdfrwt>
<pdfrwt beam="2">  1       21 0.28470443E-01 0.30575603E+03</pdfrwt>
<totfact> 0.27989432E+05</totfact>
</mgrwt>
</event>
<event>
 8    1  0.9705063E-006  0.2732666E+03  0.7546771E-02  0.1099424E+00
         21   -1    0    0  504  503  0.00000000000E+00  0.00000000000E+00  0.12534595193E+03  0.12534595193E+03  0.00000000000E+00 0.  1.
         21   -1    0    0  503  504 -0.00000000000E+00 -0.00000000000E+00 -0.14893707910E+03  0.14893707910E+03  0.00000000000E+00 0.  1.
         25    2    1    2    0    0  0.40643417453E+02  0.36417872085E+02 -0.19892959339E+02  0.13783459464E+03  0.12499798742E+03 0.  0.
         25    2    1    2    0    0 -0.40643417453E+02 -0.36417872085E+02 -0.36981678278E+01  0.13644843639E+03  0.12500540212E+03 0.  0.
          5    1    3    3  501    0 -0.94723226854E+01  0.16669206550E+02 -0.64679018898E+02  0.67624350864E+02  0.47000000000E+01 0. -1.
         -5    1    3    3    0  501  0.50115740138E+02  0.19748665535E+02  0.44786059559E+02  0.70210243774E+02  0.47000000000E+01 0. -1.
          5    1    4    4  502    0  0.27502459130E+02  0.29950776581E+02  0.24764754136E+01  0.41008013930E+02  0.47000000000E+01 0. -1.
         -5    1    4    4    0  502 -0.68145876583E+02 -0.66368648666E+02 -0.61746432413E+01  0.95440422464E+02  0.47000000000E+01 0. -1.
<mgrwt>
<rscale>  0 0.27326661E+03</rscale>
<asrwt>0</asrwt>
<pdfrwt beam="1">  1       21 0.19283992E-01 0.27326661E+03</pdfrwt>
<pdfrwt beam="2">  1       21 0.22913397E-01 0.27326661E+03</pdfrwt>
<totfact> 0.43451160E+05</totfact>
</mgrwt>
</event>
<event>
 8    1  0.9705063E-006  0.3640280E+03  0.7546771E-02  0.1057000E+00
         21   -1    0    0  504  503  0.00000000000E+00  0.00000000000E+00  0.17675338305E+02  0.17675338305E+02  0.00000000000E+00 0.  1.
         21   -1    0    0  503  504 -0.00000000000E+00 -0.00000000000E+00 -0.18743117177E+04  0.18743117177E+04  0.00000000000E+00 0.  1.
         25    2    1    2    0    0  0.55882129386E+01  0.13217650782E+03 -0.93782752910E+03  0.95532548574E+03  0.12499780810E+03 0.  0.
         25    2    1    2    0    0 -0.55882129386E+01 -0.13217650782E+03 -0.91880885033E+03  0.93666157029E+03  0.12499334574E+03 0.  0.
          5    1    3    3  501    0 -0.35318146667E+02  0.94980180762E+02 -0.33689414431E+03  0.35183570128E+03  0.47000000000E+01 0. -1.
         -5    1    3    3    0  501  0.40906359606E+02  0.37196327056E+02 -0.60093338479E+03  0.60348978446E+03  0.47000000000E+01 0. -1.
          5    1    4    4  502    0 -0.10243383872E+02  0.57374258314E+01 -0.38746446417E+03  0.38767079586E+03  0.47000000000E+01 0. -1.
         -5    1    4    4    0  502  0.46551709329E+01 -0.13791393365E+03 -0.53134438616E+03  0.54899077443E+03  0.47000000000E+01 0. -1.
<mgrwt>
<rscale>  0 0.36402799E+03</rscale>
<asrwt>0</asrwt>
<pdfrwt beam="1">  1       21 0.27192842E-02 0.36402799E+03</pdfrwt>
<pdfrwt beam="2">  1       21 0.28835550E+00 0.36402799E+03</pdfrwt>
<totfact> 0.26418665E+04</totfact>
</mgrwt>
</event>
<event>
 8    1  0.9705063E-006  0.6040043E+03  0.7546771E-02  0.9897133E-01
         21   -1    0    0  504  503  0.00000000000E+00  0.00000000000E+00  0.13260219006E+03  0.13260219006E+03  0.00000000000E+00 0.  1.
         21   -1    0    0  503  504 -0.00000000000E+00 -0.00000000000E+00 -0.68781142552E+03  0.68781142552E+03  0.00000000000E+00 0.  1.
         25    2    1    2    0    0 -0.27094790839E+03 -0.24889599383E+02 -0.33096990150E+03  0.44631588042E+03  0.12499811276E+03 0.  0.
         25    2    1    2    0    0  0.27094790839E+03  0.24889599383E+02 -0.22423933395E+03  0.37409773516E+03  0.12503429668E+03 0.  0.
          5    1    3    3  501    0 -0.15880202674E+03 -0.24136056462E+02 -0.28044598385E+03  0.32322232716E+03  0.47000000000E+01 0. -1.
         -5    1    3    3    0  501 -0.11214588165E+03 -0.75354292116E+00 -0.50523917650E+02  0.12309355325E+03  0.47000000000E+01 0. -1.
          5    1    4    4  502    0  0.10619205878E+03  0.20181522847E+02 -0.16810677273E+03  0.19991504258E+03  0.47000000000E+01 0. -1.
         -5    1    4    4    0  502  0.16475584961E+03  0.47080765365E+01 -0.56132561219E+02  0.17418269258E+03  0.47000000000E+01 0. -1.
<mgrwt>
<rscale>  0 0.60400431E+03</rscale>
<asrwt>0</asrwt>
<pdfrwt beam="1">  1       21 0.20400337E-01 0.60400431E+03</pdfrwt>
<pdfrwt beam="2">  1       21 0.10581714E+00 0.60400431E+03</pdfrwt>
<totfact> 0.13750077E+04</totfact>
</mgrwt>
</event>
<event>
 8    1  0.9705063E-006  0.4969958E+03  0.7546771E-02  0.1014566E+00
         21   -1    0    0  504  503  0.00000000000E+00  0.00000000000E+00  0.43442999891E+03  0.43442999891E+03  0.00000000000E+00 0. -1.
         21   -1    0    0  503  504 -0.00000000000E+00 -0.00000000000E+00 -0.14214305629E+03  0.14214305629E+03  0.00000000000E+00 0. -1.
         25    2    1    2    0    0 -0.15712453965E+03 -0.11855603696E+03  0.24582310415E+03  0.33881786409E+03  0.12499956653E+03 0.  0.
         25    2    1    2    0    0  0.15712453965E+03  0.11855603696E+03  0.46463838464E+02  0.23775519111E+03  0.12499995103E+03 0.  0.
          5    1    3    3  501    0 -0.30980820217E+02 -0.64891907522E+02  0.20314184969E+02  0.74870067411E+02  0.47000000000E+01 0. -1.
         -5    1    3    3    0  501 -0.12614371943E+03 -0.53664129440E+02  0.22550891919E+03  0.26394779668E+03  0.47000000000E+01 0. -1.
          5    1    4    4  502    0  0.13296499885E+03  0.27618411313E+02  0.46268313315E+02  0.14354551327E+03  0.47000000000E+01 0. -1.
         -5    1    4    4    0  502  0.24159540801E+02  0.90937625648E+02  0.19552514848E+00  0.94209677849E+02  0.47000000000E+01 0. -1.
<mgrwt>
<rscale>  0 0.49699581E+03</rscale>
<asrwt>0</asrwt>
<pdfrwt beam="1">  1       21 0.66835384E-01 0.49699581E+03</pdfrwt>
<pdfrwt beam="2">  1       21 0.21868163E-01 0.49699581E+03</pdfrwt>
<totfact> 0.36244823E+04</totfact>
</mgrwt>
</event>
<event>
 8    1  0.9705063E-006  0.3613177E+03  0.7546771E-02  0.1058063E+00
         21   -1    0    0  504  503  0.00000000000E+00  0.00000000000E+00  0.12711066731E+03  0.12711066731E+03  0.00000000000E+00 0.  1.
         21   -1    0    0  503  504 -0.00000000000E+00 -0.00000000000E+00 -0.25676539289E+03  0.25676539289E+03  0.00000000000E+00 0.  1.
         25    2    1    2    0    0 -0.69549139902E+02 -0.90793858495E+02 -0.13146387026E+03  0.21443812574E+03  0.12498141056E+03 0.  0.
         25    2    1    2    0    0  0.69549139902E+02  0.90793858495E+02  0.18091446869E+01  0.16943793446E+03  0.12500133211E+03 0.  0.
          5    1    3    3  501    0  0.22834631340E+02 -0.62626480558E+02 -0.82136104427E+02  0.10588638300E+03  0.47000000000E+01 0. -1.
         -5    1    3    3    0  501 -0.92383771242E+02 -0.28167377937E+02 -0.49327765837E+02  0.10855174274E+03  0.47000000000E+01 0. -1.
          5    1    4    4  502    0 -0.60019357192E+01 -0.27361944216E+02  0.60858360840E+01  0.29048694024E+02  0.47000000000E+01 0.  1.
         -5    1    4    4    0  502  0.75551075622E+02  0.11815580271E+03 -0.42766913971E+01  0.14038924044E+03  0.47000000000E+01 0.  1.
<mgrwt>
<rscale>  0 0.36131770E+03</rscale>
<asrwt>0</asrwt>
<pdfrwt beam="1">  1       21 0.19555487E-01 0.36131770E+03</pdfrwt>
<pdfrwt beam="2">  1       21 0.39502368E-01 0.36131770E+03</pdfrwt>
<totfact> 0.14199857E+05</totfact>
</mgrwt>
</event>
<event>
 8    1  0.9705063E-006  0.4647953E+03  0.7546771E-02  0.1023400E+00
         21   -1    0    0  504  503  0.00000000000E+00  0.00000000000E+00  0.46675180117E+03  0.46675180117E+03  0.00000000000E+00 0. -1.
         21   -1    0    0  503  504 -0.00000000000E+00 -0.00000000000E+00 -0.11571175255E+03  0.11571175255E+03  0.00000000000E+00 0. -1.
         25    2    1    2    0    0  0.17402414534E+03  0.21188522661E+02  0.28512531242E+03  0.35728959733E+03  0.12500422362E+03 0.  0.
         25    2    1    2    0    0 -0.17402414534E+03 -0.21188522661E+02  0.65914736197E+02  0.22517395638E+03  0.12500080613E+03 0.  0.
          5    1    3    3  501    0  0.15920599674E+02  0.44983333899E+02  0.11063840655E+03  0.12058156089E+03  0.47000000000E+01 0.  1.
         -5    1    3    3    0  501  0.15810354566E+03 -0.23794811238E+02  0.17448690587E+03  0.23670803643E+03  0.47000000000E+01 0.  1.
          5    1    4    4  502    0 -0.17851245433E+03 -0.49773744296E+02  0.50922634871E+02  0.19224808638E+03  0.47000000000E+01 0. -1.
         -5    1    4    4    0  502  0.44883089978E+01  0.28585221635E+02  0.14992101326E+02  0.32925870007E+02  0.47000000000E+01 0. -1.
<mgrwt>
<rscale>  0 0.46479531E+03</rscale>
<asrwt>0</asrwt>
<pdfrwt beam="1">  1       21 0.71807968E-01 0.46479531E+03</pdfrwt>
<pdfrwt beam="2">  1       21 0.17801808E-01 0.46479531E+03</pdfrwt>
<totfact> 0.45937178E+04</totfact>
</mgrwt>
</event>
<event>
 8    1  0.9705063E-006  0.3048756E+03  0.7546771E-02  0.1082828E+00
         21   -1    0    0  504  503  0.00000000000E+00  0.00000000000E+00  0.13066108701E+04  0.13066108701E+04  0.00000000000E+00 0.  1.
         21   -1    0    0  503  504 -0.00000000000E+00 -0.00000000000E+00 -0.17784397963E+02  0.17784397963E+02  0.00000000000E+00 0.  1.
         25    2    1    2    0    0 -0.81965212333E+02  0.12065821543E+02  0.52546411536E+03  0.54644250040E+03  0.12499195827E+03 0.  0.
         25    2    1    2    0    0  0.81965212333E+02 -0.12065821543E+02  0.76336235672E+03  0.77795276761E+03  0.12499816353E+03 0.  0.
          5    1    3    3  501    0 -0.29394426589E+02 -0.54117841863E+02  0.28189466040E+03  0.28858181281E+03  0.47000000000E+01 0.  1.
         -5    1    3    3    0  501 -0.52570785744E+02  0.66183663407E+02  0.24356945496E+03  0.25786068759E+03  0.47000000000E+01 0.  1.
          5    1    4    4  502    0  0.68571829884E+02 -0.61309829851E+00  0.15785428450E+03  0.17217008125E+03  0.47000000000E+01 0. -1.
         -5    1    4    4    0  502  0.13393382449E+02 -0.11452723245E+02  0.60550807223E+03  0.60578268636E+03  0.47000000000E+01 0. -1.
<mgrwt>
<rscale>  0 0.30487563E+03</rscale>
<asrwt>0</asrwt>
<pdfrwt beam="1">  1       21 0.20101698E+00 0.30487563E+03</pdfrwt>
<pdfrwt beam="2">  1       21 0.27360623E-02 0.30487563E+03</pdfrwt>
<totfact> 0.92291280E+04</totfact>
</mgrwt>
</event>
<event>
 8    1  0.9705063E-006  0.3044611E+03  0.7546771E-02  0.1083032E+00
         21   -1    0    0  504  503  0.00000000000E+00  0.00000000000E+00  0.20411662914E+03  0.20411662914E+03  0.00000000000E+00 0. -1.
         21   -1    0    0  503  504 -0.00000000000E+00 -0.00000000000E+00 -0.11353383018E+03  0.11353383018E+03  0.00000000000E+00 0. -1.
         25    2    1    2    0    0  0.19249597594E+02  0.30129315195E+02 -0.37327840369E+02  0.13526476674E+03  0.12499946725E+03 0.  0.
         25    2    1    2    0    0 -0.19249597594E+02 -0.30129315195E+02  0.12791063933E+03  0.18238569259E+03  0.12500034627E+03 0.  0.
          5    1    3    3  501    0  0.19141701045E+02  0.31347046374E+02  0.41883373767E+02  0.55904821199E+02  0.47000000000E+01 0. -1.
         -5    1    3    3    0  501  0.10789654907E+00 -0.12177311783E+01 -0.79211214135E+02  0.79359945537E+02  0.47000000000E+01 0. -1.
          5    1    4    4  502    0 -0.56447434718E+02 -0.13683313852E+02  0.12887019480E+03  0.14143253894E+03  0.47000000000E+01 0.  1.
         -5    1    4    4    0  502  0.37197837125E+02 -0.16446001344E+02 -0.95955547057E+00  0.40953153647E+02  0.47000000000E+01 0.  1.
<mgrwt>
<rscale>  0 0.30446112E+03</rscale>
<asrwt>0</asrwt>
<pdfrwt beam="1">  1       21 0.31402558E-01 0.30446112E+03</pdfrwt>
<pdfrwt beam="2">  1       21 0.17466743E-01 0.30446112E+03</pdfrwt>
<totfact> 0.28176743E+05</totfact>
</mgrwt>
</event>
<event>
 8    1  0.9705063E-006  0.2875129E+03  0.7546771E-02  0.1091655E+00
         21   -1    0    0  504  503  0.00000000000E+00  0.00000000000E+00  0.10459408455E+03  0.10459408455E+03  0.00000000000E+00 0.  1.
         21   -1    0    0  503  504 -0.00000000000E+00 -0.00000000000E+00 -0.19758213281E+03  0.19758213281E+03  0.00000000000E+00 0.  1.
         25    2    1    2    0    0 -0.31519037766E+02  0.37775024910E+02  0.73040071316E+01  0.13453105265E+03  0.12499941343E+03 0.  0.
         25    2    1    2    0    0  0.31519037766E+02 -0.37775024910E+02 -0.10029205539E+03  0.16764516471E+03  0.12500401045E+03 0.  0.
          5    1    3    3  501    0 -0.25467492215E+02 -0.18893072303E+02  0.52588039070E+02  0.61588417694E+02  0.47000000000E+01 0. -1.
         -5    1    3    3    0  501 -0.60515455518E+01  0.56668097213E+02 -0.45284031939E+02  0.72942634954E+02  0.47000000000E+01 0. -1.
          5    1    4    4  502    0 -0.97763062370E+01  0.26445303358E+02  0.12632127544E+02  0.31250454071E+02  0.47000000000E+01 0.  1.
         -5    1    4    4    0  502  0.41295344004E+02 -0.64220328268E+02 -0.11292418293E+03  0.13639471064E+03  0.47000000000E+01 0.  1.
<mgrwt>
<rscale>  0 0.28751294E+03</rscale>
<asrwt>0</asrwt>
<pdfrwt beam="1">  1       21 0.16091397E-01 0.28751294E+03</pdfrwt>
<pdfrwt beam="2">  1       21 0.30397251E-01 0.28751294E+03</pdfrwt>
<totfact> 0.35101033E+05</totfact>
</mgrwt>
</event>
<event>
 8    1  0.9705063E-006  0.2713720E+03  0.7546771E-02  0.1100497E+00
         21   -1    0    0  504  503  0.00000000000E+00  0.00000000000E+00  0.12957728892E+03  0.12957728892E+03  0.00000000000E+00 0. -1.
         21   -1    0    0  503  504 -0.00000000000E+00 -0.00000000000E+00 -0.14208274296E+03  0.14208274296E+03  0.00000000000E+00 0. -1.
         25    2    1    2    0    0  0.22727180351E+01 -0.51889562242E+02  0.29687450510E+01  0.13541750582E+03  0.12502557946E+03 0.  0.
         25    2    1    2    0    0 -0.22727180351E+01  0.51889562242E+02 -0.15474199087E+02  0.13624252606E+03  0.12499953261E+03 0.  0.
          5    1    3    3  501    0  0.40505453650E+02 -0.44664074829E+02 -0.43596441996E+02  0.74554081783E+02  0.47000000000E+01 0.  1.
         -5    1    3    3    0  501 -0.38232735615E+02 -0.72254874132E+01  0.46565187047E+02  0.60863424039E+02  0.47000000000E+01 0.  1.
          5    1    4    4  502    0 -0.31832182900E+02 -0.21344148627E+02  0.26356363126E+02  0.46750491185E+02  0.47000000000E+01 0.  1.
         -5    1    4    4    0  502  0.29559464865E+02  0.73233710870E+02 -0.41830562213E+02  0.89492034874E+02  0.47000000000E+01 0.  1.
<mgrwt>
<rscale>  0 0.27137204E+03</rscale>
<asrwt>0</asrwt>
<pdfrwt beam="1">  1       21 0.19934968E-01 0.27137204E+03</pdfrwt>
<pdfrwt beam="2">  1       21 0.21858883E-01 0.27137204E+03</pdfrwt>
<totfact> 0.44667469E+05</totfact>
</mgrwt>
</event>
<event>
 8    1  0.9705063E-006  0.5748862E+03  0.7546771E-02  0.9958924E-01
         21   -1    0    0  504  503  0.00000000000E+00  0.00000000000E+00  0.17517777532E+03  0.17517777532E+03  0.00000000000E+00 0. -1.
         21   -1    0    0  503  504 -0.00000000000E+00 -0.00000000000E+00 -0.47165529253E+03  0.47165529253E+03  0.00000000000E+00 0. -1.
         25    2    1    2    0    0 -0.23771723456E+03  0.99162884171E+02 -0.17702779859E+03  0.33661022540E+03  0.12499936467E+03 0.  0.
         25    2    1    2    0    0  0.23771723456E+03 -0.99162884171E+02 -0.11944971861E+03  0.31022284244E+03  0.12500886166E+03 0.  0.
          5    1    3    3  501    0 -0.12490972277E+03  0.19268340752E+02 -0.14907980513E+03  0.19550085958E+03  0.47000000000E+01 0. -1.
         -5    1    3    3    0  501 -0.11280751179E+03  0.79894543419E+02 -0.27947993460E+02  0.14110936582E+03  0.47000000000E+01 0. -1.
          5    1    4    4  502    0  0.98910399434E+02 -0.84854921631E+02 -0.10943933553E+03  0.17024301161E+03  0.47000000000E+01 0. -1.
         -5    1    4    4    0  502  0.13880683513E+03 -0.14307962540E+02 -0.10010383078E+02  0.13997983083E+03  0.47000000000E+01 0. -1.
<mgrwt>
<rscale>  0 0.57488616E+03</rscale>
<asrwt>0</asrwt>
<pdfrwt beam="1">  1       21 0.26950427E-01 0.57488616E+03</pdfrwt>
<pdfrwt beam="2">  1       21 0.72562353E-01 0.57488616E+03</pdfrwt>
<totfact> 0.19719396E+04</totfact>
</mgrwt>
</event>
<event>
 8    1  0.9705063E-006  0.3596126E+03  0.7546771E-02  0.1058737E+00
         21   -1    0    0  504  503  0.00000000000E+00  0.00000000000E+00  0.13185630057E+03  0.13185630057E+03  0.00000000000E+00 0.  1.
         21   -1    0    0  503  504 -0.00000000000E+00 -0.00000000000E+00 -0.24519341529E+03  0.24519341529E+03  0.00000000000E+00 0.  1.
         25    2    1    2    0    0  0.93018453434E+02 -0.65390160847E+01  0.37163912196E+02  0.16031991426E+03  0.12500450843E+03 0.  0.
         25    2    1    2    0    0 -0.93018453434E+02  0.65390160847E+01 -0.15050102692E+03  0.21672980160E+03  0.12500422547E+03 0.  0.
          5    1    3    3  501    0  0.97933735125E+01 -0.89264325913E+01 -0.42638145261E+02  0.44896467510E+02  0.47000000000E+01 0. -1.
         -5    1    3    3    0  501  0.83225079922E+02  0.23874165066E+01  0.79802057457E+02  0.11542344675E+03  0.47000000000E+01 0. -1.
          5    1    4    4  502    0 -0.37632601818E+02  0.26590267538E+02  0.85109234691E+01  0.47093320818E+02  0.47000000000E+01 0. -1.
         -5    1    4    4    0  502 -0.55385851616E+02 -0.20051251454E+02 -0.15901195039E+03  0.16963648078E+03  0.47000000000E+01 0. -1.
<mgrwt>
<rscale>  0 0.35961255E+03</rscale>
<asrwt>0</asrwt>
<pdfrwt beam="1">  1       21 0.20285585E-01 0.35961255E+03</pdfrwt>
<pdfrwt beam="2">  1       21 0.37722064E-01 0.35961255E+03</pdfrwt>
<totfact> 0.14558963E+05</totfact>
</mgrwt>
</event>
<event>
 8    1  0.9705063E-006  0.3066112E+03  0.7546771E-02  0.1081982E+00
         21   -1    0    0  504  503  0.00000000000E+00  0.00000000000E+00  0.12415580561E+04  0.12415580561E+04  0.00000000000E+00 0.  1.
         21   -1    0    0  503  504 -0.00000000000E+00 -0.00000000000E+00 -0.18929935194E+02  0.18929935194E+02  0.00000000000E+00 0.  1.
         25    2    1    2    0    0 -0.60747039760E+02  0.32212657535E+02  0.84205492268E+03  0.85405346593E+03  0.12499188657E+03 0.  0.
         25    2    1    2    0    0  0.60747039760E+02 -0.32212657535E+02  0.38057319824E+03  0.40643452538E+03  0.12500082423E+03 0.  0.
          5    1    3    3  501    0 -0.17166393051E+02 -0.46513385209E+02  0.22435788528E+03  0.22981890858E+03  0.47000000000E+01 0.  1.
         -5    1    3    3    0  501 -0.43580646709E+02  0.78726042744E+02  0.61769703740E+03  0.62423455735E+03  0.47000000000E+01 0.  1.
          5    1    4    4  502    0  0.28573076452E+02 -0.53599646394E+02  0.35424881020E+03  0.35944909558E+03  0.47000000000E+01 0.  1.
         -5    1    4    4    0  502  0.32173963308E+02  0.21386988859E+02  0.26324388048E+02  0.46985429800E+02  0.47000000000E+01 0.  1.
<mgrwt>
<rscale>  0 0.30661124E+03</rscale>
<asrwt>0</asrwt>
<pdfrwt beam="1">  1       21 0.19100887E+00 0.30661124E+03</pdfrwt>
<pdfrwt beam="2">  1       21 0.29122987E-02 0.30661124E+03</pdfrwt>
<totfact> 0.96840633E+04</totfact>
</mgrwt>
</event>
<event>
 8    1  0.9705063E-006  0.3068958E+03  0.7546771E-02  0.1081843E+00
         21   -1    0    0  504  503  0.00000000000E+00  0.00000000000E+00  0.95167219382E+02  0.95167219382E+02  0.00000000000E+00 0.  1.
         21   -1    0    0  503  504 -0.00000000000E+00 -0.00000000000E+00 -0.24741988646E+03  0.24741988646E+03  0.00000000000E+00 0.  1.
         25    2    1    2    0    0  0.21227451051E+02 -0.50181716400E+02  0.24368093470E+01  0.13637698043E+03  0.12499573358E+03 0.  0.
         25    2    1    2    0    0 -0.21227451051E+02  0.50181716400E+02 -0.15468947642E+03  0.20621012541E+03  0.12499988946E+03 0.  0.
          5    1    3    3  501    0 -0.19699048135E+01 -0.88403301063E+02 -0.11537549818E+02  0.89298539852E+02  0.47000000000E+01 0.  1.
         -5    1    3    3    0  501  0.23197355864E+02  0.38221584663E+02  0.13974359165E+02  0.47078440579E+02  0.47000000000E+01 0.  1.
          5    1    4    4  502    0  0.16424900074E+02  0.13471322883E+02 -0.15178256967E+03  0.15333392429E+03  0.47000000000E+01 0. -1.
         -5    1    4    4    0  502 -0.37652351125E+02  0.36710393517E+02 -0.29069067492E+01  0.52876201114E+02  0.47000000000E+01 0. -1.
<mgrwt>
<rscale>  0 0.30689583E+03</rscale>
<asrwt>0</asrwt>
<pdfrwt beam="1">  1       21 0.14641111E-01 0.30689583E+03</pdfrwt>
<pdfrwt beam="2">  1       21 0.38064598E-01 0.30689583E+03</pdfrwt>
<totfact> 0.26546940E+05</totfact>
</mgrwt>
</event>
<event>
 8    1  0.9705063E-006  0.2721225E+03  0.7546771E-02  0.1100071E+00
         21   -1    0    0  504  503  0.00000000000E+00  0.00000000000E+00  0.15746965473E+04  0.15746965473E+04  0.00000000000E+00 0. -1.
         21   -1    0    0  503  504 -0.00000000000E+00 -0.00000000000E+00 -0.11756341286E+02  0.11756341286E+02  0.00000000000E+00 0. -1.
         25    2    1    2    0    0 -0.32977123558E+02 -0.42125787893E+02  0.81143417672E+03  0.82274555748E+03  0.12499102575E+03 0.  0.
         25    2    1    2    0    0  0.32977123558E+02  0.42125787893E+02  0.75150602932E+03  0.76370733113E+03  0.12500201133E+03 0.  0.
          5    1    3    3  501    0  0.14276681637E+02 -0.73425747695E+02  0.55781433854E+03  0.56282687422E+03  0.47000000000E+01 0. -1.
         -5    1    3    3    0  501 -0.47253805195E+02  0.31299959802E+02  0.25361983818E+03  0.25991868326E+03  0.47000000000E+01 0. -1.
          5    1    4    4  502    0  0.98862143106E+01  0.79971503131E+02  0.61072141666E+03  0.61603239956E+03  0.47000000000E+01 0.  1.
         -5    1    4    4    0  502  0.23090909248E+02 -0.37845715238E+02  0.14078461266E+03  0.14767493157E+03  0.47000000000E+01 0.  1.
<mgrwt>
<rscale>  0 0.27212255E+03</rscale>
<asrwt>0</asrwt>
<pdfrwt beam="1">  1       21 0.24226084E+00 0.27212255E+03</pdfrwt>
<pdfrwt beam="2">  1       21 0.18086691E-02 0.27212255E+03</pdfrwt>
<totfact> 0.10220633E+05</totfact>
</mgrwt>
</event>
<event>
 8    1  0.9705063E-006  0.2600763E+03  0.7546771E-02  0.1107097E+00
         21   -1    0    0  504  503  0.00000000000E+00  0.00000000000E+00  0.38943072196E+02  0.38943072196E+02  0.00000000000E+00 0.  1.
         21   -1    0    0  503  504 -0.00000000000E+00 -0.00000000000E+00 -0.43422160039E+03  0.43422160039E+03  0.00000000000E+00 0.  1.
         25    2    1    2    0    0  0.16136305112E+02 -0.27727522596E+02 -0.16852167417E+03  0.21225735145E+03  0.12499773090E+03 0.  0.
         25    2    1    2    0    0 -0.16136305112E+02  0.27727522596E+02 -0.22675685402E+03  0.26090732113E+03  0.12499905408E+03 0.  0.
          5    1    3    3  501    0 -0.37404195224E+02  0.30312099720E+02 -0.48398237054E+02  0.68427893141E+02  0.47000000000E+01 0. -1.
         -5    1    3    3    0  501  0.53540500336E+02 -0.58039622316E+02 -0.12012343711E+03  0.14382945831E+03  0.47000000000E+01 0. -1.
          5    1    4    4  502    0 -0.43478170258E+02 -0.33585098785E+02 -0.14428673251E+03  0.15446378646E+03  0.47000000000E+01 0. -1.
         -5    1    4    4    0  502  0.27341865146E+02  0.61312621381E+02 -0.82470121517E+02  0.10644353467E+03  0.47000000000E+01 0. -1.
<mgrwt>
<rscale>  0 0.26007632E+03</rscale>
<asrwt>0</asrwt>
<pdfrwt beam="1">  1       21 0.59912421E-02 0.26007632E+03</pdfrwt>
<pdfrwt beam="2">  1       21 0.66803320E-01 0.26007632E+03</pdfrwt>
<totfact> 0.39957323E+05</totfact>
</mgrwt>
</event>
<event>
 8    1  0.9705063E-006  0.3927379E+03  0.7546771E-02  0.1046324E+00
         21   -1    0    0  504  503  0.00000000000E+00  0.00000000000E+00  0.24154552446E+03  0.24154552446E+03  0.00000000000E+00 0. -1.
         21   -1    0    0  503  504 -0.00000000000E+00 -0.00000000000E+00 -0.15964180166E+03  0.15964180166E+03  0.00000000000E+00 0. -1.
         25    2    1    2    0    0 -0.41119165632E+02 -0.14858599184E+02  0.18907144716E+03  0.23083155952E+03  0.12499453184E+03 0.  0.
         25    2    1    2    0    0  0.41119165632E+02  0.14858599184E+02 -0.10716772436E+03  0.17035576660E+03  0.12499840926E+03 0.  0.
          5    1    3    3  501    0 -0.20781639923E+02 -0.11275767760E+02  0.20368101067E+03  0.20510256850E+03  0.47000000000E+01 0. -1.
         -5    1    3    3    0  501 -0.20337525709E+02 -0.35828314239E+01 -0.14609563515E+02  0.25728991023E+02  0.47000000000E+01 0. -1.
          5    1    4    4  502    0 -0.42620870669E+02 -0.10379982386E+02 -0.27714067300E+02  0.52100308802E+02  0.47000000000E+01 0.  1.
         -5    1    4    4    0  502  0.83740036300E+02  0.25238581569E+02 -0.79453657059E+02  0.11825545780E+03  0.47000000000E+01 0.  1.
<mgrwt>
<rscale>  0 0.39273789E+03</rscale>
<asrwt>0</asrwt>
<pdfrwt beam="1">  1       21 0.37160850E-01 0.39273789E+03</pdfrwt>
<pdfrwt beam="2">  1       21 0.24560277E-01 0.39273789E+03</pdfrwt>
<totfact> 0.10332543E+05</totfact>
</mgrwt>
</event>
<event>
 8    1  0.9705063E-006  0.3775778E+03  0.7546771E-02  0.1051833E+00
         21   -1    0    0  504  503  0.00000000000E+00  0.00000000000E+00  0.53215228844E+03  0.53215228844E+03  0.00000000000E+00 0. -1.
         21   -1    0    0  503  504 -0.00000000000E+00 -0.00000000000E+00 -0.66975652793E+02  0.66975652793E+02  0.00000000000E+00 0. -1.
         25    2    1    2    0    0 -0.80518085428E+02 -0.11323788984E+03  0.19030655723E+03  0.26673473713E+03  0.12499940998E+03 0.  0.
         25    2    1    2    0    0  0.80518085428E+02  0.11323788984E+03  0.27487007842E+03  0.33239320410E+03  0.12500280134E+03 0.  0.
          5    1    3    3  501    0 -0.62025142643E+02  0.16502168020E+01  0.31338783877E+02  0.69671019156E+02  0.47000000000E+01 0.  1.
         -5    1    3    3    0  501 -0.18492942785E+02 -0.11488810664E+03  0.15896777335E+03  0.19706371798E+03  0.47000000000E+01 0.  1.
          5    1    4    4  502    0 -0.13087672913E+02  0.89014675490E+02  0.13164483005E+03  0.15952225836E+03  0.47000000000E+01 0. -1.
         -5    1    4    4    0  502  0.93605758341E+02  0.24223214347E+02  0.14322524837E+03  0.17287094573E+03  0.47000000000E+01 0. -1.
<mgrwt>
<rscale>  0 0.37757779E+03</rscale>
<asrwt>0</asrwt>
<pdfrwt beam="1">  1       21 0.81869580E-01 0.37757779E+03</pdfrwt>
<pdfrwt beam="2">  1       21 0.10303947E-01 0.37757779E+03</pdfrwt>
<totfact> 0.94803974E+04</totfact>
</mgrwt>
</event>
<event>
 8    1  0.9705063E-006  0.2866020E+03  0.7546771E-02  0.1092137E+00
         21   -1    0    0  504  503  0.00000000000E+00  0.00000000000E+00  0.42611527841E+03  0.42611527841E+03  0.00000000000E+00 0. -1.
         21   -1    0    0  503  504 -0.00000000000E+00 -0.00000000000E+00 -0.48191609860E+02  0.48191609860E+02  0.00000000000E+00 0. -1.
         25    2    1    2    0    0  0.40542480151E+02  0.49053715200E+02  0.23767211014E+03  0.27597618997E+03  0.12499946328E+03 0.  0.
         25    2    1    2    0    0 -0.40542480151E+02 -0.49053715200E+02  0.14025155841E+03  0.19833069830E+03  0.12495841941E+03 0.  0.
          5    1    3    3  501    0  0.20001531026E+02 -0.59112562214E+01  0.20972732017E+03  0.21081423818E+03  0.47000000000E+01 0. -1.
         -5    1    3    3    0  501  0.20540949125E+02  0.54964971421E+02  0.27944789969E+02  0.65161951787E+02  0.47000000000E+01 0. -1.
          5    1    4    4  502    0 -0.29648657455E+02  0.36553980017E+02  0.80132635394E+02  0.93051413741E+02  0.47000000000E+01 0. -1.
         -5    1    4    4    0  502 -0.10893822696E+02 -0.85607695217E+02  0.60118923018E+02  0.10527928456E+03  0.47000000000E+01 0. -1.
<mgrwt>
<rscale>  0 0.28660203E+03</rscale>
<asrwt>0</asrwt>
<pdfrwt beam="1">  1       21 0.65556194E-01 0.28660203E+03</pdfrwt>
<pdfrwt beam="2">  1       21 0.74140941E-02 0.28660203E+03</pdfrwt>
<totfact> 0.28614471E+05</totfact>
</mgrwt>
</event>
<event>
 8    1  0.9705063E-006  0.3336799E+03  0.7546771E-02  0.1069520E+00
         21   -1    0    0  504  503  0.00000000000E+00  0.00000000000E+00  0.11772332082E+03  0.11772332082E+03  0.00000000000E+00 0. -1.
         21   -1    0    0  503  504 -0.00000000000E+00 -0.00000000000E+00 -0.23644905178E+03  0.23644905178E+03  0.00000000000E+00 0. -1.
         25    2    1    2    0    0 -0.77093046618E+02 -0.73970399981E+02 -0.29437369682E+02  0.16705381157E+03  0.12500183725E+03 0.  0.
         25    2    1    2    0    0  0.77093046618E+02  0.73970399981E+02 -0.89288361281E+02  0.18711856103E+03  0.12500394599E+03 0.  0.
          5    1    3    3  501    0 -0.40776323825E+02 -0.10560309359E+03 -0.34407373847E+02  0.11840894956E+03  0.47000000000E+01 0.  1.
         -5    1    3    3    0  501 -0.36316722794E+02  0.31632693606E+02  0.49700041655E+01  0.48644862017E+02  0.47000000000E+01 0.  1.
          5    1    4    4  502    0  0.37126485130E+01  0.78065960813E+02 -0.81577870708E+02  0.11307129161E+03  0.47000000000E+01 0.  1.
         -5    1    4    4    0  502  0.73380398105E+02 -0.40955608318E+01 -0.77104905733E+01  0.74047269426E+02  0.47000000000E+01 0.  1.
<mgrwt>
<rscale>  0 0.33367989E+03</rscale>
<asrwt>0</asrwt>
<pdfrwt beam="1">  1       21 0.18111280E-01 0.33367989E+03</pdfrwt>
<pdfrwt beam="2">  1       21 0.36376777E-01 0.33367989E+03</pdfrwt>
<totfact> 0.19509048E+05</totfact>
</mgrwt>
</event>
<event>
 8    1  0.9705063E-006  0.2634976E+03  0.7546771E-02  0.1105060E+00
         21   -1    0    0  504  503  0.00000000000E+00  0.00000000000E+00  0.41918551115E+03  0.41918551115E+03  0.00000000000E+00 0.  1.
         21   -1    0    0  503  504 -0.00000000000E+00 -0.00000000000E+00 -0.41408262768E+02  0.41408262768E+02  0.00000000000E+00 0.  1.
         25    2    1    2    0    0 -0.39462853786E+02 -0.13265415444E+02  0.18708769933E+03  0.22881848504E+03  0.12499121481E+03 0.  0.
         25    2    1    2    0    0  0.39462853786E+02  0.13265415444E+02  0.19068954905E+03  0.23177528888E+03  0.12499596930E+03 0.  0.
          5    1    3    3  501    0  0.21321219268E+02  0.23426989059E+02  0.13970957963E+03  0.14333274171E+03  0.47000000000E+01 0.  1.
         -5    1    3    3    0  501 -0.60784073054E+02 -0.36692404504E+02  0.47378119707E+02  0.85485743328E+02  0.47000000000E+01 0.  1.
          5    1    4    4  502    0  0.56038406552E+02 -0.64103375130E+01  0.19691823785E+03  0.20489089251E+03  0.47000000000E+01 0. -1.
         -5    1    4    4    0  502 -0.16575552766E+02  0.19675752957E+02 -0.62286887999E+01  0.26884396368E+02  0.47000000000E+01 0. -1.
<mgrwt>
<rscale>  0 0.26349758E+03</rscale>
<asrwt>0</asrwt>
<pdfrwt beam="1">  1       21 0.64490076E-01 0.26349758E+03</pdfrwt>
<pdfrwt beam="2">  1       21 0.63705022E-02 0.26349758E+03</pdfrwt>
<totfact> 0.38806263E+05</totfact>
</mgrwt>
</event>
<event>
 8    1  0.9705063E-006  0.2628670E+03  0.7546771E-02  0.1105433E+00
         21   -1    0    0  504  503  0.00000000000E+00  0.00000000000E+00  0.39224063535E+02  0.39224063535E+02  0.00000000000E+00 0. -1.
         21   -1    0    0  503  504 -0.00000000000E+00 -0.00000000000E+00 -0.44041233840E+03  0.44041233840E+03  0.00000000000E+00 0. -1.
         25    2    1    2    0    0  0.30379242661E+02  0.27951025700E+01 -0.24953370133E+03  0.28075350407E+03  0.12499900386E+03 0.  0.
         25    2    1    2    0    0 -0.30379242661E+02 -0.27951025700E+01 -0.15165457354E+03  0.19888289787E+03  0.12499834561E+03 0.  0.
          5    1    3    3  501    0  0.53174658250E+02 -0.87422962169E+01 -0.24896086525E+03  0.25476964978E+03  0.47000000000E+01 0.  1.
         -5    1    3    3    0  501 -0.22795415588E+02  0.11537398787E+02 -0.57283608025E+00  0.25983854290E+02  0.47000000000E+01 0.  1.
          5    1    4    4  502    0 -0.16059634961E+02  0.24666946716E+02 -0.16289639464E+03  0.16560101305E+03  0.47000000000E+01 0. -1.
         -5    1    4    4    0  502 -0.14319607700E+02 -0.27462049286E+02  0.11241821100E+02  0.33281884822E+02  0.47000000000E+01 0. -1.
<mgrwt>
<rscale>  0 0.26286697E+03</rscale>
<asrwt>0</asrwt>
<pdfrwt beam="1">  1       21 0.60344712E-02 0.26286697E+03</pdfrwt>
<pdfrwt beam="2">  1       21 0.67755746E-01 0.26286697E+03</pdfrwt>
<totfact> 0.38229349E+05</totfact>
</mgrwt>
</event>
<event>
 8    1  0.9705063E-006  0.4834271E+03  0.7546771E-02  0.1018198E+00
         21   -1    0    0  504  503  0.00000000000E+00  0.00000000000E+00  0.91386605425E+03  0.91386605425E+03  0.00000000000E+00 0.  1.
         21   -1    0    0  503  504 -0.00000000000E+00 -0.00000000000E+00 -0.63932169791E+02  0.63932169791E+02  0.00000000000E+00 0.  1.
         25    2    1    2    0    0  0.17327316143E+03  0.10680390897E+03  0.49982978011E+03  0.55397324257E+03  0.12500352378E+03 0.  0.
         25    2    1    2    0    0 -0.17327316143E+03 -0.10680390897E+03  0.35010410436E+03  0.42382498148E+03  0.12499627033E+03 0.  0.
          5    1    3    3  501    0  0.14171631804E+02  0.40734195449E+02  0.22818248749E+03  0.23227020348E+03  0.47000000000E+01 0. -1.
         -5    1    3    3    0  501  0.15910152962E+03  0.66069713521E+02  0.27164729262E+03  0.32170303909E+03  0.47000000000E+01 0. -1.
          5    1    4    4  502    0 -0.78838385672E+02 -0.11687393407E+02  0.47669501435E+02  0.92986867821E+02  0.47000000000E+01 0.  1.
         -5    1    4    4    0  502 -0.94434775754E+02 -0.95116515563E+02  0.30243460292E+03  0.33083811366E+03  0.47000000000E+01 0.  1.
<mgrwt>
<rscale>  0 0.48342710E+03</rscale>
<asrwt>0</asrwt>
<pdfrwt beam="1">  1       21 0.14059477E+00 0.48342710E+03</pdfrwt>
<pdfrwt beam="2">  1       21 0.98357191E-02 0.48342710E+03</pdfrwt>
<totfact> 0.26387092E+04</totfact>
</mgrwt>
</event>
<event>
 8    1  0.9705063E-006  0.5495836E+03  0.7546771E-02  0.1001590E+00
         21   -1    0    0  504  503  0.00000000000E+00  0.00000000000E+00  0.14168668816E+03  0.14168668816E+03  0.00000000000E+00 0.  1.
         21   -1    0    0  503  504 -0.00000000000E+00 -0.00000000000E+00 -0.53294015798E+03  0.53294015798E+03  0.00000000000E+00 0.  1.
         25    2    1    2    0    0 -0.16327392491E+03  0.17286883040E+03 -0.12461246201E+03  0.29612413957E+03  0.12497693094E+03 0.  0.
         25    2    1    2    0    0  0.16327392491E+03 -0.17286883040E+03 -0.26664100781E+03  0.37850270658E+03  0.12499945905E+03 0.  0.
          5    1    3    3  501    0 -0.62021612591E+02  0.61613160991E+02  0.17324385149E+02  0.89247332489E+02  0.47000000000E+01 0.  1.
         -5    1    3    3    0  501 -0.10125231232E+03  0.11125566941E+03 -0.14193684716E+03  0.20687680708E+03  0.47000000000E+01 0.  1.
          5    1    4    4  502    0  0.17540775167E+03 -0.17665207116E+03 -0.26681993906E+03  0.36495041235E+03  0.47000000000E+01 0. -1.
         -5    1    4    4    0  502 -0.12133826762E+02  0.37832407635E+01  0.17893125050E+00  0.13552294232E+02  0.47000000000E+01 0. -1.
<mgrwt>
<rscale>  0 0.54958357E+03</rscale>
<asrwt>0</asrwt>
<pdfrwt beam="1">  1       21 0.21797952E-01 0.54958357E+03</pdfrwt>
<pdfrwt beam="2">  1       21 0.81990795E-01 0.54958357E+03</pdfrwt>
<totfact> 0.22615545E+04</totfact>
</mgrwt>
</event>
<event>
 8    1  0.9705063E-006  0.3292109E+03  0.7546771E-02  0.1071487E+00
         21   -1    0    0  504  503  0.00000000000E+00  0.00000000000E+00  0.14314809212E+03  0.14314809212E+03  0.00000000000E+00 0. -1.
         21   -1    0    0  503  504 -0.00000000000E+00 -0.00000000000E+00 -0.18927920979E+03  0.18927920979E+03  0.00000000000E+00 0. -1.
         25    2    1    2    0    0  0.67153967551E+02  0.69048471877E+01  0.60890299858E+02  0.15456123330E+03  0.12499685576E+03 0.  0.
         25    2    1    2    0    0 -0.67153967551E+02 -0.69048471877E+01 -0.10702141752E+03  0.17786606861E+03  0.12500168912E+03 0.  0.
          5    1    3    3  501    0  0.43412464089E+02 -0.31291854321E+02 -0.23643181002E+02  0.58693374354E+02  0.47000000000E+01 0. -1.
         -5    1    3    3    0  501  0.23741503462E+02  0.38196701509E+02  0.84533480860E+02  0.95867858947E+02  0.47000000000E+01 0. -1.
          5    1    4    4  502    0  0.14188116403E+02 -0.30580366618E+02  0.79716661609E+01  0.34958531590E+02  0.47000000000E+01 0.  1.
         -5    1    4    4    0  502 -0.81342083954E+02  0.23675519431E+02 -0.11499308368E+03  0.14290753702E+03  0.47000000000E+01 0.  1.
<mgrwt>
<rscale>  0 0.32921092E+03</rscale>
<asrwt>0</asrwt>
<pdfrwt beam="1">  1       21 0.22022784E-01 0.32921092E+03</pdfrwt>
<pdfrwt beam="2">  1       21 0.29119878E-01 0.32921092E+03</pdfrwt>
<totfact> 0.21020265E+05</totfact>
</mgrwt>
</event>
<event>
 8    1  0.9705063E-006  0.3800582E+03  0.7546771E-02  0.1050912E+00
         21   -1    0    0  504  503  0.00000000000E+00  0.00000000000E+00  0.22022997345E+03  0.22022997345E+03  0.00000000000E+00 0. -1.
         21   -1    0    0  503  504 -0.00000000000E+00 -0.00000000000E+00 -0.16396981241E+03  0.16396981241E+03  0.00000000000E+00 0. -1.
         25    2    1    2    0    0  0.55198960729E+02  0.82919782950E+02  0.13203169707E+03  0.20731609294E+03  0.12499991076E+03 0.  0.
         25    2    1    2    0    0 -0.55198960729E+02 -0.82919782950E+02 -0.75771536029E+02  0.17688369292E+03  0.12499559784E+03 0.  0.
          5    1    3    3  501    0  0.58039794432E+02  0.23409018148E+02  0.13351993242E+03  0.14753393583E+03  0.47000000000E+01 0.  1.
         -5    1    3    3    0  501 -0.28408337033E+01  0.59510764803E+02 -0.14882353545E+01  0.59782157104E+02  0.47000000000E+01 0.  1.
          5    1    4    4  502    0  0.38580873727E+02 -0.42529766665E+02 -0.26795309275E+02  0.63540093400E+02  0.47000000000E+01 0. -1.
         -5    1    4    4    0  502 -0.93779834456E+02 -0.40390016285E+02 -0.48976226753E+02  0.11334359952E+03  0.47000000000E+01 0. -1.
<mgrwt>
<rscale>  0 0.38005825E+03</rscale>
<asrwt>0</asrwt>
<pdfrwt beam="1">  1       21 0.33881534E-01 0.38005825E+03</pdfrwt>
<pdfrwt beam="2">  1       21 0.25226125E-01 0.38005825E+03</pdfrwt>
<totfact> 0.11855039E+05</totfact>
</mgrwt>
</event>
<event>
 8    1  0.9705063E-006  0.3706808E+03  0.7546771E-02  0.1054433E+00
         21   -1    0    0  504  503  0.00000000000E+00  0.00000000000E+00  0.62901948055E+03  0.62901948055E+03  0.00000000000E+00 0. -1.
         21   -1    0    0  503  504 -0.00000000000E+00 -0.00000000000E+00 -0.54610482141E+02  0.54610482141E+02  0.00000000000E+00 0. -1.
         25    2    1    2    0    0  0.38505096810E+02  0.94467923538E+02  0.11898764438E+03  0.20047569213E+03  0.12500245022E+03 0.  0.
         25    2    1    2    0    0 -0.38505096810E+02 -0.94467923538E+02  0.45542135403E+03  0.48315427057E+03  0.12499043324E+03 0.  0.
          5    1    3    3  501    0  0.59049141424E+02  0.17673417888E+01  0.18354517846E+02  0.62039527120E+02  0.47000000000E+01 0. -1.
         -5    1    3    3    0  501 -0.20544044614E+02  0.92700581749E+02  0.10063312654E+03  0.13843616501E+03  0.47000000000E+01 0. -1.
          5    1    4    4  502    0 -0.64166683181E+02 -0.45279624503E+02  0.38712197686E+03  0.39503559662E+03  0.47000000000E+01 0. -1.
         -5    1    4    4    0  502  0.25661586371E+02 -0.49188299034E+02  0.68299377168E+02  0.88118673949E+02  0.47000000000E+01 0. -1.
<mgrwt>
<rscale>  0 0.37068076E+03</rscale>
<asrwt>0</asrwt>
<pdfrwt beam="1">  1       21 0.96772223E-01 0.37068076E+03</pdfrwt>
<pdfrwt beam="2">  1       21 0.84016131E-02 0.37068076E+03</pdfrwt>
<totfact> 0.92216970E+04</totfact>
</mgrwt>
</event>
<event>
 8    1  0.9705063E-006  0.2922723E+03  0.7546771E-02  0.1089169E+00
         21   -1    0    0  504  503  0.00000000000E+00  0.00000000000E+00  0.74718175284E+02  0.74718175284E+02  0.00000000000E+00 0. -1.
         21   -1    0    0  503  504 -0.00000000000E+00 -0.00000000000E+00 -0.28581768650E+03  0.28581768650E+03  0.00000000000E+00 0. -1.
         25    2    1    2    0    0  0.37368580050E+02  0.13856105092E+02 -0.18494576624E+03  0.22675645549E+03  0.12500060493E+03 0.  0.
         25    2    1    2    0    0 -0.37368580050E+02 -0.13856105092E+02 -0.26153744982E+02  0.13377940630E+03  0.12499803498E+03 0.  0.
          5    1    3    3  501    0  0.69297961415E+02  0.23862276244E+02 -0.17758894269E+03  0.19217580037E+03  0.47000000000E+01 0. -1.
         -5    1    3    3    0  501 -0.31929381365E+02 -0.10006171152E+02 -0.73568235471E+01  0.34580655115E+02  0.47000000000E+01 0. -1.
          5    1    4    4  502    0  0.31179523373E+02  0.34295751010E+02 -0.27248727217E+01  0.46667720605E+02  0.47000000000E+01 0.  1.
         -5    1    4    4    0  502 -0.68548103423E+02 -0.48151856102E+02 -0.23428872261E+02  0.87111685694E+02  0.47000000000E+01 0.  1.
<mgrwt>
<rscale>  0 0.29227231E+03</rscale>
<asrwt>0</asrwt>
<pdfrwt beam="1">  1       21 0.11495104E-01 0.29227231E+03</pdfrwt>
<pdfrwt beam="2">  1       21 0.43971952E-01 0.29227231E+03</pdfrwt>
<totfact> 0.30758540E+05</totfact>
</mgrwt>
</event>
<event>
 8    1  0.9705063E-006  0.4706924E+03  0.7546771E-02  0.1021725E+00
         21   -1    0    0  504  503  0.00000000000E+00  0.00000000000E+00  0.38240890735E+03  0.38240890735E+03  0.00000000000E+00 0. -1.
         21   -1    0    0  503  504 -0.00000000000E+00 -0.00000000000E+00 -0.14483929455E+03  0.14483929455E+03  0.00000000000E+00 0. -1.
         25    2    1    2    0    0  0.53179412943E+02 -0.16880976218E+03  0.15858281668E+02  0.21725634779E+03  0.12499619911E+03 0.  0.
         25    2    1    2    0    0 -0.53179412943E+02  0.16880976218E+03  0.22171133113E+03  0.30999185411E+03  0.12495699059E+03 0.  0.
          5    1    3    3  501    0  0.25603205591E+02 -0.99591568289E+00  0.37600958922E+02  0.45743175409E+02  0.47000000000E+01 0.  1.
         -5    1    3    3    0  501  0.27576207352E+02 -0.16781384649E+03 -0.21742677254E+02  0.17151317238E+03  0.47000000000E+01 0.  1.
          5    1    4    4  502    0 -0.62449787909E+02  0.17768801954E+02  0.61307815514E+02  0.89422841466E+02  0.47000000000E+01 0.  1.
         -5    1    4    4    0  502  0.92703749657E+01  0.15104096022E+03  0.16040351562E+03  0.22056901265E+03  0.47000000000E+01 0.  1.
<mgrwt>
<rscale>  0 0.47069241E+03</rscale>
<asrwt>0</asrwt>
<pdfrwt beam="1">  1       21 0.58832139E-01 0.47069241E+03</pdfrwt>
<pdfrwt beam="2">  1       21 0.22282969E-01 0.47069241E+03</pdfrwt>
<totfact> 0.46612191E+04</totfact>
</mgrwt>
</event>
<event>
 8    1  0.9705063E-006  0.2712909E+03  0.7546771E-02  0.1100543E+00
         21   -1    0    0  504  503  0.00000000000E+00  0.00000000000E+00  0.99606390332E+02  0.99606390332E+02  0.00000000000E+00 0.  1.
         21   -1    0    0  503  504 -0.00000000000E+00 -0.00000000000E+00 -0.18472403038E+03  0.18472403038E+03  0.00000000000E+00 0.  1.
         25    2    1    2    0    0 -0.53716200881E+01  0.20957536555E+01 -0.97401929605E+02  0.15857324633E+03  0.12500036830E+03 0.  0.
         25    2    1    2    0    0  0.53716200881E+01 -0.20957536555E+01  0.12284289558E+02  0.12575717438E+03  0.12502286452E+03 0.  0.
          5    1    3    3  501    0  0.16059570571E+01  0.63087841826E+02 -0.44059488609E+02  0.77110203092E+02  0.47000000000E+01 0. -1.
         -5    1    3    3    0  501 -0.69775771452E+01 -0.60992088170E+02 -0.53342440996E+02  0.81463043238E+02  0.47000000000E+01 0. -1.
          5    1    4    4  502    0 -0.24024591975E+02 -0.55866662895E+02 -0.68689746221E+01  0.61380272523E+02  0.47000000000E+01 0. -1.
         -5    1    4    4    0  502  0.29396212063E+02  0.53770909240E+02  0.19153264180E+02  0.64376901858E+02  0.47000000000E+01 0. -1.
<mgrwt>
<rscale>  0 0.27129094E+03</rscale>
<asrwt>0</asrwt>
<pdfrwt beam="1">  1       21 0.15324060E-01 0.27129094E+03</pdfrwt>
<pdfrwt beam="2">  1       21 0.28419081E-01 0.27129094E+03</pdfrwt>
<totfact> 0.43959459E+05</totfact>
</mgrwt>
</event>
<event>
 8    1  0.9705063E-006  0.4687634E+03  0.7546771E-02  0.1022270E+00
         21   -1    0    0  504  503  0.00000000000E+00  0.00000000000E+00  0.27745421993E+02  0.27745421993E+02  0.00000000000E+00 0.  1.
         21   -1    0    0  503  504 -0.00000000000E+00 -0.00000000000E+00 -0.19799585113E+04  0.19799585113E+04  0.00000000000E+00 0.  1.
         25    2    1    2    0    0 -0.17189717868E+03 -0.25281289976E+00 -0.55294844187E+03  0.59238947995E+03  0.12499845054E+03 0.  0.
         25    2    1    2    0    0  0.17189717868E+03  0.25281289976E+00 -0.13992646475E+04  0.14153144534E+04  0.12499897728E+03 0.  0.
          5    1    3    3  501    0 -0.52612118053E+01  0.33382310024E+02 -0.16981973875E+03  0.17321343089E+03  0.47000000000E+01 0. -1.
         -5    1    3    3    0  501 -0.16663596687E+03 -0.33635122924E+02 -0.38312870312E+03  0.41917604906E+03  0.47000000000E+01 0. -1.
          5    1    4    4  502    0  0.28622164075E+02 -0.30509287640E+02 -0.11067515767E+03  0.11841083326E+03  0.47000000000E+01 0.  1.
         -5    1    4    4    0  502  0.14327501460E+03  0.30762100539E+02 -0.12885894898E+04  0.12969036201E+04  0.47000000000E+01 0.  1.
<mgrwt>
<rscale>  0 0.46876341E+03</rscale>
<asrwt>0</asrwt>
<pdfrwt beam="1">  1       21 0.42685252E-02 0.46876341E+03</pdfrwt>
<pdfrwt beam="2">  1       21 0.30460909E+00 0.46876341E+03</pdfrwt>
<totfact> 0.93925663E+03</totfact>
</mgrwt>
</event>
<event>
 8    1  0.9705063E-006  0.2578275E+03  0.7546771E-02  0.1108456E+00
         21   -1    0    0  504  503  0.00000000000E+00  0.00000000000E+00  0.46428121130E+03  0.46428121130E+03  0.00000000000E+00 0. -1.
         21   -1    0    0  503  504 -0.00000000000E+00 -0.00000000000E+00 -0.35794594813E+02  0.35794594813E+02  0.00000000000E+00 0. -1.
         25    2    1    2    0    0 -0.23430811312E+02  0.14944678794E+02  0.24316260522E+03  0.27481687344E+03  0.12499565994E+03 0.  0.
         25    2    1    2    0    0  0.23430811312E+02 -0.14944678794E+02  0.18532401126E+03  0.22525893268E+03  0.12499700499E+03 0.  0.
          5    1    3    3  501    0 -0.39213655996E+02 -0.15666132126E+02  0.23539694630E+03  0.23920064974E+03  0.47000000000E+01 0.  1.
         -5    1    3    3    0  501  0.15782844684E+02  0.30610810920E+02  0.77656589268E+01  0.35616223692E+02  0.47000000000E+01 0.  1.
          5    1    4    4  502    0  0.32773184601E+02 -0.53322425379E+02  0.17234437812E+03  0.18341765822E+03  0.47000000000E+01 0.  1.
         -5    1    4    4    0  502 -0.93423732886E+01  0.38377746585E+02  0.12979633143E+02  0.41841274456E+02  0.47000000000E+01 0.  1.
<mgrwt>
<rscale>  0 0.25782752E+03</rscale>
<asrwt>0</asrwt>
<pdfrwt beam="1">  1       21 0.71427874E-01 0.25782752E+03</pdfrwt>
<pdfrwt beam="2">  1       21 0.55068611E-02 0.25782752E+03</pdfrwt>
<totfact> 0.39837092E+05</totfact>
</mgrwt>
</event>
<event>
 8    1  0.9705063E-006  0.2698617E+03  0.7546771E-02  0.1101359E+00
         21   -1    0    0  504  503  0.00000000000E+00  0.00000000000E+00  0.12435664315E+03  0.12435664315E+03  0.00000000000E+00 0.  1.
         21   -1    0    0  503  504 -0.00000000000E+00 -0.00000000000E+00 -0.14640424451E+03  0.14640424451E+03  0.00000000000E+00 0.  1.
         25    2    1    2    0    0 -0.47191651937E+01  0.36839463551E+00 -0.61785300062E+02  0.13950826650E+03  0.12499090720E+03 0.  0.
         25    2    1    2    0    0  0.47191651937E+01 -0.36839463551E+00  0.39737698704E+02  0.13125262116E+03  0.12500303848E+03 0.  0.
          5    1    3    3  501    0  0.48829259890E+02 -0.13291058940E+02 -0.66667963909E+02  0.83831117618E+02  0.47000000000E+01 0. -1.
         -5    1    3    3    0  501 -0.53548425084E+02  0.13659453575E+02  0.48826638478E+01  0.55677148878E+02  0.47000000000E+01 0. -1.
          5    1    4    4  502    0  0.53389390194E+02  0.32243460450E+02  0.36435210499E+02  0.72385649760E+02  0.47000000000E+01 0.  1.
         -5    1    4    4    0  502 -0.48670225000E+02 -0.32611855086E+02  0.33024882047E+01  0.58866971402E+02  0.47000000000E+01 0.  1.
<mgrwt>
<rscale>  0 0.26986175E+03</rscale>
<asrwt>0</asrwt>
<pdfrwt beam="1">  1       21 0.19131791E-01 0.26986175E+03</pdfrwt>
<pdfrwt beam="2">  1       21 0.22523730E-01 0.26986175E+03</pdfrwt>
<totfact> 0.45594686E+05</totfact>
</mgrwt>
</event>
<event>
 8    1  0.9705063E-006  0.2714813E+03  0.7546771E-02  0.1100435E+00
         21   -1    0    0  504  503  0.00000000000E+00  0.00000000000E+00  0.72809836880E+02  0.72809836880E+02  0.00000000000E+00 0.  1.
         21   -1    0    0  503  504 -0.00000000000E+00 -0.00000000000E+00 -0.25306360826E+03  0.25306360826E+03  0.00000000000E+00 0.  1.
         25    2    1    2    0    0 -0.30091303223E+01 -0.45107286280E+02 -0.12314939935E+03  0.18120008518E+03  0.12499589661E+03 0.  0.
         25    2    1    2    0    0  0.30091303223E+01  0.45107286280E+02 -0.57104372034E+02  0.14467335996E+03  0.12500299851E+03 0.  0.
          5    1    3    3  501    0  0.24697039573E+02 -0.65342050624E+02 -0.12833018955E+03  0.14618568635E+03  0.47000000000E+01 0.  1.
         -5    1    3    3    0  501 -0.27706169895E+02  0.20234764344E+02  0.51807902024E+01  0.35014398830E+02  0.47000000000E+01 0.  1.
          5    1    4    4  502    0  0.11725380400E+02  0.87827422640E+02 -0.33282504847E+02  0.94767905126E+02  0.47000000000E+01 0.  1.
         -5    1    4    4    0  502 -0.87162500775E+01 -0.42720136361E+02 -0.23821867187E+02  0.49905454836E+02  0.47000000000E+01 0.  1.
<mgrwt>
<rscale>  0 0.27148127E+03</rscale>
<asrwt>0</asrwt>
<pdfrwt beam="1">  1       21 0.11201513E-01 0.27148127E+03</pdfrwt>
<pdfrwt beam="2">  1       21 0.38932863E-01 0.27148127E+03</pdfrwt>
<totfact> 0.41512776E+05</totfact>
</mgrwt>
</event>
<event>
 8    1  0.9705063E-006  0.2838630E+03  0.7546771E-02  0.1093598E+00
         21   -1    0    0  504  503  0.00000000000E+00  0.00000000000E+00  0.80130539177E+03  0.80130539177E+03  0.00000000000E+00 0. -1.
         21   -1    0    0  503  504 -0.00000000000E+00 -0.00000000000E+00 -0.25139675346E+02  0.25139675346E+02  0.00000000000E+00 0. -1.
         25    2    1    2    0    0  0.31451054792E+02 -0.56133006915E+02  0.33131292500E+03  0.35990346372E+03  0.12498866196E+03 0.  0.
         25    2    1    2    0    0 -0.31451054792E+02  0.56133006915E+02  0.44485279143E+03  0.46654160339E+03  0.12500791311E+03 0.  0.
          5    1    3    3  501    0 -0.45495606946E+02 -0.31835106952E+01  0.87823452625E+02  0.99070852538E+02  0.47000000000E+01 0. -1.
         -5    1    3    3    0  501  0.76946661738E+02 -0.52949496220E+02  0.24348947237E+03  0.26083261119E+03  0.47000000000E+01 0. -1.
          5    1    4    4  502    0 -0.39165757367E+02 -0.22947043937E+02  0.71676148550E+02  0.84971075352E+02  0.47000000000E+01 0.  1.
         -5    1    4    4    0  502  0.77147025747E+01  0.79080050852E+02  0.37317664288E+03  0.38157052804E+03  0.47000000000E+01 0.  1.
<mgrwt>
<rscale>  0 0.28386305E+03</rscale>
<asrwt>0</asrwt>
<pdfrwt beam="1">  1       21 0.12327773E+00 0.28386305E+03</pdfrwt>
<pdfrwt beam="2">  1       21 0.38676430E-02 0.28386305E+03</pdfrwt>
<totfact> 0.19868234E+05</totfact>
</mgrwt>
</event>
<event>
 8    1  0.9705063E-006  0.2848368E+03  0.7546771E-02  0.1093076E+00
         21   -1    0    0  504  503  0.00000000000E+00  0.00000000000E+00  0.46703251505E+02  0.46703251505E+02  0.00000000000E+00 0.  1.
         21   -1    0    0  503  504 -0.00000000000E+00 -0.00000000000E+00 -0.43429530213E+03  0.43429530213E+03  0.00000000000E+00 0.  1.
         25    2    1    2    0    0 -0.20829562822E+02  0.64784192453E+02 -0.18498805287E+03  0.23340203897E+03  0.12500027925E+03 0.  0.
         25    2    1    2    0    0  0.20829562822E+02 -0.64784192453E+02 -0.20260399775E+03  0.24759651466E+03  0.12499916754E+03 0.  0.
          5    1    3    3  501    0 -0.60934714465E+02  0.72080728967E+02 -0.15858577966E+03  0.18460826208E+03  0.47000000000E+01 0.  1.
         -5    1    3    3    0  501  0.40105151643E+02 -0.72965365136E+01 -0.26402273206E+02  0.48793776897E+02  0.47000000000E+01 0.  1.
          5    1    4    4  502    0 -0.27314925881E+02 -0.49193138834E+02 -0.18560759017E+03  0.19400602468E+03  0.47000000000E+01 0. -1.
         -5    1    4    4    0  502  0.48144488703E+02 -0.15591053619E+02 -0.16996407586E+02  0.53590489979E+02  0.47000000000E+01 0. -1.
<mgrwt>
<rscale>  0 0.28483681E+03</rscale>
<asrwt>0</asrwt>
<pdfrwt beam="1">  1       21 0.71851159E-02 0.28483681E+03</pdfrwt>
<pdfrwt beam="2">  1       21 0.66814659E-01 0.28483681E+03</pdfrwt>
<totfact> 0.28995620E+05</totfact>
</mgrwt>
</event>
<event>
 8    1  0.9705063E-006  0.2594278E+03  0.7546771E-02  0.1107488E+00
         21   -1    0    0  504  503  0.00000000000E+00  0.00000000000E+00  0.26176273126E+02  0.26176273126E+02  0.00000000000E+00 0. -1.
         21   -1    0    0  503  504 -0.00000000000E+00 -0.00000000000E+00 -0.64278407141E+03  0.64278407141E+03  0.00000000000E+00 0. -1.
         25    2    1    2    0    0  0.25575577982E+02  0.15311915123E+02 -0.35389972153E+03  0.37650787069E+03  0.12499839541E+03 0.  0.
         25    2    1    2    0    0 -0.25575577982E+02 -0.15311915123E+02 -0.26270807675E+03  0.29245247385E+03  0.12499740371E+03 0.  0.
          5    1    3    3  501    0  0.51418507516E+02 -0.25230336441E+02 -0.80703718630E+02  0.99073775505E+02  0.47000000000E+01 0. -1.
         -5    1    3    3    0  501 -0.25842929533E+02  0.40542251564E+02 -0.27319600290E+03  0.27743409518E+03  0.47000000000E+01 0. -1.
          5    1    4    4  502    0 -0.75841185890E+02 -0.64677959883E+01 -0.13897325042E+03  0.15852246590E+03  0.47000000000E+01 0. -1.
         -5    1    4    4    0  502  0.50265607908E+02 -0.88441191347E+01 -0.12373482633E+03  0.13393000795E+03  0.47000000000E+01 0. -1.
<mgrwt>
<rscale>  0 0.25942777E+03</rscale>
<asrwt>0</asrwt>
<pdfrwt beam="1">  1       21 0.40271194E-02 0.25942777E+03</pdfrwt>
<pdfrwt beam="2">  1       21 0.98889847E-01 0.25942777E+03</pdfrwt>
<totfact> 0.32063464E+05</totfact>
</mgrwt>
</event>
<event>
 8    1  0.9705063E-006  0.3167960E+03  0.7546771E-02  0.1077133E+00
         21   -1    0    0  504  503  0.00000000000E+00  0.00000000000E+00  0.27220050030E+03  0.27220050030E+03  0.00000000000E+00 0. -1.
         21   -1    0    0  503  504 -0.00000000000E+00 -0.00000000000E+00 -0.92174425069E+02  0.92174425069E+02  0.00000000000E+00 0. -1.
         25    2    1    2    0    0 -0.77051834484E+02 -0.49533719355E+02  0.12771714505E+03  0.20081500614E+03  0.12499769199E+03 0.  0.
         25    2    1    2    0    0  0.77051834484E+02  0.49533719355E+02  0.52308930181E+02  0.16355991922E+03  0.12500019380E+03 0.  0.
          5    1    3    3  501    0 -0.85795746051E+02 -0.68032902829E+01  0.25981020838E+02  0.90023875960E+02  0.47000000000E+01 0. -1.
         -5    1    3    3    0  501  0.87439115666E+01 -0.42730429072E+02  0.10173612421E+03  0.11079113018E+03  0.47000000000E+01 0. -1.
          5    1    4    4  502    0  0.47408041145E+02  0.42056423482E+01  0.86852188194E+02  0.99149394284E+02  0.47000000000E+01 0. -1.
         -5    1    4    4    0  502  0.29643793339E+02  0.45328077007E+02 -0.34543258013E+02  0.64410524938E+02  0.47000000000E+01 0. -1.
<mgrwt>
<rscale>  0 0.31679599E+03</rscale>
<asrwt>0</asrwt>
<pdfrwt beam="1">  1       21 0.41877000E-01 0.31679599E+03</pdfrwt>
<pdfrwt beam="2">  1       21 0.14180681E-01 0.31679599E+03</pdfrwt>
<totfact> 0.23116672E+05</totfact>
</mgrwt>
</event>
<event>
 8    1  0.9705063E-006  0.2707516E+03  0.7546771E-02  0.1100850E+00
         21   -1    0    0  504  503  0.00000000000E+00  0.00000000000E+00  0.12296070370E+03  0.12296070370E+03  0.00000000000E+00 0.  1.
         21   -1    0    0  503  504 -0.00000000000E+00 -0.00000000000E+00 -0.14904447611E+03  0.14904447611E+03  0.00000000000E+00 0.  1.
         25    2    1    2    0    0  0.12241120107E+02 -0.50154755808E+02 -0.19105882377E+02  0.13658165968E+03  0.12499668182E+03 0.  0.
         25    2    1    2    0    0 -0.12241120107E+02  0.50154755808E+02 -0.69778900308E+01  0.13542352013E+03  0.12500197719E+03 0.  0.
          5    1    3    3  501    0  0.28253332268E+02  0.25986252522E+02 -0.40248134318E+02  0.55817008344E+02  0.47000000000E+01 0.  1.
         -5    1    3    3    0  501 -0.16012212161E+02 -0.76141008330E+02  0.21142251941E+02  0.80764651333E+02  0.47000000000E+01 0.  1.
          5    1    4    4  502    0 -0.56909966542E+02  0.65790003637E+02  0.14275395938E+01  0.87127474080E+02  0.47000000000E+01 0. -1.
         -5    1    4    4    0  502  0.44668846435E+02 -0.15635247829E+02 -0.84054296246E+01  0.48296046046E+02  0.47000000000E+01 0. -1.
<mgrwt>
<rscale>  0 0.27075165E+03</rscale>
<asrwt>0</asrwt>
<pdfrwt beam="1">  1       21 0.18917031E-01 0.27075165E+03</pdfrwt>
<pdfrwt beam="2">  1       21 0.22929919E-01 0.27075165E+03</pdfrwt>
<totfact> 0.45002872E+05</totfact>
</mgrwt>
</event>
<event>
 8    1  0.9705063E-006  0.3368475E+03  0.7546771E-02  0.1068147E+00
         21   -1    0    0  504  503  0.00000000000E+00  0.00000000000E+00  0.23541269532E+03  0.23541269532E+03  0.00000000000E+00 0. -1.
         21   -1    0    0  503  504 -0.00000000000E+00 -0.00000000000E+00 -0.12049718189E+03  0.12049718189E+03  0.00000000000E+00 0. -1.
         25    2    1    2    0    0 -0.63451350858E+02  0.42582529735E+02 -0.30326856725E+02  0.14961112706E+03  0.12499770133E+03 0.  0.
         25    2    1    2    0    0  0.63451350858E+02 -0.42582529735E+02  0.14524237015E+03  0.20629875014E+03  0.12499792982E+03 0.  0.
          5    1    3    3  501    0 -0.72789027784E+02  0.71941213035E+02  0.49140572394E+01  0.10256714219E+03  0.47000000000E+01 0.  1.
         -5    1    3    3    0  501  0.93376769253E+01 -0.29358683300E+02 -0.35240913964E+02  0.47043984870E+02  0.47000000000E+01 0.  1.
          5    1    4    4  502    0  0.56805192382E+02 -0.72229041016E+02  0.46922747817E+02  0.10328455117E+03  0.47000000000E+01 0.  1.
         -5    1    4    4    0  502  0.66461584765E+01  0.29646511281E+02  0.98319622336E+02  0.10301419897E+03  0.47000000000E+01 0.  1.
<mgrwt>
<rscale>  0 0.33684754E+03</rscale>
<asrwt>0</asrwt>
<pdfrwt beam="1">  1       21 0.36217338E-01 0.33684754E+03</pdfrwt>
<pdfrwt beam="2">  1       21 0.18538028E-01 0.33684754E+03</pdfrwt>
<totfact> 0.18829707E+05</totfact>
</mgrwt>
</event>
<event>
 8    1  0.9705063E-006  0.2734897E+03  0.7546771E-02  0.1099299E+00
         21   -1    0    0  504  503  0.00000000000E+00  0.00000000000E+00  0.11739918556E+03  0.11739918556E+03  0.00000000000E+00 0. -1.
         21   -1    0    0  503  504 -0.00000000000E+00 -0.00000000000E+00 -0.15927837271E+03  0.15927837271E+03  0.00000000000E+00 0. -1.
         25    2    1    2    0    0 -0.22995271314E+02  0.33427391621E+02  0.17325763493E+02  0.13254378508E+03  0.12498599870E+03 0.  0.
         25    2    1    2    0    0  0.22995271314E+02 -0.33427391621E+02 -0.59204950642E+02  0.14413377319E+03  0.12499258130E+03 0.  0.
          5    1    3    3  501    0 -0.61018371757E+02  0.57862633062E+02  0.21463521246E+02  0.86914318389E+02  0.47000000000E+01 0.  1.
         -5    1    3    3    0  501  0.38023100442E+02 -0.24435241442E+02 -0.41377577520E+01  0.45629466694E+02  0.47000000000E+01 0.  1.
          5    1    4    4  502    0  0.18442562971E+02  0.21660928761E+02 -0.79884582908E+02  0.84929150179E+02  0.47000000000E+01 0. -1.
         -5    1    4    4    0  502  0.45527083432E+01 -0.55088320381E+02  0.20679632266E+02  0.59204623015E+02  0.47000000000E+01 0. -1.
<mgrwt>
<rscale>  0 0.27348968E+03</rscale>
<asrwt>0</asrwt>
<pdfrwt beam="1">  1       21 0.18061413E-01 0.27348968E+03</pdfrwt>
<pdfrwt beam="2">  1       21 0.24504365E-01 0.27348968E+03</pdfrwt>
<totfact> 0.43189591E+05</totfact>
</mgrwt>
</event>
<event>
 8    1  0.9705063E-006  0.3956242E+03  0.7546771E-02  0.1045305E+00
         21   -1    0    0  504  503  0.00000000000E+00  0.00000000000E+00  0.99279437047E+02  0.99279437047E+02  0.00000000000E+00 0. -1.
         21   -1    0    0  503  504 -0.00000000000E+00 -0.00000000000E+00 -0.39413623812E+03  0.39413623812E+03  0.00000000000E+00 0. -1.
         25    2    1    2    0    0 -0.85299570843E+02  0.70438720643E+02 -0.15040007212E+02  0.16758587800E+03  0.12498477722E+03 0.  0.
         25    2    1    2    0    0  0.85299570843E+02 -0.70438720643E+02 -0.27981679387E+03  0.32582979717E+03  0.12501995218E+03 0.  0.
          5    1    3    3  501    0 -0.34804126990E+02 -0.13787764991E+02 -0.50528934887E+02  0.63061025838E+02  0.47000000000E+01 0.  1.
         -5    1    3    3    0  501 -0.50495443853E+02  0.84226485634E+02  0.35488927675E+02  0.10452485216E+03  0.47000000000E+01 0.  1.
          5    1    4    4  502    0  0.50559025462E+02  0.29944980932E+02 -0.12255365498E+03  0.13599413696E+03  0.47000000000E+01 0.  1.
         -5    1    4    4    0  502  0.34740545381E+02 -0.10038370157E+03 -0.15726313888E+03  0.18983566021E+03  0.47000000000E+01 0.  1.
<mgrwt>
<rscale>  0 0.39562418E+03</rscale>
<asrwt>0</asrwt>
<pdfrwt beam="1">  1       21 0.15273759E-01 0.39562418E+03</pdfrwt>
<pdfrwt beam="2">  1       21 0.60636346E-01 0.39562418E+03</pdfrwt>
<totfact> 0.90453631E+04</totfact>
</mgrwt>
</event>
<event>
 8    1  0.9705063E-006  0.4337902E+03  0.7546771E-02  0.1032669E+00
         21   -1    0    0  504  503  0.00000000000E+00  0.00000000000E+00  0.27885943722E+03  0.27885943722E+03  0.00000000000E+00 0.  1.
         21   -1    0    0  503  504 -0.00000000000E+00 -0.00000000000E+00 -0.16869960793E+03  0.16869960793E+03  0.00000000000E+00 0.  1.
         25    2    1    2    0    0 -0.49892250170E+02  0.14325950095E+03  0.14967520208E+03  0.24706159207E+03  0.12499697164E+03 0.  0.
         25    2    1    2    0    0  0.49892250170E+02 -0.14325950095E+03 -0.39515372790E+02  0.20049745309E+03  0.12500097107E+03 0.  0.
          5    1    3    3  501    0 -0.45983285807E+02  0.14825212570E+03  0.75866729704E+02  0.17283230608E+03  0.47000000000E+01 0.  1.
         -5    1    3    3    0  501 -0.39089643629E+01 -0.49926247502E+01  0.73808472374E+02  0.74229285990E+02  0.47000000000E+01 0.  1.
          5    1    4    4  502    0  0.32563554998E+02 -0.41890010584E+02 -0.74662664465E+02  0.91715656057E+02  0.47000000000E+01 0. -1.
         -5    1    4    4    0  502  0.17328695173E+02 -0.10136949037E+03  0.35147291675E+02  0.10878179703E+03  0.47000000000E+01 0. -1.
<mgrwt>
<rscale>  0 0.43379017E+03</rscale>
<asrwt>0</asrwt>
<pdfrwt beam="1">  1       21 0.42901452E-01 0.43379017E+03</pdfrwt>
<pdfrwt beam="2">  1       21 0.25953786E-01 0.43379017E+03</pdfrwt>
<totfact> 0.68489342E+04</totfact>
</mgrwt>
</event>
<event>
 8    1  0.9705063E-006  0.2546466E+03  0.7546771E-02  0.1110403E+00
         21   -1    0    0  504  503  0.00000000000E+00  0.00000000000E+00  0.17644097002E+03  0.17644097002E+03  0.00000000000E+00 0. -1.
         21   -1    0    0  503  504 -0.00000000000E+00 -0.00000000000E+00 -0.91879018538E+02  0.91879018538E+02  0.00000000000E+00 0. -1.
         25    2    1    2    0    0  0.21163061152E+02 -0.46344534594E+01  0.30931290101E+02  0.13058874983E+03  0.12500929389E+03 0.  0.
         25    2    1    2    0    0 -0.21163061152E+02  0.46344534594E+01  0.53630661384E+02  0.13773123873E+03  0.12499717183E+03 0.  0.
          5    1    3    3  501    0  0.42609902898E+00  0.59303127684E+02  0.14175085389E+02  0.61156075408E+02  0.47000000000E+01 0.  1.
         -5    1    3    3    0  501  0.20736962123E+02 -0.63937581144E+02  0.16756204713E+02  0.69432674419E+02  0.47000000000E+01 0.  1.
          5    1    4    4  502    0 -0.10278512596E+01  0.42799259334E+02  0.77154044266E+02  0.88361018692E+02  0.47000000000E+01 0.  1.
         -5    1    4    4    0  502 -0.20135209892E+02 -0.38164805874E+02 -0.23523382882E+02  0.49370220042E+02  0.47000000000E+01 0.  1.
<mgrwt>
<rscale>  0 0.25464660E+03</rscale>
<asrwt>0</asrwt>
<pdfrwt beam="1">  1       21 0.27144765E-01 0.25464660E+03</pdfrwt>
<pdfrwt beam="2">  1       21 0.14135234E-01 0.25464660E+03</pdfrwt>
<totfact> 0.55885407E+05</totfact>
</mgrwt>
</event>
<event>
 8    1  0.9705063E-006  0.3305531E+03  0.7546771E-02  0.1070892E+00
         21   -1    0    0  504  503  0.00000000000E+00  0.00000000000E+00  0.13146433884E+03  0.13146433884E+03  0.00000000000E+00 0.  1.
         21   -1    0    0  503  504 -0.00000000000E+00 -0.00000000000E+00 -0.20778518460E+03  0.20778518460E+03  0.00000000000E+00 0.  1.
         25    2    1    2    0    0  0.28890400190E+02 -0.18749633934E+02  0.67030999908E+02  0.14595957239E+03  0.12499935131E+03 0.  0.
         25    2    1    2    0    0 -0.28890400190E+02  0.18749633934E+02 -0.14335184567E+03  0.19328995105E+03  0.12500019809E+03 0.  0.
          5    1    3    3  501    0  0.26664897707E+02 -0.13975912103E+02 -0.33440455548E+02  0.45240434968E+02  0.47000000000E+01 0. -1.
         -5    1    3    3    0  501  0.22255024821E+01 -0.47737218307E+01  0.10047145546E+03  0.10071913742E+03  0.47000000000E+01 0. -1.
          5    1    4    4  502    0 -0.72884901445E+02 -0.93679877465E+01 -0.10538783992E+03  0.12856381628E+03  0.47000000000E+01 0. -1.
         -5    1    4    4    0  502  0.43994501256E+02  0.28117621680E+02 -0.37964005749E+02  0.64726134770E+02  0.47000000000E+01 0. -1.
<mgrwt>
<rscale>  0 0.33055312E+03</rscale>
<asrwt>0</asrwt>
<pdfrwt beam="1">  1       21 0.20225283E-01 0.33055312E+03</pdfrwt>
<pdfrwt beam="2">  1       21 0.31966951E-01 0.33055312E+03</pdfrwt>
<totfact> 0.20544408E+05</totfact>
</mgrwt>
</event>
<event>
 8    1  0.9705063E-006  0.3286030E+03  0.7546771E-02  0.1071757E+00
         21   -1    0    0  504  503  0.00000000000E+00  0.00000000000E+00  0.63058911473E+02  0.63058911473E+02  0.00000000000E+00 0.  1.
         21   -1    0    0  503  504 -0.00000000000E+00 -0.00000000000E+00 -0.42809139894E+03  0.42809139894E+03  0.00000000000E+00 0.  1.
         25    2    1    2    0    0  0.39477460766E+02 -0.22092696709E+02 -0.38187432238E+02  0.13830954050E+03  0.12499876742E+03 0.  0.
         25    2    1    2    0    0 -0.39477460766E+02  0.22092696709E+02 -0.32684505523E+03  0.35284076991E+03  0.12498944607E+03 0.  0.
          5    1    3    3  501    0 -0.38931995751E+02  0.61771785219E+01 -0.37814962645E+02  0.54826264030E+02  0.47000000000E+01 0. -1.
         -5    1    3    3    0  501  0.78409456517E+02 -0.28269875230E+02 -0.37246959312E+00  0.83483276471E+02  0.47000000000E+01 0. -1.
          5    1    4    4  502    0 -0.72276941099E+02  0.20268117197E+02 -0.10868571186E+03  0.13217195902E+03  0.47000000000E+01 0.  1.
         -5    1    4    4    0  502  0.32799480333E+02  0.18245795118E+01 -0.21815934337E+03  0.22066881089E+03  0.47000000000E+01 0.  1.
<mgrwt>
<rscale>  0 0.32860297E+03</rscale>
<asrwt>0</asrwt>
<pdfrwt beam="1">  1       21 0.97013710E-02 0.32860297E+03</pdfrwt>
<pdfrwt beam="2">  1       21 0.65860215E-01 0.32860297E+03</pdfrwt>
<totfact> 0.17458607E+05</totfact>
</mgrwt>
</event>
<event>
 8    1  0.9705063E-006  0.3921919E+03  0.7546771E-02  0.1046517E+00
         21   -1    0    0  504  503  0.00000000000E+00  0.00000000000E+00  0.32379631664E+03  0.32379631664E+03  0.00000000000E+00 0. -1.
         21   -1    0    0  503  504 -0.00000000000E+00 -0.00000000000E+00 -0.11875866163E+03  0.11875866163E+03  0.00000000000E+00 0. -1.
         25    2    1    2    0    0 -0.93645847356E+02  0.11148611796E+03  0.56956943382E+02  0.20016786801E+03  0.12499753101E+03 0.  0.
         25    2    1    2    0    0  0.93645847356E+02 -0.11148611796E+03  0.14808071163E+03  0.24238711027E+03  0.12499965937E+03 0.  0.
          5    1    3    3  501    0 -0.11491729774E+03  0.86411037105E+02  0.12119269829E+02  0.14436696075E+03  0.47000000000E+01 0.  1.
         -5    1    3    3    0  501  0.21271450386E+02  0.25075080854E+02  0.44837673552E+02  0.55800907259E+02  0.47000000000E+01 0.  1.
          5    1    4    4  502    0  0.48888749958E+01 -0.19087172267E+02 -0.21668063252E+02  0.29661695990E+02  0.47000000000E+01 0.  1.
         -5    1    4    4    0  502  0.88756972360E+02 -0.92398945692E+02  0.16974877488E+03  0.21272541428E+03  0.47000000000E+01 0.  1.
<mgrwt>
<rscale>  0 0.39219188E+03</rscale>
<asrwt>0</asrwt>
<pdfrwt beam="1">  1       21 0.49814818E-01 0.39219188E+03</pdfrwt>
<pdfrwt beam="2">  1       21 0.18270563E-01 0.39219188E+03</pdfrwt>
<totfact> 0.98929812E+04</totfact>
</mgrwt>
</event>
<event>
 8    1  0.9705063E-006  0.3109863E+03  0.7546771E-02  0.1079874E+00
         21   -1    0    0  504  503  0.00000000000E+00  0.00000000000E+00  0.48753451497E+03  0.48753451497E+03  0.00000000000E+00 0. -1.
         21   -1    0    0  503  504 -0.00000000000E+00 -0.00000000000E+00 -0.49592628069E+02  0.49592628069E+02  0.00000000000E+00 0. -1.
         25    2    1    2    0    0  0.21876275638E+02  0.48062913011E+02  0.35010267461E+03  0.37548139420E+03  0.12500311827E+03 0.  0.
         25    2    1    2    0    0 -0.21876275638E+02 -0.48062913011E+02  0.87839212297E+02  0.16164574885E+03  0.12500002344E+03 0.  0.
          5    1    3    3  501    0  0.14585574977E+02  0.33039341002E+02  0.14136262358E+02  0.39067390042E+02  0.47000000000E+01 0. -1.
         -5    1    3    3    0  501  0.72907006611E+01  0.15023572009E+02  0.33596641225E+03  0.33641400416E+03  0.47000000000E+01 0. -1.
          5    1    4    4  502    0 -0.68871098897E+02 -0.33423064804E+02  0.22935706461E+02  0.80052895981E+02  0.47000000000E+01 0.  1.
         -5    1    4    4    0  502  0.46994823259E+02 -0.14639848207E+02  0.64903505836E+02  0.81592852864E+02  0.47000000000E+01 0.  1.
<mgrwt>
<rscale>  0 0.31098629E+03</rscale>
<asrwt>0</asrwt>
<pdfrwt beam="1">  1       21 0.75005307E-01 0.31098629E+03</pdfrwt>
<pdfrwt beam="2">  1       21 0.76296354E-02 0.31098629E+03</pdfrwt>
<totfact> 0.20044791E+05</totfact>
</mgrwt>
</event>
<event>
 8    1  0.9705063E-006  0.4998544E+03  0.7546771E-02  0.1013817E+00
         21   -1    0    0  504  503  0.00000000000E+00  0.00000000000E+00  0.35680780006E+03  0.35680780006E+03  0.00000000000E+00 0. -1.
         21   -1    0    0  503  504 -0.00000000000E+00 -0.00000000000E+00 -0.17506234814E+03  0.17506234814E+03  0.00000000000E+00 0. -1.
         25    2    1    2    0    0 -0.49344642811E+02 -0.18340589076E+03 -0.19526989916E+02  0.22821212761E+03  0.12500742904E+03 0.  0.
         25    2    1    2    0    0  0.49344642811E+02  0.18340589076E+03  0.20127244183E+03  0.30365802059E+03  0.12499993235E+03 0.  0.
          5    1    3    3  501    0 -0.72537508471E+02 -0.89747281193E+02  0.30463295873E+02  0.11944189806E+03  0.47000000000E+01 0.  1.
         -5    1    3    3    0  501  0.23192865660E+02 -0.93658609567E+02 -0.49990285789E+02  0.10877022955E+03  0.47000000000E+01 0.  1.
          5    1    4    4  502    0 -0.12028267820E+02  0.65968452209E+02  0.58146404764E+01  0.67471593708E+02  0.47000000000E+01 0. -1.
         -5    1    4    4    0  502  0.61372910631E+02  0.11743743855E+03  0.19545780135E+03  0.23618642688E+03  0.47000000000E+01 0. -1.
<mgrwt>
<rscale>  0 0.49985442E+03</rscale>
<asrwt>0</asrwt>
<pdfrwt beam="1">  1       21 0.54893508E-01 0.49985442E+03</pdfrwt>
<pdfrwt beam="2">  1       21 0.26932669E-01 0.49985442E+03</pdfrwt>
<totfact> 0.37256694E+04</totfact>
</mgrwt>
</event>
<event>
 8    1  0.9705063E-006  0.4458471E+03  0.7546771E-02  0.1028968E+00
         21   -1    0    0  504  503  0.00000000000E+00  0.00000000000E+00  0.21535884998E+02  0.21535884998E+02  0.00000000000E+00 0.  1.
         21   -1    0    0  503  504 -0.00000000000E+00 -0.00000000000E+00 -0.23075397182E+04  0.23075397182E+04  0.00000000000E+00 0.  1.
         25    2    1    2    0    0 -0.10958957976E+03  0.87066223396E+02 -0.51440083943E+03  0.54756179276E+03  0.12500116013E+03 0.  0.
         25    2    1    2    0    0  0.10958957976E+03 -0.87066223396E+02 -0.17716029938E+04  0.17815138105E+04  0.12499554390E+03 0.  0.
          5    1    3    3  501    0  0.45962313457E+01 -0.15821594378E+02 -0.91391451132E+01  0.19418088594E+02  0.47000000000E+01 0.  1.
         -5    1    3    3    0  501 -0.11418581111E+03  0.10288781777E+03 -0.50526169432E+03  0.52814370417E+03  0.47000000000E+01 0.  1.
          5    1    4    4  502    0 -0.17051804949E+02 -0.25217217653E+02 -0.11958436042E+03  0.12348757579E+03  0.47000000000E+01 0.  1.
         -5    1    4    4    0  502  0.12664138471E+03 -0.61849005743E+02 -0.16520186334E+04  0.16580262347E+04  0.47000000000E+01 0.  1.
<mgrwt>
<rscale>  0 0.44584710E+03</rscale>
<asrwt>0</asrwt>
<pdfrwt beam="1">  1       21 0.33132133E-02 0.44584710E+03</pdfrwt>
<pdfrwt beam="2">  1       21 0.35500609E+00 0.44584710E+03</pdfrwt>
<totfact> 0.72190218E+03</totfact>
</mgrwt>
</event>
<event>
 8    1  0.9705063E-006  0.2758544E+03  0.7546771E-02  0.1097975E+00
         21   -1    0    0  504  503  0.00000000000E+00  0.00000000000E+00  0.48526509881E+02  0.48526509881E+02  0.00000000000E+00 0.  1.
         21   -1    0    0  503  504 -0.00000000000E+00 -0.00000000000E+00 -0.39203121896E+03  0.39203121896E+03  0.00000000000E+00 0.  1.
         25    2    1    2    0    0  0.27189343446E+02 -0.18332936092E+02 -0.24874470967E+03  0.28030641716E+03  0.12498959944E+03 0.  0.
         25    2    1    2    0    0 -0.27189343446E+02  0.18332936092E+02 -0.94759999410E+02  0.16025131168E+03  0.12500267383E+03 0.  0.
          5    1    3    3  501    0 -0.29590579065E+02 -0.46129720015E+02 -0.17299976048E+03  0.18153391024E+03  0.47000000000E+01 0. -1.
         -5    1    3    3    0  501  0.56779922511E+02  0.27796783923E+02 -0.75744949190E+02  0.98772506927E+02  0.47000000000E+01 0. -1.
          5    1    4    4  502    0  0.46097511712E+02  0.29469130877E+02 -0.38265803589E+02  0.66931098788E+02  0.47000000000E+01 0. -1.
         -5    1    4    4    0  502 -0.73286855157E+02 -0.11136194785E+02 -0.56494195821E+02  0.93320212894E+02  0.47000000000E+01 0. -1.
<mgrwt>
<rscale>  0 0.27585436E+03</rscale>
<asrwt>0</asrwt>
<pdfrwt beam="1">  1       21 0.74656168E-02 0.27585436E+03</pdfrwt>
<pdfrwt beam="2">  1       21 0.60312496E-01 0.27585436E+03</pdfrwt>
<totfact> 0.33995802E+05</totfact>
</mgrwt>
</event>
<event>
 8    1  0.9705063E-006  0.2709490E+03  0.7546771E-02  0.1100738E+00
         21   -1    0    0  504  503  0.00000000000E+00  0.00000000000E+00  0.50542989712E+02  0.50542989712E+02  0.00000000000E+00 0. -1.
         21   -1    0    0  503  504 -0.00000000000E+00 -0.00000000000E+00 -0.36312326392E+03  0.36312326392E+03  0.00000000000E+00 0. -1.
         25    2    1    2    0    0 -0.36730365972E+01  0.97259049241E+01 -0.23445209696E+03  0.26589278119E+03  0.12499240337E+03 0.  0.
         25    2    1    2    0    0  0.36730365972E+01 -0.97259049241E+01 -0.78128177255E+02  0.14777347244E+03  0.12499961061E+03 0.  0.
          5    1    3    3  501    0  0.28392119175E+02 -0.22363854053E+00 -0.22989242487E+03  0.23168681330E+03  0.47000000000E+01 0.  1.
         -5    1    3    3    0  501 -0.32065155772E+02  0.99495434647E+01 -0.45596720865E+01  0.34205967892E+02  0.47000000000E+01 0.  1.
          5    1    4    4  502    0  0.39436077903E+01 -0.64992241778E+02 -0.22065979642E+02  0.68909658186E+02  0.47000000000E+01 0. -1.
         -5    1    4    4    0  502 -0.27057119304E+00  0.55266336853E+02 -0.56062197613E+02  0.78863814257E+02  0.47000000000E+01 0. -1.
<mgrwt>
<rscale>  0 0.27094896E+03</rscale>
<asrwt>0</asrwt>
<pdfrwt beam="1">  1       21 0.77758448E-02 0.27094896E+03</pdfrwt>
<pdfrwt beam="2">  1       21 0.55865116E-01 0.27094896E+03</pdfrwt>
<totfact> 0.37375093E+05</totfact>
</mgrwt>
</event>
<event>
 8    1  0.9705063E-006  0.3262066E+03  0.7546771E-02  0.1072828E+00
         21   -1    0    0  504  503  0.00000000000E+00  0.00000000000E+00  0.37521923045E+02  0.37521923045E+02  0.00000000000E+00 0. -1.
         21   -1    0    0  503  504 -0.00000000000E+00 -0.00000000000E+00 -0.70899052307E+03  0.70899052307E+03  0.00000000000E+00 0. -1.
         25    2    1    2    0    0  0.14500472585E+02  0.79379031009E+02 -0.48869835534E+03  0.51084227075E+03  0.12498979478E+03 0.  0.
         25    2    1    2    0    0 -0.14500472585E+02 -0.79379031009E+02 -0.18277024469E+03  0.23567017537E+03  0.12499669974E+03 0.  0.
          5    1    3    3  501    0  0.37383727553E+02  0.34458546125E+02 -0.43126674578E+03  0.43427874747E+03  0.47000000000E+01 0.  1.
         -5    1    3    3    0  501 -0.22883254968E+02  0.44920484884E+02 -0.57431609559E+02  0.76563523277E+02  0.47000000000E+01 0.  1.
          5    1    4    4  502    0  0.31098947490E+02 -0.36242216517E+01  0.10050702361E+01  0.31676169019E+02  0.47000000000E+01 0.  1.
         -5    1    4    4    0  502 -0.45599420075E+02 -0.75754809357E+02 -0.18377531492E+03  0.20399400635E+03  0.47000000000E+01 0.  1.
<mgrwt>
<rscale>  0 0.32620661E+03</rscale>
<asrwt>0</asrwt>
<pdfrwt beam="1">  1       21 0.57726033E-02 0.32620661E+03</pdfrwt>
<pdfrwt beam="2">  1       21 0.10907547E+00 0.32620661E+03</pdfrwt>
<totfact> 0.13440957E+05</totfact>
</mgrwt>
</event>
<event>
 8    1  0.9705063E-006  0.4557849E+03  0.7546771E-02  0.1026011E+00
         21   -1    0    0  504  503  0.00000000000E+00  0.00000000000E+00  0.51150968889E+03  0.51150968889E+03  0.00000000000E+00 0.  1.
         21   -1    0    0  503  504 -0.00000000000E+00 -0.00000000000E+00 -0.10153271121E+03  0.10153271121E+03  0.00000000000E+00 0.  1.
         25    2    1    2    0    0  0.16764720689E+03 -0.88217117331E+02  0.23258401063E+03  0.32497397952E+03  0.12499967837E+03 0.  0.
         25    2    1    2    0    0 -0.16764720689E+03  0.88217117331E+02  0.17739296705E+03  0.28806842059E+03  0.12500921731E+03 0.  0.
          5    1    3    3  501    0  0.18217297746E+02  0.91197303697E+01  0.10140581957E+03  0.10353873508E+03  0.47000000000E+01 0.  1.
         -5    1    3    3    0  501  0.14942990915E+03 -0.97336847701E+02  0.13117819106E+03  0.22143524443E+03  0.47000000000E+01 0.  1.
          5    1    4    4  502    0 -0.12612460416E+03  0.85769152860E+02  0.19061363792E+03  0.24417086706E+03  0.47000000000E+01 0.  1.
         -5    1    4    4    0  502 -0.41522602731E+02  0.24479644712E+01 -0.13220670874E+02  0.43897553530E+02  0.47000000000E+01 0.  1.
<mgrwt>
<rscale>  0 0.45578489E+03</rscale>
<asrwt>0</asrwt>
<pdfrwt beam="1">  1       21 0.78693796E-01 0.45578489E+03</pdfrwt>
<pdfrwt beam="2">  1       21 0.15620418E-01 0.45578489E+03</pdfrwt>
<totfact> 0.47698759E+04</totfact>
</mgrwt>
</event>
<event>
 8    1  0.9705063E-006  0.2750569E+03  0.7546771E-02  0.1098420E+00
         21   -1    0    0  504  503  0.00000000000E+00  0.00000000000E+00  0.10609242785E+04  0.10609242785E+04  0.00000000000E+00 0. -1.
         21   -1    0    0  503  504 -0.00000000000E+00 -0.00000000000E+00 -0.17827926016E+02  0.17827926016E+02  0.00000000000E+00 0. -1.
         25    2    1    2    0    0  0.13751048705E+01  0.18791840142E+02  0.30897830807E+03  0.33383640654E+03  0.12499650918E+03 0.  0.
         25    2    1    2    0    0 -0.13751048705E+01 -0.18791840142E+02  0.73411804443E+03  0.74491579799E+03  0.12496086893E+03 0.  0.
          5    1    3    3  501    0  0.53861212663E+02  0.92109811588E+01  0.69984351758E+02  0.88914407687E+02  0.47000000000E+01 0. -1.
         -5    1    3    3    0  501 -0.52486107792E+02  0.95808589833E+01  0.23899395631E+03  0.24492199886E+03  0.47000000000E+01 0. -1.
          5    1    4    4  502    0  0.40464712049E+01  0.53302194393E+02  0.28892116357E+03  0.29386225789E+03  0.47000000000E+01 0. -1.
         -5    1    4    4    0  502 -0.54215760754E+01 -0.72094034535E+02  0.44519688087E+03  0.45105354010E+03  0.47000000000E+01 0. -1.
<mgrwt>
<rscale>  0 0.27505694E+03</rscale>
<asrwt>0</asrwt>
<pdfrwt beam="1">  1       21 0.16321907E+00 0.27505694E+03</pdfrwt>
<pdfrwt beam="2">  1       21 0.27427587E-02 0.27505694E+03</pdfrwt>
<totfact> 0.16933491E+05</totfact>
</mgrwt>
</event>
<event>
 8    1  0.9705063E-006  0.3082287E+03  0.7546771E-02  0.1081198E+00
         21   -1    0    0  504  503  0.00000000000E+00  0.00000000000E+00  0.36494028440E+03  0.36494028440E+03  0.00000000000E+00 0.  1.
         21   -1    0    0  503  504 -0.00000000000E+00 -0.00000000000E+00 -0.65082520693E+02  0.65082520693E+02  0.00000000000E+00 0.  1.
         25    2    1    2    0    0  0.10240228277E+02  0.86479971892E+02  0.11759918343E+03  0.19248071769E+03  0.12504243650E+03 0.  0.
         25    2    1    2    0    0 -0.10240228277E+02 -0.86479971892E+02  0.18225858027E+03  0.23754208740E+03  0.12499762154E+03 0.  0.
          5    1    3    3  501    0 -0.71763596243E+01  0.60441809230E+02 -0.92427220273E+01  0.61743261583E+02  0.47000000000E+01 0. -1.
         -5    1    3    3    0  501  0.17416587901E+02  0.26038162662E+02  0.12684190546E+03  0.13073745611E+03  0.47000000000E+01 0. -1.
          5    1    4    4  502    0 -0.20150722719E+02 -0.89130527578E+02  0.19803126097E+03  0.21814851110E+03  0.47000000000E+01 0. -1.
         -5    1    4    4    0  502  0.99104944419E+01  0.26505556854E+01 -0.15772680697E+02  0.19393576305E+02  0.47000000000E+01 0. -1.
<mgrwt>
<rscale>  0 0.30822870E+03</rscale>
<asrwt>0</asrwt>
<pdfrwt beam="1">  1       21 0.56144658E-01 0.30822870E+03</pdfrwt>
<pdfrwt beam="2">  1       21 0.10012696E-01 0.30822870E+03</pdfrwt>
<totfact> 0.23468746E+05</totfact>
</mgrwt>
</event>
<event>
 8    1  0.9705063E-006  0.2749388E+03  0.7546771E-02  0.1098486E+00
         21   -1    0    0  504  503  0.00000000000E+00  0.00000000000E+00  0.23192176904E+02  0.23192176904E+02  0.00000000000E+00 0. -1.
         21   -1    0    0  503  504 -0.00000000000E+00 -0.00000000000E+00 -0.81483664061E+03  0.81483664061E+03  0.00000000000E+00 0. -1.
         25    2    1    2    0    0  0.13925350397E+02  0.15845183397E+02 -0.55789846249E+03  0.57211839067E+03  0.12499509301E+03 0.  0.
         25    2    1    2    0    0 -0.13925350397E+02 -0.15845183397E+02 -0.23374600122E+03  0.26591042684E+03  0.12500470710E+03 0.  0.
          5    1    3    3  501    0  0.36454666725E+02  0.84322655651E+01 -0.54170912432E+03  0.54302017568E+03  0.47000000000E+01 0.  1.
         -5    1    3    3    0  501 -0.22529316327E+02  0.74129178315E+01 -0.16189338165E+02  0.29098214983E+02  0.47000000000E+01 0.  1.
          5    1    4    4  502    0 -0.41746680898E+02 -0.49165858383E+02 -0.20152333050E+03  0.21164548125E+03  0.47000000000E+01 0.  1.
         -5    1    4    4    0  502  0.27821330500E+02  0.33320674987E+02 -0.32222670718E+02  0.54264945597E+02  0.47000000000E+01 0.  1.
<mgrwt>
<rscale>  0 0.27493880E+03</rscale>
<asrwt>0</asrwt>
<pdfrwt beam="1">  1       21 0.35680277E-02 0.27493880E+03</pdfrwt>
<pdfrwt beam="2">  1       21 0.12535947E+00 0.27493880E+03</pdfrwt>
<totfact> 0.21868179E+05</totfact>
</mgrwt>
</event>
<event>
 8    1  0.9705063E-006  0.4397341E+03  0.7546771E-02  0.1030828E+00
         21   -1    0    0  504  503  0.00000000000E+00  0.00000000000E+00  0.12332846190E+03  0.12332846190E+03  0.00000000000E+00 0. -1.
         21   -1    0    0  503  504 -0.00000000000E+00 -0.00000000000E+00 -0.39197381567E+03  0.39197381567E+03  0.00000000000E+00 0. -1.
         25    2    1    2    0    0 -0.14116924294E+03 -0.11223451834E+03 -0.15051357543E+03  0.26609076621E+03  0.12499846884E+03 0.  0.
         25    2    1    2    0    0  0.14116924294E+03  0.11223451834E+03 -0.11813177833E+03  0.24921151135E+03  0.12500367225E+03 0.  0.
          5    1    3    3  501    0 -0.15639554600E+03 -0.70645539171E+02 -0.99717300635E+02  0.19853460419E+03  0.47000000000E+01 0.  1.
         -5    1    3    3    0  501  0.15226303061E+02 -0.41588979173E+02 -0.50796274799E+02  0.67556162021E+02  0.47000000000E+01 0.  1.
          5    1    4    4  502    0  0.51500786416E+01  0.65200322032E+02 -0.44055462208E+01  0.65719891514E+02  0.47000000000E+01 0.  1.
         -5    1    4    4    0  502  0.13601916430E+03  0.47034196312E+02 -0.11372623211E+03  0.18349161984E+03  0.47000000000E+01 0.  1.
<mgrwt>
<rscale>  0 0.43973414E+03</rscale>
<asrwt>0</asrwt>
<pdfrwt beam="1">  1       21 0.18973609E-01 0.43973414E+03</pdfrwt>
<pdfrwt beam="2">  1       21 0.60303664E-01 0.43973414E+03</pdfrwt>
<totfact> 0.60418066E+04</totfact>
</mgrwt>
</event>
<event>
 8    1  0.9705063E-006  0.3330215E+03  0.7546771E-02  0.1069808E+00
         21   -1    0    0  504  503  0.00000000000E+00  0.00000000000E+00  0.14119932415E+03  0.14119932415E+03  0.00000000000E+00 0. -1.
         21   -1    0    0  503  504 -0.00000000000E+00 -0.00000000000E+00 -0.19635954299E+03  0.19635954299E+03  0.00000000000E+00 0. -1.
         25    2    1    2    0    0  0.13313863895E+02 -0.64491784744E+02  0.61723732306E+02  0.15419173945E+03  0.12501529551E+03 0.  0.
         25    2    1    2    0    0 -0.13313863895E+02  0.64491784744E+02 -0.11688395115E+03  0.18336712769E+03  0.12500078484E+03 0.  0.
          5    1    3    3  501    0  0.60276415215E+02 -0.21906776115E+02  0.63804517667E+02  0.90588407347E+02  0.47000000000E+01 0. -1.
         -5    1    3    3    0  501 -0.46962551320E+02 -0.42585008629E+02 -0.20807853611E+01  0.63603332099E+02  0.47000000000E+01 0. -1.
          5    1    4    4  502    0  0.30277171932E+02  0.57417105412E+02 -0.12238873418E+03  0.13861646146E+03  0.47000000000E+01 0. -1.
         -5    1    4    4    0  502 -0.43591035827E+02  0.70746793322E+01  0.55047830274E+01  0.44750666233E+02  0.47000000000E+01 0. -1.
<mgrwt>
<rscale>  0 0.33302153E+03</rscale>
<asrwt>0</asrwt>
<pdfrwt beam="1">  1       21 0.21722973E-01 0.33302153E+03</pdfrwt>
<pdfrwt beam="2">  1       21 0.30209160E-01 0.33302153E+03</pdfrwt>
<totfact> 0.20054968E+05</totfact>
</mgrwt>
</event>
<event>
 8    1  0.9705063E-006  0.2990127E+03  0.7546771E-02  0.1085735E+00
         21   -1    0    0  504  503  0.00000000000E+00  0.00000000000E+00  0.27688562239E+03  0.27688562239E+03  0.00000000000E+00 0. -1.
         21   -1    0    0  503  504 -0.00000000000E+00 -0.00000000000E+00 -0.80727025637E+02  0.80727025637E+02  0.00000000000E+00 0. -1.
         25    2    1    2    0    0 -0.37759658539E+02 -0.72289484206E+02  0.10847694503E+03  0.18450789658E+03  0.12499741981E+03 0.  0.
         25    2    1    2    0    0  0.37759658539E+02  0.72289484206E+02  0.87681651719E+02  0.17310475144E+03  0.12500248631E+03 0.  0.
          5    1    3    3  501    0 -0.57741800267E+02 -0.99410932456E+02  0.87432941792E+02  0.14451040897E+03  0.47000000000E+01 0.  1.
         -5    1    3    3    0  501  0.19982141728E+02  0.27121448249E+02  0.21044003240E+02  0.39997487616E+02  0.47000000000E+01 0.  1.
          5    1    4    4  502    0 -0.80494336577E+01 -0.16935188201E+02 -0.18648188328E+02  0.26859614843E+02  0.47000000000E+01 0.  1.
         -5    1    4    4    0  502  0.45809092197E+02  0.89224672407E+02  0.10632984005E+03  0.14624513660E+03  0.47000000000E+01 0.  1.
<mgrwt>
<rscale>  0 0.29901273E+03</rscale>
<asrwt>0</asrwt>
<pdfrwt beam="1">  1       21 0.42597788E-01 0.29901273E+03</pdfrwt>
<pdfrwt beam="2">  1       21 0.12419543E-01 0.29901273E+03</pdfrwt>
<totfact> 0.28521823E+05</totfact>
</mgrwt>
</event>
<event>
 8    1  0.9705063E-006  0.4044212E+03  0.7546771E-02  0.1042259E+00
         21   -1    0    0  504  503  0.00000000000E+00  0.00000000000E+00  0.14143191833E+03  0.14143191833E+03  0.00000000000E+00 0. -1.
         21   -1    0    0  503  504 -0.00000000000E+00 -0.00000000000E+00 -0.28910821561E+03  0.28910821561E+03  0.00000000000E+00 0. -1.
         25    2    1    2    0    0  0.11662534902E+03  0.99867117060E+02 -0.30087440056E+02  0.20026199523E+03  0.12499879831E+03 0.  0.
         25    2    1    2    0    0 -0.11662534902E+03 -0.99867117060E+02 -0.11758885722E+03  0.23027813872E+03  0.12500387484E+03 0.  0.
          5    1    3    3  501    0  0.10211075785E+03  0.12955974246E+02 -0.41908912420E+02  0.11123358790E+03  0.47000000000E+01 0. -1.
         -5    1    3    3    0  501  0.14514591170E+02  0.86911142814E+02  0.11821472364E+02  0.89028407326E+02  0.47000000000E+01 0. -1.
          5    1    4    4  502    0 -0.12132582464E+03 -0.26984808100E+02 -0.66655017214E+02  0.14111384380E+03  0.47000000000E+01 0. -1.
         -5    1    4    4    0  502  0.47004756215E+01 -0.72882308959E+02 -0.50933840004E+02  0.89164294916E+02  0.47000000000E+01 0. -1.
<mgrwt>
<rscale>  0 0.40442121E+03</rscale>
<asrwt>0</asrwt>
<pdfrwt beam="1">  1       21 0.21758757E-01 0.40442121E+03</pdfrwt>
<pdfrwt beam="2">  1       21 0.44478186E-01 0.40442121E+03</pdfrwt>
<totfact> 0.89878017E+04</totfact>
</mgrwt>
</event>
<event>
 8    1  0.9705063E-006  0.3783817E+03  0.7546771E-02  0.1051533E+00
         21   -1    0    0  504  503  0.00000000000E+00  0.00000000000E+00  0.38325761510E+02  0.38325761510E+02  0.00000000000E+00 0.  1.
         21   -1    0    0  503  504 -0.00000000000E+00 -0.00000000000E+00 -0.93391978437E+03  0.93391978437E+03  0.00000000000E+00 0.  1.
         25    2    1    2    0    0  0.49068516839E+01  0.13391991943E+03 -0.32704228194E+03  0.37488608000E+03  0.12499718712E+03 0.  0.
         25    2    1    2    0    0 -0.49068516839E+01 -0.13391991943E+03 -0.56855174092E+03  0.59735946587E+03  0.12501450858E+03 0.  0.
          5    1    3    3  501    0  0.15748090877E+02  0.82816502029E+02 -0.62120729933E+02  0.10482199417E+03  0.47000000000E+01 0. -1.
         -5    1    3    3    0  501 -0.10841239193E+02  0.51103417405E+02 -0.26492155201E+03  0.27006408583E+03  0.47000000000E+01 0. -1.
          5    1    4    4  502    0  0.49574039889E+02 -0.21699691332E+02 -0.23544299550E+03  0.24162772226E+03  0.47000000000E+01 0. -1.
         -5    1    4    4    0  502 -0.54480891573E+02 -0.11222022810E+03 -0.33310874541E+03  0.35573174361E+03  0.47000000000E+01 0. -1.
<mgrwt>
<rscale>  0 0.37838175E+03</rscale>
<asrwt>0</asrwt>
<pdfrwt beam="1">  1       21 0.58962706E-02 0.37838175E+03</pdfrwt>
<pdfrwt beam="2">  1       21 0.14367998E+00 0.37838175E+03</pdfrwt>
<totfact> 0.63236421E+04</totfact>
</mgrwt>
</event>
<event>
 8    1  0.9705063E-006  0.3130012E+03  0.7546771E-02  0.1078916E+00
         21   -1    0    0  504  503  0.00000000000E+00  0.00000000000E+00  0.65814778793E+03  0.65814778793E+03  0.00000000000E+00 0.  1.
         21   -1    0    0  503  504 -0.00000000000E+00 -0.00000000000E+00 -0.37214191429E+02  0.37214191429E+02  0.00000000000E+00 0.  1.
         25    2    1    2    0    0  0.86774534452E+02 -0.19404964614E+02  0.37933272059E+03  0.40917641325E+03  0.12500260704E+03 0.  0.
         25    2    1    2    0    0 -0.86774534452E+02  0.19404964614E+02  0.24160087592E+03  0.28618556612E+03  0.12499929011E+03 0.  0.
          5    1    3    3  501    0  0.67023863901E+02  0.37738454879E+02  0.29752588048E+03  0.30734366573E+03  0.47000000000E+01 0.  1.
         -5    1    3    3    0  501  0.19750670551E+02 -0.57143419493E+02  0.81806840113E+02  0.10183274752E+03  0.47000000000E+01 0.  1.
          5    1    4    4  502    0 -0.92269911815E+02 -0.28228635368E+02  0.11193705368E+03  0.14786002323E+03  0.47000000000E+01 0. -1.
         -5    1    4    4    0  502  0.54953773626E+01  0.47633599982E+02  0.12966382223E+03  0.13832554289E+03  0.47000000000E+01 0. -1.
<mgrwt>
<rscale>  0 0.31300120E+03</rscale>
<asrwt>0</asrwt>
<pdfrwt beam="1">  1       21 0.10125350E+00 0.31300120E+03</pdfrwt>
<pdfrwt beam="2">  1       21 0.57252607E-02 0.31300120E+03</pdfrwt>
<totfact> 0.16400318E+05</totfact>
</mgrwt>
</event>
<event>
 8    1  0.9705063E-006  0.3418563E+03  0.7546771E-02  0.1066008E+00
         21   -1    0    0  504  503  0.00000000000E+00  0.00000000000E+00  0.49580976420E+03  0.49580976420E+03  0.00000000000E+00 0. -1.
         21   -1    0    0  503  504 -0.00000000000E+00 -0.00000000000E+00 -0.58926698263E+02  0.58926698263E+02  0.00000000000E+00 0. -1.
         25    2    1    2    0    0  0.36810332553E+02 -0.62472111336E+02  0.36656419981E+03  0.39402088876E+03  0.12500153167E+03 0.  0.
         25    2    1    2    0    0 -0.36810332553E+02  0.62472111336E+02  0.70318866128E+02  0.16071557370E+03  0.12500794943E+03 0.  0.
          5    1    3    3  501    0  0.56800105095E+02 -0.90701577231E+02  0.24182104528E+03  0.26448541735E+03  0.47000000000E+01 0. -1.
         -5    1    3    3    0  501 -0.19989772542E+02  0.28229465896E+02  0.12474315452E+03  0.12953547140E+03  0.47000000000E+01 0. -1.
          5    1    4    4  502    0 -0.64972309106E+02  0.85510633196E+02  0.57088985624E+02  0.12171569997E+03  0.47000000000E+01 0. -1.
         -5    1    4    4    0  502  0.28161976553E+02 -0.23038521860E+02  0.13229880504E+02  0.38999873731E+02  0.47000000000E+01 0. -1.
<mgrwt>
<rscale>  0 0.34185630E+03</rscale>
<asrwt>0</asrwt>
<pdfrwt beam="1">  1       21 0.76278423E-01 0.34185630E+03</pdfrwt>
<pdfrwt beam="2">  1       21 0.90656462E-02 0.34185630E+03</pdfrwt>
<totfact> 0.14130658E+05</totfact>
</mgrwt>
</event>
<event>
 8    1  0.9705063E-006  0.3522512E+03  0.7546771E-02  0.1061695E+00
         21   -1    0    0  504  503  0.00000000000E+00  0.00000000000E+00  0.76056906536E+02  0.76056906536E+02  0.00000000000E+00 0.  1.
         21   -1    0    0  503  504 -0.00000000000E+00 -0.00000000000E+00 -0.40785540314E+03  0.40785540314E+03  0.00000000000E+00 0.  1.
         25    2    1    2    0    0 -0.30054944468E+02  0.31421976023E+01 -0.33122143231E+03  0.35531184778E+03  0.12500279542E+03 0.  0.
         25    2    1    2    0    0  0.30054944468E+02 -0.31421976023E+01 -0.57706429418E+00  0.12860046189E+03  0.12499829080E+03 0.  0.
          5    1    3    3  501    0 -0.47767753382E+02 -0.34569660797E+02 -0.29188884449E+03  0.29782210671E+03  0.47000000000E+01 0. -1.
         -5    1    3    3    0  501  0.17712808914E+02  0.37711858399E+02 -0.39332587820E+02  0.57489741069E+02  0.47000000000E+01 0. -1.
          5    1    4    4  502    0  0.15449938888E+02  0.33387474128E+01 -0.62416098010E+02  0.64557781380E+02  0.47000000000E+01 0.  1.
         -5    1    4    4    0  502  0.14605005580E+02 -0.64809450151E+01  0.61839033716E+02  0.64042680512E+02  0.47000000000E+01 0.  1.
<mgrwt>
<rscale>  0 0.35225116E+03</rscale>
<asrwt>0</asrwt>
<pdfrwt beam="1">  1       21 0.11701062E-01 0.35225116E+03</pdfrwt>
<pdfrwt beam="2">  1       21 0.62746986E-01 0.35225116E+03</pdfrwt>
<totfact> 0.13799121E+05</totfact>
</mgrwt>
</event>
<event>
 8    1  0.9705063E-006  0.2860953E+03  0.7546771E-02  0.1092406E+00
         21   -1    0    0  504  503  0.00000000000E+00  0.00000000000E+00  0.22623653608E+03  0.22623653608E+03  0.00000000000E+00 0. -1.
         21   -1    0    0  503  504 -0.00000000000E+00 -0.00000000000E+00 -0.90447935785E+02  0.90447935785E+02  0.00000000000E+00 0. -1.
         25    2    1    2    0    0  0.59164029342E+02 -0.17274162906E+02  0.32206867840E+02  0.14303893918E+03  0.12499630680E+03 0.  0.
         25    2    1    2    0    0 -0.59164029342E+02  0.17274162906E+02  0.10358173245E+03  0.17364553269E+03  0.12499926660E+03 0.  0.
          5    1    3    3  501    0 -0.53361557284E+01 -0.30788005960E+02 -0.36122121183E+02  0.47992431775E+02  0.47000000000E+01 0. -1.
         -5    1    3    3    0  501  0.64500185070E+02  0.13513843054E+02  0.68328989023E+02  0.95046507401E+02  0.47000000000E+01 0. -1.
          5    1    4    4  502    0 -0.93188340651E+02  0.30625798689E+01  0.99192981712E+02  0.13621594565E+03  0.47000000000E+01 0. -1.
         -5    1    4    4    0  502  0.34024311309E+02  0.14211583037E+02  0.43887507398E+01  0.37429587034E+02  0.47000000000E+01 0. -1.
<mgrwt>
<rscale>  0 0.28609528E+03</rscale>
<asrwt>0</asrwt>
<pdfrwt beam="1">  1       21 0.34805621E-01 0.28609528E+03</pdfrwt>
<pdfrwt beam="2">  1       21 0.13915067E-01 0.28609528E+03</pdfrwt>
<totfact> 0.35040043E+05</totfact>
</mgrwt>
</event>
<event>
 8    1  0.9705063E-006  0.2884401E+03  0.7546771E-02  0.1091166E+00
         21   -1    0    0  504  503  0.00000000000E+00  0.00000000000E+00  0.19266717886E+03  0.19266717886E+03  0.00000000000E+00 0.  1.
         21   -1    0    0  503  504 -0.00000000000E+00 -0.00000000000E+00 -0.10795517511E+03  0.10795517511E+03  0.00000000000E+00 0.  1.
         25    2    1    2    0    0 -0.18179249887E+02  0.14689773007E+02 -0.28560439364E+02  0.13033196638E+03  0.12499779280E+03 0.  0.
         25    2    1    2    0    0  0.18179249887E+02 -0.14689773007E+02  0.11327244311E+03  0.17029038759E+03  0.12498758010E+03 0.  0.
          5    1    3    3  501    0  0.40159336594E+02  0.17221513824E+02 -0.51246559983E+02  0.67510390046E+02  0.47000000000E+01 0. -1.
         -5    1    3    3    0  501 -0.58338586481E+02 -0.25317408175E+01  0.22686120620E+02  0.62821576333E+02  0.47000000000E+01 0. -1.
          5    1    4    4  502    0 -0.43850542946E+02 -0.33879886554E+02  0.25943748493E+02  0.61366806300E+02  0.47000000000E+01 0. -1.
         -5    1    4    4    0  502  0.62029792833E+02  0.19190113547E+02  0.87328694617E+02  0.10892358129E+03  0.47000000000E+01 0. -1.
<mgrwt>
<rscale>  0 0.28844007E+03</rscale>
<asrwt>0</asrwt>
<pdfrwt beam="1">  1       21 0.29641105E-01 0.28844007E+03</pdfrwt>
<pdfrwt beam="2">  1       21 0.16608488E-01 0.28844007E+03</pdfrwt>
<totfact> 0.34781530E+05</totfact>
</mgrwt>
</event>
<event>
 8    1  0.9705063E-006  0.2959809E+03  0.7546771E-02  0.1087267E+00
         21   -1    0    0  504  503  0.00000000000E+00  0.00000000000E+00  0.33835241404E+02  0.33835241404E+02  0.00000000000E+00 0. -1.
         21   -1    0    0  503  504 -0.00000000000E+00 -0.00000000000E+00 -0.64728880805E+03  0.64728880805E+03  0.00000000000E+00 0. -1.
         25    2    1    2    0    0  0.65873166935E+02 -0.43692006061E+02 -0.31899396960E+03  0.35161208387E+03  0.12500255744E+03 0.  0.
         25    2    1    2    0    0 -0.65873166935E+02  0.43692006061E+02 -0.29445959705E+03  0.32951196559E+03  0.12499366246E+03 0.  0.
          5    1    3    3  501    0  0.26854529234E+02  0.66646914190E+01 -0.26909609154E+03  0.27055568804E+03  0.47000000000E+01 0. -1.
         -5    1    3    3    0  501  0.39018637701E+02 -0.50356697480E+02 -0.49897878065E+02  0.81056395827E+02  0.47000000000E+01 0. -1.
          5    1    4    4  502    0 -0.10152986553E+03  0.22610289553E+02 -0.23346753237E+03  0.25563395208E+03  0.47000000000E+01 0. -1.
         -5    1    4    4    0  502  0.35656698591E+02  0.21081716508E+02 -0.60992064681E+02  0.73878013505E+02  0.47000000000E+01 0. -1.
<mgrwt>
<rscale>  0 0.29598090E+03</rscale>
<asrwt>0</asrwt>
<pdfrwt beam="1">  1       21 0.52054218E-02 0.29598090E+03</pdfrwt>
<pdfrwt beam="2">  1       21 0.99582893E-01 0.29598090E+03</pdfrwt>
<totfact> 0.20193576E+05</totfact>
</mgrwt>
</event>
<event>
 8    1  0.9705063E-006  0.2606810E+03  0.7546771E-02  0.1106735E+00
         21   -1    0    0  504  503  0.00000000000E+00  0.00000000000E+00  0.98668799359E+02  0.98668799359E+02  0.00000000000E+00 0.  1.
         21   -1    0    0  503  504 -0.00000000000E+00 -0.00000000000E+00 -0.17217852102E+03  0.17217852102E+03  0.00000000000E+00 0.  1.
         25    2    1    2    0    0  0.17528555966E+02 -0.23395898072E+02 -0.13274996181E+02  0.12904733623E+03  0.12498948413E+03 0.  0.
         25    2    1    2    0    0 -0.17528555966E+02  0.23395898072E+02 -0.60234725484E+02  0.14179998415E+03  0.12499758010E+03 0.  0.
          5    1    3    3  501    0 -0.13623857524E+02  0.93516547924E+01  0.49017743537E+02  0.51941237207E+02  0.47000000000E+01 0. -1.
         -5    1    3    3    0  501  0.31152413490E+02 -0.32747552865E+02 -0.62292739718E+02  0.77106099023E+02  0.47000000000E+01 0. -1.
          5    1    4    4  502    0  0.37972237037E+02 -0.30353938544E+02 -0.36054708489E+02  0.60706543098E+02  0.47000000000E+01 0. -1.
         -5    1    4    4    0  502 -0.55500793003E+02  0.53749836616E+02 -0.24180016995E+02  0.81093441055E+02  0.47000000000E+01 0. -1.
<mgrwt>
<rscale>  0 0.26068102E+03</rscale>
<asrwt>0</asrwt>
<pdfrwt beam="1">  1       21 0.15179815E-01 0.26068102E+03</pdfrwt>
<pdfrwt beam="2">  1       21 0.26489003E-01 0.26068102E+03</pdfrwt>
<totfact> 0.51377192E+05</totfact>
</mgrwt>
</event>
<event>
 8    1  0.9705063E-006  0.2852069E+03  0.7546771E-02  0.1092879E+00
         21   -1    0    0  504  503  0.00000000000E+00  0.00000000000E+00  0.16122512261E+04  0.16122512261E+04  0.00000000000E+00 0. -1.
         21   -1    0    0  503  504 -0.00000000000E+00 -0.00000000000E+00 -0.12613256585E+02  0.12613256585E+02  0.00000000000E+00 0. -1.
         25    2    1    2    0    0  0.58325568301E+02  0.25672692190E+02  0.94464591878E+03  0.95500867345E+03  0.12499878181E+03 0.  0.
         25    2    1    2    0    0 -0.58325568301E+02 -0.25672692190E+02  0.65499205069E+03  0.66985580919E+03  0.12502503588E+03 0.  0.
          5    1    3    3  501    0  0.64570383843E+02  0.43034023481E+02  0.29460908094E+03  0.30469306231E+03  0.47000000000E+01 0. -1.
         -5    1    3    3    0  501 -0.62448155420E+01 -0.17361331291E+02  0.65003683784E+03  0.65031561114E+03  0.47000000000E+01 0. -1.
          5    1    4    4  502    0 -0.43565910047E+02  0.13214594041E+02  0.71690708468E+02  0.85054463108E+02  0.47000000000E+01 0.  1.
         -5    1    4    4    0  502 -0.14759658253E+02 -0.38887286231E+02  0.58330134222E+03  0.58480134608E+03  0.47000000000E+01 0.  1.
<mgrwt>
<rscale>  0 0.28520686E+03</rscale>
<asrwt>0</asrwt>
<pdfrwt beam="1">  1       21 0.24803849E+00 0.28520686E+03</pdfrwt>
<pdfrwt beam="2">  1       21 0.19405023E-02 0.28520686E+03</pdfrwt>
<totfact> 0.83528346E+04</totfact>
</mgrwt>
</event>
<event>
 8    1  0.9705063E-006  0.2767339E+03  0.7546771E-02  0.1097486E+00
         21   -1    0    0  504  503  0.00000000000E+00  0.00000000000E+00  0.11550159317E+03  0.11550159317E+03  0.00000000000E+00 0. -1.
         21   -1    0    0  503  504 -0.00000000000E+00 -0.00000000000E+00 -0.16575882430E+03  0.16575882430E+03  0.00000000000E+00 0. -1.
         25    2    1    2    0    0 -0.16627284481E+02 -0.21473350946E+02  0.28487596808E+02  0.13104948880E+03  0.12499941581E+03 0.  0.
         25    2    1    2    0    0  0.16627284481E+02  0.21473350946E+02 -0.78744827935E+02  0.15021092868E+03  0.12500001511E+03 0.  0.
          5    1    3    3  501    0 -0.49843947368E+02 -0.56750670055E+02  0.32163152074E+02  0.82229045916E+02  0.47000000000E+01 0.  1.
         -5    1    3    3    0  501  0.33216662887E+02  0.35277319108E+02 -0.36755552661E+01  0.48820442883E+02  0.47000000000E+01 0.  1.
          5    1    4    4  502    0  0.20936118739E+02 -0.12025519155E+02 -0.10457706974E+03  0.10743085075E+03  0.47000000000E+01 0. -1.
         -5    1    4    4    0  502 -0.43088342575E+01  0.33498870102E+02  0.25832241801E+02  0.42780077924E+02  0.47000000000E+01 0. -1.
<mgrwt>
<rscale>  0 0.27673387E+03</rscale>
<asrwt>0</asrwt>
<pdfrwt beam="1">  1       21 0.17769476E-01 0.27673387E+03</pdfrwt>
<pdfrwt beam="2">  1       21 0.25501358E-01 0.27673387E+03</pdfrwt>
<totfact> 0.41207227E+05</totfact>
</mgrwt>
</event>
<event>
 8    1  0.9705063E-006  0.2561285E+03  0.7546771E-02  0.1109492E+00
         21   -1    0    0  504  503  0.00000000000E+00  0.00000000000E+00  0.14539940520E+02  0.14539940520E+02  0.00000000000E+00 0. -1.
         21   -1    0    0  503  504 -0.00000000000E+00 -0.00000000000E+00 -0.11279586375E+04  0.11279586375E+04  0.00000000000E+00 0. -1.
         25    2    1    2    0    0 -0.43360212078E+01 -0.27436610676E+02 -0.56410496389E+03  0.57845742671E+03  0.12500806191E+03 0.  0.
         25    2    1    2    0    0  0.43360212078E+01  0.27436610676E+02 -0.54931373314E+03  0.56404115136E+03  0.12500109731E+03 0.  0.
          5    1    3    3  501    0  0.18098340536E+01  0.39748813871E+02 -0.38381100107E+03  0.38589664192E+03  0.47000000000E+01 0. -1.
         -5    1    3    3    0  501 -0.61458552615E+01 -0.67185424547E+02 -0.18029396282E+03  0.19256078479E+03  0.47000000000E+01 0. -1.
          5    1    4    4  502    0  0.45531025910E+02  0.33574708011E+02 -0.47771756715E+03  0.48107847520E+03  0.47000000000E+01 0.  1.
         -5    1    4    4    0  502 -0.41195004702E+02 -0.61380973349E+01 -0.71596165985E+02  0.82962676156E+02  0.47000000000E+01 0.  1.
<mgrwt>
<rscale>  0 0.25612850E+03</rscale>
<asrwt>0</asrwt>
<pdfrwt beam="1">  1       21 0.22369141E-02 0.25612850E+03</pdfrwt>
<pdfrwt beam="2">  1       21 0.17353209E+00 0.25612850E+03</pdfrwt>
<totfact> 0.20138423E+05</totfact>
</mgrwt>
</event>
<event>
 8    1  0.9705063E-006  0.2564668E+03  0.7546771E-02  0.1109285E+00
         21   -1    0    0  504  503  0.00000000000E+00  0.00000000000E+00  0.84646862345E+02  0.84646862345E+02  0.00000000000E+00 0.  1.
         21   -1    0    0  503  504 -0.00000000000E+00 -0.00000000000E+00 -0.19426355155E+03  0.19426355155E+03  0.00000000000E+00 0.  1.
         25    2    1    2    0    0  0.12280836679E+02 -0.70178990070E+01 -0.27786642419E+02  0.12882988021E+03  0.12499988273E+03 0.  0.
         25    2    1    2    0    0 -0.12280836679E+02  0.70178990070E+01 -0.81830046783E+02  0.15008053368E+03  0.12501176015E+03 0.  0.
          5    1    3    3  501    0 -0.11764632726E+02  0.36608155551E+02 -0.58468208143E+02  0.70136901838E+02  0.47000000000E+01 0. -1.
         -5    1    3    3    0  501  0.24045469405E+02 -0.43626054558E+02  0.30681565725E+02  0.58692978375E+02  0.47000000000E+01 0. -1.
          5    1    4    4  502    0 -0.14575987083E+02 -0.58228221848E+02 -0.35607255649E+02  0.69949638126E+02  0.47000000000E+01 0.  1.
         -5    1    4    4    0  502  0.22951504039E+01  0.65246120855E+02 -0.46222791133E+02  0.80130895553E+02  0.47000000000E+01 0.  1.
<mgrwt>
<rscale>  0 0.25646676E+03</rscale>
<asrwt>0</asrwt>
<pdfrwt beam="1">  1       21 0.13022594E-01 0.25646676E+03</pdfrwt>
<pdfrwt beam="2">  1       21 0.29886700E-01 0.25646676E+03</pdfrwt>
<totfact> 0.53750906E+05</totfact>
</mgrwt>
</event>
<event>
 8    1  0.9705063E-006  0.6603950E+03  0.7546771E-02  0.9787467E-01
         21   -1    0    0  504  503  0.00000000000E+00  0.00000000000E+00  0.37515682980E+03  0.37515682980E+03  0.00000000000E+00 0.  1.
         21   -1    0    0  503  504 -0.00000000000E+00 -0.00000000000E+00 -0.29062615268E+03  0.29062615268E+03  0.00000000000E+00 0.  1.
         25    2    1    2    0    0 -0.13373207653E+03  0.26907133820E+03  0.98585227012E+02  0.34004128047E+03  0.12500148842E+03 0.  0.
         25    2    1    2    0    0  0.13373207653E+03 -0.26907133820E+03 -0.14054549897E+02  0.32574170201E+03  0.12500589074E+03 0.  0.
          5    1    3    3  501    0 -0.59896324742E+02  0.22759724582E+03  0.44830009500E+02  0.23962448909E+03  0.47000000000E+01 0.  1.
         -5    1    3    3    0  501 -0.73835751792E+02  0.41474092385E+02  0.53755217512E+02  0.10041679138E+03  0.47000000000E+01 0.  1.
          5    1    4    4  502    0  0.26968922962E+02 -0.18922837478E+03  0.32420327128E+01  0.19122578645E+03  0.47000000000E+01 0. -1.
         -5    1    4    4    0  502  0.10676315357E+03 -0.79842963419E+02 -0.17296582610E+02  0.13451591556E+03  0.47000000000E+01 0. -1.
<mgrwt>
<rscale>  0 0.66039499E+03</rscale>
<asrwt>0</asrwt>
<pdfrwt beam="1">  1       21 0.57716435E-01 0.66039499E+03</pdfrwt>
<pdfrwt beam="2">  1       21 0.44711716E-01 0.66039499E+03</pdfrwt>
<totfact> 0.11536588E+04</totfact>
</mgrwt>
</event>
<event>
 8    1  0.9705063E-006  0.2649666E+03  0.7546771E-02  0.1104195E+00
         21   -1    0    0  504  503  0.00000000000E+00  0.00000000000E+00  0.11409029083E+03  0.11409029083E+03  0.00000000000E+00 0. -1.
         21   -1    0    0  503  504 -0.00000000000E+00 -0.00000000000E+00 -0.15384147450E+03  0.15384147450E+03  0.00000000000E+00 0. -1.
         25    2    1    2    0    0 -0.47287264615E+01  0.41642347106E+02 -0.66806434320E+01  0.13200852249E+03  0.12500069234E+03 0.  0.
         25    2    1    2    0    0  0.47287264615E+01 -0.41642347106E+02 -0.33070540239E+02  0.13592324285E+03  0.12500008556E+03 0.  0.
          5    1    3    3  501    0 -0.29190815283E+02  0.23844433011E+02  0.52840340359E+02  0.65075742422E+02  0.47000000000E+01 0.  1.
         -5    1    3    3    0  501  0.24462088822E+02  0.17797914095E+02 -0.59520983791E+02  0.66932780064E+02  0.47000000000E+01 0.  1.
          5    1    4    4  502    0 -0.57962717358E+02 -0.12721998234E+02 -0.29985978449E+02  0.66654142753E+02  0.47000000000E+01 0. -1.
         -5    1    4    4    0  502  0.62691443820E+02 -0.28920348872E+02 -0.30845617893E+01  0.69269100099E+02  0.47000000000E+01 0. -1.
<mgrwt>
<rscale>  0 0.26496655E+03</rscale>
<asrwt>0</asrwt>
<pdfrwt beam="1">  1       21 0.17552353E-01 0.26496655E+03</pdfrwt>
<pdfrwt beam="2">  1       21 0.23667919E-01 0.26496655E+03</pdfrwt>
<totfact> 0.48758270E+05</totfact>
</mgrwt>
</event>
<event>
 8    1  0.9705063E-006  0.3391078E+03  0.7546771E-02  0.1067177E+00
         21   -1    0    0  504  503  0.00000000000E+00  0.00000000000E+00  0.29632012310E+02  0.29632012310E+02  0.00000000000E+00 0.  1.
         21   -1    0    0  503  504 -0.00000000000E+00 -0.00000000000E+00 -0.97018495640E+03  0.97018495640E+03  0.00000000000E+00 0.  1.
         25    2    1    2    0    0 -0.10988600669E+01  0.10868064379E+03 -0.57696948044E+03  0.60027545025E+03  0.12499657991E+03 0.  0.
         25    2    1    2    0    0  0.10988600669E+01 -0.10868064379E+03 -0.36358346366E+03  0.39954151846E+03  0.12501119991E+03 0.  0.
          5    1    3    3  501    0  0.27458703708E+02  0.25380369823E+02 -0.40746376061E+03  0.40920282232E+03  0.47000000000E+01 0. -1.
         -5    1    3    3    0  501 -0.28557563774E+02  0.83300273965E+02 -0.16950571983E+03  0.19107262793E+03  0.47000000000E+01 0. -1.
          5    1    4    4  502    0 -0.52285695116E+02 -0.94452938583E+02 -0.20841456839E+03  0.23476344229E+03  0.47000000000E+01 0.  1.
         -5    1    4    4    0  502  0.53384555183E+02 -0.14227705204E+02 -0.15516889527E+03  0.16477807617E+03  0.47000000000E+01 0.  1.
<mgrwt>
<rscale>  0 0.33910784E+03</rscale>
<asrwt>0</asrwt>
<pdfrwt beam="1">  1       21 0.45587711E-02 0.33910784E+03</pdfrwt>
<pdfrwt beam="2">  1       21 0.14925923E+00 0.33910784E+03</pdfrwt>
<totfact> 0.89938104E+04</totfact>
</mgrwt>
</event>
<event>
 8    1  0.9705063E-006  0.3086297E+03  0.7546771E-02  0.1081005E+00
         21   -1    0    0  504  503  0.00000000000E+00  0.00000000000E+00  0.38914751463E+03  0.38914751463E+03  0.00000000000E+00 0. -1.
         21   -1    0    0  503  504 -0.00000000000E+00 -0.00000000000E+00 -0.61192938156E+02  0.61192938156E+02  0.00000000000E+00 0. -1.
         25    2    1    2    0    0 -0.65972497899E+02 -0.55265161701E+02  0.20478065874E+03  0.25488167438E+03  0.12499176440E+03 0.  0.
         25    2    1    2    0    0  0.65972497899E+02  0.55265161701E+02  0.12317391773E+03  0.19545877840E+03  0.12500284583E+03 0.  0.
          5    1    3    3  501    0 -0.20949226056E+02 -0.22067991949E+02 -0.10400996532E+02  0.32498262567E+02  0.47000000000E+01 0. -1.
         -5    1    3    3    0  501 -0.45023271843E+02 -0.33197169751E+02  0.21518165527E+03  0.22238341182E+03  0.47000000000E+01 0. -1.
          5    1    4    4  502    0 -0.22282424375E+02  0.52192518945E+02  0.76787720830E+02  0.95598167033E+02  0.47000000000E+01 0. -1.
         -5    1    4    4    0  502  0.88254922274E+02  0.30726427556E+01  0.46386196901E+02  0.99860611365E+02  0.47000000000E+01 0. -1.
<mgrwt>
<rscale>  0 0.30862974E+03</rscale>
<asrwt>0</asrwt>
<pdfrwt beam="1">  1       21 0.59868847E-01 0.30862974E+03</pdfrwt>
<pdfrwt beam="2">  1       21 0.94142984E-02 0.30862974E+03</pdfrwt>
<totfact> 0.22797873E+05</totfact>
</mgrwt>
</event>
<event>
 8    1  0.9705063E-006  0.3591619E+03  0.7546771E-02  0.1058916E+00
         21   -1    0    0  504  503  0.00000000000E+00  0.00000000000E+00  0.22884572734E+03  0.22884572734E+03  0.00000000000E+00 0. -1.
         21   -1    0    0  503  504 -0.00000000000E+00 -0.00000000000E+00 -0.14092167982E+03  0.14092167982E+03  0.00000000000E+00 0. -1.
         25    2    1    2    0    0 -0.42976617736E+02 -0.13621380993E+02 -0.80402115286E+02  0.15531081586E+03  0.12499767073E+03 0.  0.
         25    2    1    2    0    0  0.42976617736E+02  0.13621380993E+02  0.16832616280E+03  0.21445659130E+03  0.12500160309E+03 0.  0.
          5    1    3    3  501    0 -0.97947590864E+01  0.24173525405E+02 -0.98231144024E+02  0.10174352211E+03  0.47000000000E+01 0.  1.
         -5    1    3    3    0  501 -0.33181858649E+02 -0.37794906398E+02  0.17829028738E+02  0.53567293742E+02  0.47000000000E+01 0.  1.
          5    1    4    4  502    0 -0.34816986596E+02 -0.21021399628E+02  0.89066178340E+02  0.98025486084E+02  0.47000000000E+01 0. -1.
         -5    1    4    4    0  502  0.77793604332E+02  0.34642780621E+02  0.79259984462E+02  0.11643110521E+03  0.47000000000E+01 0. -1.
<mgrwt>
<rscale>  0 0.35916194E+03</rscale>
<asrwt>0</asrwt>
<pdfrwt beam="1">  1       21 0.35207035E-01 0.35916194E+03</pdfrwt>
<pdfrwt beam="2">  1       21 0.21680258E-01 0.35916194E+03</pdfrwt>
<totfact> 0.14752649E+05</totfact>
</mgrwt>
</event>
<event>
 8    1  0.9705063E-006  0.3162088E+03  0.7546771E-02  0.1077407E+00
         21   -1    0    0  504  503  0.00000000000E+00  0.00000000000E+00  0.96225817979E+02  0.96225817979E+02  0.00000000000E+00 0. -1.
         21   -1    0    0  503  504 -0.00000000000E+00 -0.00000000000E+00 -0.25977440014E+03  0.25977440014E+03  0.00000000000E+00 0. -1.
         25    2    1    2    0    0  0.11668717946E+02  0.63425111570E+02 -0.16306982686E+03  0.21534831527E+03  0.12499689877E+03 0.  0.
         25    2    1    2    0    0 -0.11668717946E+02 -0.63425111570E+02 -0.47875530423E+00  0.14065190285E+03  0.12499529916E+03 0.  0.
          5    1    3    3  501    0 -0.22153026859E+02 -0.30913854657E+02 -0.62352467142E+02  0.73187042347E+02  0.47000000000E+01 0.  1.
         -5    1    3    3    0  501  0.33821744805E+02  0.94338966227E+02 -0.10071735971E+03  0.14216127292E+03  0.47000000000E+01 0.  1.
          5    1    4    4  502    0 -0.21347394089E+02 -0.96096766035E+02  0.20083259067E+02  0.10057697038E+03  0.47000000000E+01 0. -1.
         -5    1    4    4    0  502  0.96786761427E+01  0.32671654465E+02 -0.20562014371E+02  0.40074932468E+02  0.47000000000E+01 0. -1.
<mgrwt>
<rscale>  0 0.31620882E+03</rscale>
<asrwt>0</asrwt>
<pdfrwt beam="1">  1       21 0.14803972E-01 0.31620882E+03</pdfrwt>
<pdfrwt beam="2">  1       21 0.39965292E-01 0.31620882E+03</pdfrwt>
<totfact> 0.23512137E+05</totfact>
</mgrwt>
</event>
<event>
 8    1  0.9705063E-006  0.4447020E+03  0.7546771E-02  0.1029314E+00
         21   -1    0    0  504  503  0.00000000000E+00  0.00000000000E+00  0.71028626013E+03  0.71028626013E+03  0.00000000000E+00 0. -1.
         21   -1    0    0  503  504 -0.00000000000E+00 -0.00000000000E+00 -0.69605678269E+02  0.69605678269E+02  0.00000000000E+00 0. -1.
         25    2    1    2    0    0  0.54199848307E+01 -0.17786375128E+03  0.23903350160E+03  0.32315291370E+03  0.12500360191E+03 0.  0.
         25    2    1    2    0    0 -0.54199848307E+01  0.17786375128E+03  0.40164708026E+03  0.45673902470E+03  0.12500107738E+03 0.  0.
          5    1    3    3  501    0 -0.77476100152E+01 -0.12198110584E+03  0.62301462808E+02  0.13726972686E+03  0.47000000000E+01 0.  1.
         -5    1    3    3    0  501  0.13167594846E+02 -0.55882645435E+02  0.17673203879E+03  0.18588318684E+03  0.47000000000E+01 0.  1.
          5    1    4    4  502    0  0.45984253774E+02  0.13676986478E+03  0.21680697378E+03  0.26047629716E+03  0.47000000000E+01 0. -1.
         -5    1    4    4    0  502 -0.51404238604E+02  0.41093886501E+02  0.18484010648E+03  0.19626272753E+03  0.47000000000E+01 0. -1.
<mgrwt>
<rscale>  0 0.44470195E+03</rscale>
<asrwt>0</asrwt>
<pdfrwt beam="1">  1       21 0.10927480E+00 0.44470195E+03</pdfrwt>
<pdfrwt beam="2">  1       21 0.10708566E-01 0.44470195E+03</pdfrwt>
<totfact> 0.43626010E+04</totfact>
</mgrwt>
</event>
<event>
 8    1  0.9705063E-006  0.3629696E+03  0.7546771E-02  0.1057414E+00
         21   -1    0    0  504  503  0.00000000000E+00  0.00000000000E+00  0.42114976384E+02  0.42114976384E+02  0.00000000000E+00 0. -1.
         21   -1    0    0  503  504 -0.00000000000E+00 -0.00000000000E+00 -0.78206705467E+03  0.78206705467E+03  0.00000000000E+00 0. -1.
         25    2    1    2    0    0  0.64888829136E+02 -0.96451428922E+02 -0.50995202605E+03  0.53775965455E+03  0.12498375454E+03 0.  0.
         25    2    1    2    0    0 -0.64888829136E+02  0.96451428922E+02 -0.23000005224E+03  0.28642237651E+03  0.12499726176E+03 0.  0.
          5    1    3    3  501    0 -0.17786705800E+01 -0.47262748184E+02 -0.38398785629E+03  0.38691820171E+03  0.47000000000E+01 0.  1.
         -5    1    3    3    0  501  0.66667499716E+02 -0.49188680738E+02 -0.12596416976E+03  0.15084145284E+03  0.47000000000E+01 0.  1.
          5    1    4    4  502    0 -0.70910919152E+02  0.13184484066E+00 -0.12455690917E+03  0.14340463542E+03  0.47000000000E+01 0.  1.
         -5    1    4    4    0  502  0.60220900161E+01  0.96319584082E+02 -0.10544314306E+03  0.14301774108E+03  0.47000000000E+01 0.  1.
<mgrwt>
<rscale>  0 0.36296962E+03</rscale>
<asrwt>0</asrwt>
<pdfrwt beam="1">  1       21 0.64792278E-02 0.36296962E+03</pdfrwt>
<pdfrwt beam="2">  1       21 0.12031800E+00 0.36296962E+03</pdfrwt>
<totfact> 0.85384677E+04</totfact>
</mgrwt>
</event>
<event>
 8    1  0.9705063E-006  0.3243054E+03  0.7546771E-02  0.1073685E+00
         21   -1    0    0  504  503  0.00000000000E+00  0.00000000000E+00  0.69429716744E+02  0.69429716744E+02  0.00000000000E+00 0. -1.
         21   -1    0    0  503  504 -0.00000000000E+00 -0.00000000000E+00 -0.37870678342E+03  0.37870678342E+03  0.00000000000E+00 0. -1.
         25    2    1    2    0    0  0.23220619474E+02  0.34993383323E+02 -0.28503697465E+03  0.31406139697E+03  0.12499900042E+03 0.  0.
         25    2    1    2    0    0 -0.23220619474E+02 -0.34993383323E+02 -0.24240092027E+02  0.13407510319E+03  0.12499926875E+03 0.  0.
          5    1    3    3  501    0 -0.42712643140E+02  0.29467412101E+02 -0.60065757909E+02  0.79515303767E+02  0.47000000000E+01 0.  1.
         -5    1    3    3    0  501  0.65933262615E+02  0.55259712217E+01 -0.22497121674E+03  0.23454609321E+03  0.47000000000E+01 0.  1.
          5    1    4    4  502    0  0.33701189989E+02  0.18835630616E+02 -0.38021774374E+02  0.54390224434E+02  0.47000000000E+01 0.  1.
         -5    1    4    4    0  502 -0.56921809464E+02 -0.53829013939E+02  0.13781682347E+02  0.79684878757E+02  0.47000000000E+01 0.  1.
<mgrwt>
<rscale>  0 0.32430544E+03</rscale>
<asrwt>0</asrwt>
<pdfrwt beam="1">  1       21 0.10681495E-01 0.32430544E+03</pdfrwt>
<pdfrwt beam="2">  1       21 0.58262582E-01 0.32430544E+03</pdfrwt>
<totfact> 0.19233780E+05</totfact>
</mgrwt>
</event>
<event>
 8    1  0.9705063E-006  0.2827047E+03  0.7546771E-02  0.1094221E+00
         21   -1    0    0  504  503  0.00000000000E+00  0.00000000000E+00  0.88641107289E+02  0.88641107289E+02  0.00000000000E+00 0.  1.
         21   -1    0    0  503  504 -0.00000000000E+00 -0.00000000000E+00 -0.22540879124E+03  0.22540879124E+03  0.00000000000E+00 0.  1.
         25    2    1    2    0    0  0.53137135942E+01 -0.62838622778E+02 -0.90045569598E+02  0.16646484864E+03  0.12500165264E+03 0.  0.
         25    2    1    2    0    0 -0.53137135942E+01  0.62838622778E+02 -0.46722114349E+02  0.14758504989E+03  0.12498585086E+03 0.  0.
          5    1    3    3  501    0 -0.53784019703E+02 -0.23125429991E+02 -0.10606769016E+02  0.59683329638E+02  0.47000000000E+01 0.  1.
         -5    1    3    3    0  501  0.59097733297E+02 -0.39713192787E+02 -0.79438800583E+02  0.10678151900E+03  0.47000000000E+01 0.  1.
          5    1    4    4  502    0  0.22123823151E+02  0.38326783657E+02 -0.83960867458E+02  0.95025907838E+02  0.47000000000E+01 0. -1.
         -5    1    4    4    0  502 -0.27437536746E+02  0.24511839122E+02  0.37238753109E+02  0.52559142049E+02  0.47000000000E+01 0. -1.
<mgrwt>
<rscale>  0 0.28270469E+03</rscale>
<asrwt>0</asrwt>
<pdfrwt beam="1">  1       21 0.13637093E-01 0.28270469E+03</pdfrwt>
<pdfrwt beam="2">  1       21 0.34678276E-01 0.28270469E+03</pdfrwt>
<totfact> 0.36645742E+05</totfact>
</mgrwt>
</event>
<event>
 8    1  0.9705063E-006  0.2854980E+03  0.7546771E-02  0.1092723E+00
         21   -1    0    0  504  503  0.00000000000E+00  0.00000000000E+00  0.73950239208E+03  0.73950239208E+03  0.00000000000E+00 0.  1.
         21   -1    0    0  503  504 -0.00000000000E+00 -0.00000000000E+00 -0.27555391943E+02  0.27555391943E+02  0.00000000000E+00 0.  1.
         25    2    1    2    0    0  0.29386321334E+02  0.55808714557E+02  0.43071944065E+03  0.45290517182E+03  0.12500275839E+03 0.  0.
         25    2    1    2    0    0 -0.29386321334E+02 -0.55808714557E+02  0.28122755948E+03  0.31415261220E+03  0.12499902015E+03 0.  0.
          5    1    3    3  501    0 -0.11118665722E+02  0.82539007203E+02  0.19329977124E+03  0.21053076735E+03  0.47000000000E+01 0.  1.
         -5    1    3    3    0  501  0.40504987056E+02 -0.26730292647E+02  0.23741966941E+03  0.24237440448E+03  0.47000000000E+01 0.  1.
          5    1    4    4  502    0  0.16475951973E+02 -0.53336281902E+02  0.25494447807E+03  0.26102680487E+03  0.47000000000E+01 0. -1.
         -5    1    4    4    0  502 -0.45862273307E+02 -0.24724326551E+01  0.26283081411E+02  0.53125807332E+02  0.47000000000E+01 0. -1.
<mgrwt>
<rscale>  0 0.28549801E+03</rscale>
<asrwt>0</asrwt>
<pdfrwt beam="1">  1       21 0.11376958E+00 0.28549801E+03</pdfrwt>
<pdfrwt beam="2">  1       21 0.42392916E-02 0.28549801E+03</pdfrwt>
<totfact> 0.20774054E+05</totfact>
</mgrwt>
</event>
<event>
 8    1  0.9705063E-006  0.3176816E+03  0.7546771E-02  0.1076721E+00
         21   -1    0    0  504  503  0.00000000000E+00  0.00000000000E+00  0.63266541642E+03  0.63266541642E+03  0.00000000000E+00 0. -1.
         21   -1    0    0  503  504 -0.00000000000E+00 -0.00000000000E+00 -0.39879529456E+02  0.39879529456E+02  0.00000000000E+00 0. -1.
         25    2    1    2    0    0  0.48887698887E+02  0.79979697250E+02  0.23580057790E+03  0.28286646053E+03  0.12499905151E+03 0.  0.
         25    2    1    2    0    0 -0.48887698887E+02 -0.79979697250E+02  0.35698530905E+03  0.38967848534E+03  0.12499620787E+03 0.  0.
          5    1    3    3  501    0  0.50287478230E+02  0.94883976048E+02  0.24291817196E+03  0.26563721058E+03  0.47000000000E+01 0.  1.
         -5    1    3    3    0  501 -0.13997793426E+01 -0.14904278798E+02 -0.71175940555E+01  0.17229249949E+02  0.47000000000E+01 0.  1.
          5    1    4    4  502    0 -0.23645555705E+02 -0.74132638003E+01  0.27887658711E+03  0.28001483822E+03  0.47000000000E+01 0. -1.
         -5    1    4    4    0  502 -0.25242143182E+02 -0.72566433450E+02  0.78108721943E+02  0.10966364712E+03  0.47000000000E+01 0. -1.
<mgrwt>
<rscale>  0 0.31768160E+03</rscale>
<asrwt>0</asrwt>
<pdfrwt beam="1">  1       21 0.97333133E-01 0.31768160E+03</pdfrwt>
<pdfrwt beam="2">  1       21 0.61353127E-02 0.31768160E+03</pdfrwt>
<totfact> 0.15980647E+05</totfact>
</mgrwt>
</event>
<event>
 8    1  0.9705063E-006  0.2805169E+03  0.7546771E-02  0.1095407E+00
         21   -1    0    0  504  503  0.00000000000E+00  0.00000000000E+00  0.16932293680E+03  0.16932293680E+03  0.00000000000E+00 0.  1.
         21   -1    0    0  503  504 -0.00000000000E+00 -0.00000000000E+00 -0.11618290055E+03  0.11618290055E+03  0.00000000000E+00 0.  1.
         25    2    1    2    0    0  0.50618185912E+02  0.16151311505E+02  0.62221944849E+02  0.14939686422E+03  0.12499914803E+03 0.  0.
         25    2    1    2    0    0 -0.50618185912E+02 -0.16151311505E+02 -0.90819085934E+01  0.13610897313E+03  0.12498042205E+03 0.  0.
          5    1    3    3  501    0  0.12851476878E+02 -0.62115888383E+01 -0.37468989894E+02  0.40370279879E+02  0.47000000000E+01 0. -1.
         -5    1    3    3    0  501  0.37766709034E+02  0.22362900343E+02  0.99690934742E+02  0.10902658434E+03  0.47000000000E+01 0. -1.
          5    1    4    4  502    0 -0.67935522094E+02 -0.45381862688E+02  0.27147218931E+02  0.86219546037E+02  0.47000000000E+01 0.  1.
         -5    1    4    4    0  502  0.17317336182E+02  0.29230551183E+02 -0.36229127524E+02  0.49889427096E+02  0.47000000000E+01 0.  1.
<mgrwt>
<rscale>  0 0.28051688E+03</rscale>
<asrwt>0</asrwt>
<pdfrwt beam="1">  1       21 0.26049682E-01 0.28051688E+03</pdfrwt>
<pdfrwt beam="2">  1       21 0.17874292E-01 0.28051688E+03</pdfrwt>
<totfact> 0.39090521E+05</totfact>
</mgrwt>
</event>
<event>
 8    1  0.9705063E-006  0.3352941E+03  0.7546771E-02  0.1068818E+00
         21   -1    0    0  504  503  0.00000000000E+00  0.00000000000E+00  0.15026920347E+03  0.15026920347E+03  0.00000000000E+00 0. -1.
         21   -1    0    0  503  504 -0.00000000000E+00 -0.00000000000E+00 -0.18703455004E+03  0.18703455004E+03  0.00000000000E+00 0. -1.
         25    2    1    2    0    0  0.10318496034E+03  0.40125643595E+02 -0.36239044957E+01  0.16707257392E+03  0.12507161531E+03 0.  0.
         25    2    1    2    0    0 -0.10318496034E+03 -0.40125643595E+02 -0.33141442071E+02  0.17023117960E+03  0.12499238380E+03 0.  0.
          5    1    3    3  501    0 -0.26956845542E+02 -0.19754509144E+01  0.10731138611E+02  0.29458806218E+02  0.47000000000E+01 0. -1.
         -5    1    3    3    0  501  0.13014180589E+03  0.42101094510E+02 -0.14355043107E+02  0.13761376770E+03  0.47000000000E+01 0. -1.
          5    1    4    4  502    0 -0.11665712771E+03 -0.24426278140E+02 -0.61986742187E+02  0.13442460607E+03  0.47000000000E+01 0.  1.
         -5    1    4    4    0  502  0.13472167365E+02 -0.15699365455E+02  0.28845300116E+02  0.35806573530E+02  0.47000000000E+01 0.  1.
<mgrwt>
<rscale>  0 0.33529410E+03</rscale>
<asrwt>0</asrwt>
<pdfrwt beam="1">  1       21 0.23118339E-01 0.33529410E+03</pdfrwt>
<pdfrwt beam="2">  1       21 0.28774546E-01 0.33529410E+03</pdfrwt>
<totfact> 0.19586279E+05</totfact>
</mgrwt>
</event>
<event>
 8    1  0.9705063E-006  0.3921284E+03  0.7546771E-02  0.1046540E+00
         21   -1    0    0  504  503  0.00000000000E+00  0.00000000000E+00  0.68108018159E+03  0.68108018159E+03  0.00000000000E+00 0. -1.
         21   -1    0    0  503  504 -0.00000000000E+00 -0.00000000000E+00 -0.56441469375E+02  0.56441469375E+02  0.00000000000E+00 0. -1.
         25    2    1    2    0    0  0.10750964883E+03  0.10602659974E+03  0.30490964974E+03  0.36248402258E+03  0.12499923072E+03 0.  0.
         25    2    1    2    0    0 -0.10750964883E+03 -0.10602659974E+03  0.31972906247E+03  0.37503762838E+03  0.12500633932E+03 0.  0.
          5    1    3    3  501    0  0.12427072958E+03  0.62936350080E+02  0.27170061309E+03  0.30536455515E+03  0.47000000000E+01 0.  1.
         -5    1    3    3    0  501 -0.16761080757E+02  0.43090249658E+02  0.33209036652E+02  0.57119467426E+02  0.47000000000E+01 0.  1.
          5    1    4    4  502    0 -0.10244437357E+03 -0.12803481518E+03  0.30845436968E+03  0.34936220710E+03  0.47000000000E+01 0. -1.
         -5    1    4    4    0  502 -0.50652752587E+01  0.22008215442E+02  0.11274692788E+02  0.25675421279E+02  0.47000000000E+01 0. -1.
<mgrwt>
<rscale>  0 0.39212838E+03</rscale>
<asrwt>0</asrwt>
<pdfrwt beam="1">  1       21 0.10478156E+00 0.39212838E+03</pdfrwt>
<pdfrwt beam="2">  1       21 0.86833035E-02 0.39212838E+03</pdfrwt>
<totfact> 0.71351197E+04</totfact>
</mgrwt>
</event>
<event>
 8    1  0.9705063E-006  0.2961240E+03  0.7546771E-02  0.1087194E+00
         21   -1    0    0  504  503  0.00000000000E+00  0.00000000000E+00  0.28610834465E+03  0.28610834465E+03  0.00000000000E+00 0. -1.
         21   -1    0    0  503  504 -0.00000000000E+00 -0.00000000000E+00 -0.76622565664E+02  0.76622565664E+02  0.00000000000E+00 0. -1.
         25    2    1    2    0    0  0.74839184155E+01 -0.31056186965E+02  0.19372875457E+03  0.23275442484E+03  0.12499318442E+03 0.  0.
         25    2    1    2    0    0 -0.74839184155E+01  0.31056186965E+02  0.15757024415E+02  0.12997648547E+03  0.12500042869E+03 0.  0.
          5    1    3    3  501    0  0.23841050860E+02 -0.42967932805E+02  0.20378248743E+03  0.20967601469E+03  0.47000000000E+01 0.  1.
         -5    1    3    3    0  501 -0.16357132444E+02  0.11911745840E+02 -0.10053732855E+02  0.23078410150E+02  0.47000000000E+01 0.  1.
          5    1    4    4  502    0 -0.65513777685E+02  0.25597951232E+02  0.10389583761E+02  0.71255481365E+02  0.47000000000E+01 0. -1.
         -5    1    4    4    0  502  0.58029859269E+02  0.54582357330E+01  0.53674406535E+01  0.58721004107E+02  0.47000000000E+01 0. -1.
<mgrwt>
<rscale>  0 0.29612400E+03</rscale>
<asrwt>0</asrwt>
<pdfrwt beam="1">  1       21 0.44016668E-01 0.29612400E+03</pdfrwt>
<pdfrwt beam="2">  1       21 0.11788087E-01 0.29612400E+03</pdfrwt>
<totfact> 0.29310310E+05</totfact>
</mgrwt>
</event>
<event>
 8    1  0.9705063E-006  0.2732390E+03  0.7546771E-02  0.1099440E+00
         21   -1    0    0  504  503  0.00000000000E+00  0.00000000000E+00  0.93510198300E+03  0.93510198300E+03  0.00000000000E+00 0.  1.
         21   -1    0    0  503  504 -0.00000000000E+00 -0.00000000000E+00 -0.19960276530E+02  0.19960276530E+02  0.00000000000E+00 0.  1.
         25    2    1    2    0    0 -0.42777007067E+02 -0.22145248126E+02  0.55182905538E+03  0.56785638511E+03  0.12500113361E+03 0.  0.
         25    2    1    2    0    0  0.42777007067E+02  0.22145248126E+02  0.36331265109E+03  0.38720587442E+03  0.12494807879E+03 0.  0.
          5    1    3    3  501    0  0.24235885158E+02 -0.38806266693E+02  0.92090973326E+02  0.10293756279E+03  0.47000000000E+01 0. -1.
         -5    1    3    3    0  501 -0.67012892225E+02  0.16661018567E+02  0.45973808205E+03  0.46491882232E+03  0.47000000000E+01 0. -1.
          5    1    4    4  502    0 -0.28616257135E+02  0.49437873748E+02  0.15878583284E+03  0.16881357837E+03  0.47000000000E+01 0.  1.
         -5    1    4    4    0  502  0.71393264202E+02 -0.27292625622E+02  0.20452681825E+03  0.21839229605E+03  0.47000000000E+01 0.  1.
<mgrwt>
<rscale>  0 0.27323905E+03</rscale>
<asrwt>0</asrwt>
<pdfrwt beam="1">  1       21 0.14386181E+00 0.27323905E+03</pdfrwt>
<pdfrwt beam="2">  1       21 0.30708125E-02 0.27323905E+03</pdfrwt>
<totfact> 0.19719106E+05</totfact>
</mgrwt>
</event>
<event>
 8    1  0.9705063E-006  0.3030751E+03  0.7546771E-02  0.1083713E+00
         21   -1    0    0  504  503  0.00000000000E+00  0.00000000000E+00  0.41358270206E+02  0.41358270206E+02  0.00000000000E+00 0.  1.
         21   -1    0    0  503  504 -0.00000000000E+00 -0.00000000000E+00 -0.55523683967E+03  0.55523683967E+03  0.00000000000E+00 0.  1.
         25    2    1    2    0    0 -0.10385814228E+02  0.28995968369E+02 -0.99592976523E+02  0.16276402542E+03  0.12499894271E+03 0.  0.
         25    2    1    2    0    0  0.10385814228E+02 -0.28995968369E+02 -0.41428559294E+03  0.43383108446E+03  0.12501290336E+03 0.  0.
          5    1    3    3  501    0 -0.35167877750E+02 -0.38700464825E+02 -0.22528131157E+02  0.57132410211E+02  0.47000000000E+01 0.  1.
         -5    1    3    3    0  501  0.24782063522E+02  0.67696433194E+02 -0.77064845365E+02  0.10563161520E+03  0.47000000000E+01 0.  1.
          5    1    4    4  502    0  0.65709533129E+01  0.46910626935E+02 -0.22138642647E+03  0.22644607343E+03  0.47000000000E+01 0.  1.
         -5    1    4    4    0  502  0.38148609155E+01 -0.75906595304E+02 -0.19289916647E+03  0.20738501103E+03  0.47000000000E+01 0.  1.
<mgrwt>
<rscale>  0 0.30307514E+03</rscale>
<asrwt>0</asrwt>
<pdfrwt beam="1">  1       21 0.63628108E-02 0.30307514E+03</pdfrwt>
<pdfrwt beam="2">  1       21 0.85421052E-01 0.30307514E+03</pdfrwt>
<totfact> 0.20468287E+05</totfact>
</mgrwt>
</event>
<event>
 8    1  0.9705063E-006  0.2763957E+03  0.7546771E-02  0.1097674E+00
         21   -1    0    0  504  503  0.00000000000E+00  0.00000000000E+00  0.16669962023E+04  0.16669962023E+04  0.00000000000E+00 0. -1.
         21   -1    0    0  503  504 -0.00000000000E+00 -0.00000000000E+00 -0.11456920129E+02  0.11456920129E+02  0.00000000000E+00 0. -1.
         25    2    1    2    0    0  0.40279767972E+02 -0.27631738563E+02  0.10280433963E+04  0.10367658560E+04  0.12499697180E+03 0.  0.
         25    2    1    2    0    0 -0.40279767972E+02  0.27631738563E+02  0.62749588593E+03  0.64168726641E+03  0.12500195333E+03 0.  0.
          5    1    3    3  501    0 -0.24554370260E+02 -0.53481695048E+02  0.61638837920E+03  0.61920911881E+03  0.47000000000E+01 0. -1.
         -5    1    3    3    0  501  0.64834138231E+02  0.25849956485E+02  0.41165501707E+03  0.41755673724E+03  0.47000000000E+01 0. -1.
          5    1    4    4  502    0 -0.31308849998E+02 -0.44572651005E+01  0.59168345963E+03  0.59254663757E+03  0.47000000000E+01 0. -1.
         -5    1    4    4    0  502 -0.89709179734E+01  0.32089003663E+02  0.35812426301E+02  0.49140628842E+02  0.47000000000E+01 0. -1.
<mgrwt>
<rscale>  0 0.27639568E+03</rscale>
<asrwt>0</asrwt>
<pdfrwt beam="1">  1       21 0.25646076E+00 0.27639568E+03</pdfrwt>
<pdfrwt beam="2">  1       21 0.17626044E-02 0.27639568E+03</pdfrwt>
<totfact> 0.87420473E+04</totfact>
</mgrwt>
</event>
<event>
 8    1  0.9705063E-006  0.3224105E+03  0.7546771E-02  0.1074545E+00
         21   -1    0    0  504  503  0.00000000000E+00  0.00000000000E+00  0.75408564534E+03  0.75408564534E+03  0.00000000000E+00 0.  1.
         21   -1    0    0  503  504 -0.00000000000E+00 -0.00000000000E+00 -0.34461781184E+02  0.34461781184E+02  0.00000000000E+00 0.  1.
         25    2    1    2    0    0  0.21978743165E+01  0.67645717606E+02  0.54584395374E+03  0.56404974298E+03  0.12500286777E+03 0.  0.
         25    2    1    2    0    0 -0.21978743165E+01 -0.67645717606E+02  0.17377991041E+03  0.22449768354E+03  0.12497591325E+03 0.  0.
          5    1    3    3  501    0  0.41352521768E+02  0.15478244199E+02  0.41894240905E+03  0.42128902098E+03  0.47000000000E+01 0.  1.
         -5    1    3    3    0  501 -0.39154647451E+02  0.52167473407E+02  0.12690154470E+03  0.14276072200E+03  0.47000000000E+01 0.  1.
          5    1    4    4  502    0 -0.98710538670E+01 -0.24165494043E+02  0.17793607290E+03  0.17990204236E+03  0.47000000000E+01 0.  1.
         -5    1    4    4    0  502  0.76731795504E+01 -0.43480223562E+02 -0.41561624939E+01  0.44595641179E+02  0.47000000000E+01 0.  1.
<mgrwt>
<rscale>  0 0.32241051E+03</rscale>
<asrwt>0</asrwt>
<pdfrwt beam="1">  1       21 0.11601316E+00 0.32241051E+03</pdfrwt>
<pdfrwt beam="2">  1       21 0.53018130E-02 0.32241051E+03</pdfrwt>
<totfact> 0.13379587E+05</totfact>
</mgrwt>
</event>
<event>
 8    1  0.9705063E-006  0.3037612E+03  0.7546771E-02  0.1083375E+00
         21   -1    0    0  504  503  0.00000000000E+00  0.00000000000E+00  0.15217981773E+02  0.15217981773E+02  0.00000000000E+00 0.  1.
         21   -1    0    0  503  504 -0.00000000000E+00 -0.00000000000E+00 -0.15158193780E+04  0.15158193780E+04  0.00000000000E+00 0.  1.
         25    2    1    2    0    0  0.98437594225E+01  0.63955291307E+02 -0.46256497133E+03  0.48350096152E+03  0.12497859101E+03 0.  0.
         25    2    1    2    0    0 -0.98437594225E+01 -0.63955291307E+02 -0.10380364249E+04  0.10475363983E+04  0.12500282937E+03 0.  0.
          5    1    3    3  501    0  0.49265761747E+02  0.53991413810E+02 -0.41193036862E+03  0.41839085391E+03  0.47000000000E+01 0.  1.
         -5    1    3    3    0  501 -0.39422002324E+02  0.99638774966E+01 -0.50634602703E+02  0.65110107609E+02  0.47000000000E+01 0.  1.
          5    1    4    4  502    0 -0.17116045883E+02 -0.53623880562E+02 -0.10305890557E+04  0.10321358299E+04  0.47000000000E+01 0. -1.
         -5    1    4    4    0  502  0.72722864607E+01 -0.10331410745E+02 -0.74473692178E+01  0.15400568386E+02  0.47000000000E+01 0. -1.
<mgrwt>
<rscale>  0 0.30376117E+03</rscale>
<asrwt>0</asrwt>
<pdfrwt beam="1">  1       21 0.23412273E-02 0.30376117E+03</pdfrwt>
<pdfrwt beam="2">  1       21 0.23320305E+00 0.30376117E+03</pdfrwt>
<totfact> 0.74828726E+04</totfact>
</mgrwt>
</event>
<event>
 8    1  0.9705063E-006  0.3706066E+03  0.7546771E-02  0.1054461E+00
         21   -1    0    0  504  503  0.00000000000E+00  0.00000000000E+00  0.22824277277E+02  0.22824277277E+02  0.00000000000E+00 0.  1.
         21   -1    0    0  503  504 -0.00000000000E+00 -0.00000000000E+00 -0.15044202991E+04  0.15044202991E+04  0.00000000000E+00 0.  1.
         25    2    1    2    0    0  0.87349335577E+02 -0.80746374651E+02 -0.10190432696E+04  0.10335491603E+04  0.12499919252E+03 0.  0.
         25    2    1    2    0    0 -0.87349335577E+02  0.80746374651E+02 -0.46255275227E+03  0.49369541605E+03  0.12502092528E+03 0.  0.
          5    1    3    3  501    0  0.28795904157E+01 -0.66235121378E+02 -0.21764550601E+03  0.22756765945E+03  0.47000000000E+01 0.  1.
         -5    1    3    3    0  501  0.84469745161E+02 -0.14511253273E+02 -0.80139776357E+03  0.80598150089E+03  0.47000000000E+01 0.  1.
          5    1    4    4  502    0 -0.85499378948E+02 -0.50898728837E+00 -0.29870227080E+03  0.31073387239E+03  0.47000000000E+01 0. -1.
         -5    1    4    4    0  502 -0.18499566293E+01  0.81255361939E+02 -0.16385048146E+03  0.18296154366E+03  0.47000000000E+01 0. -1.
<mgrwt>
<rscale>  0 0.37060656E+03</rscale>
<asrwt>0</asrwt>
<pdfrwt beam="1">  1       21 0.35114273E-02 0.37060656E+03</pdfrwt>
<pdfrwt beam="2">  1       21 0.23144928E+00 0.37060656E+03</pdfrwt>
<totfact> 0.37891866E+04</totfact>
</mgrwt>
</event>
<event>
 8    1  0.9705063E-006  0.2937252E+03  0.7546771E-02  0.1088420E+00
         21   -1    0    0  504  503  0.00000000000E+00  0.00000000000E+00  0.75919658499E+03  0.75919658499E+03  0.00000000000E+00 0. -1.
         21   -1    0    0  503  504 -0.00000000000E+00 -0.00000000000E+00 -0.28409798385E+02  0.28409798385E+02  0.00000000000E+00 0. -1.
         25    2    1    2    0    0 -0.59619402523E+02  0.16817986426E+02  0.48852177436E+03  0.50805092734E+03  0.12499961169E+03 0.  0.
         25    2    1    2    0    0  0.59619402523E+02 -0.16817986426E+02  0.24226501225E+03  0.27955545604E+03  0.12498639532E+03 0.  0.
          5    1    3    3  501    0 -0.58717639708E+02 -0.35853743876E+02  0.39171696773E+03  0.39774052467E+03  0.47000000000E+01 0. -1.
         -5    1    3    3    0  501 -0.90176281461E+00  0.52671730302E+02  0.96804806631E+02  0.11031040266E+03  0.47000000000E+01 0. -1.
          5    1    4    4  502    0  0.19265160255E+02 -0.76711289005E+01 -0.10268057333E+02  0.23611768668E+02  0.47000000000E+01 0.  1.
         -5    1    4    4    0  502  0.40354242268E+02 -0.91468575259E+01  0.25253306958E+03  0.25594368737E+03  0.47000000000E+01 0.  1.
<mgrwt>
<rscale>  0 0.29372519E+03</rscale>
<asrwt>0</asrwt>
<pdfrwt beam="1">  1       21 0.11679946E+00 0.29372519E+03</pdfrwt>
<pdfrwt beam="2">  1       21 0.43707388E-02 0.29372519E+03</pdfrwt>
<totfact> 0.18444229E+05</totfact>
</mgrwt>
</event>
<event>
 8    1  0.9705063E-006  0.2744952E+03  0.7546771E-02  0.1098734E+00
         21   -1    0    0  504  503  0.00000000000E+00  0.00000000000E+00  0.12464100078E+03  0.12464100078E+03  0.00000000000E+00 0. -1.
         21   -1    0    0  503  504 -0.00000000000E+00 -0.00000000000E+00 -0.15112930228E+03  0.15112930228E+03  0.00000000000E+00 0. -1.
         25    2    1    2    0    0  0.40180367435E+02  0.19635529882E+02  0.21729038735E+02  0.13452419343E+03  0.12499836612E+03 0.  0.
         25    2    1    2    0    0 -0.40180367435E+02 -0.19635529882E+02 -0.48217340234E+02  0.14124610963E+03  0.12500214248E+03 0.  0.
          5    1    3    3  501    0  0.43084937483E+02 -0.94656985010E+01  0.67040813008E+02  0.80389501148E+02  0.47000000000E+01 0.  1.
         -5    1    3    3    0  501 -0.29045700479E+01  0.29101228383E+02 -0.45311774273E+02  0.54134692281E+02  0.47000000000E+01 0.  1.
          5    1    4    4  502    0  0.27912364688E+02 -0.85830909839E+01  0.26308327056E+02  0.39585194528E+02  0.47000000000E+01 0.  1.
         -5    1    4    4    0  502 -0.68092732124E+02 -0.11052438899E+02 -0.74525667289E+02  0.10166091510E+03  0.47000000000E+01 0.  1.
<mgrwt>
<rscale>  0 0.27449523E+03</rscale>
<asrwt>0</asrwt>
<pdfrwt beam="1">  1       21 0.19175539E-01 0.27449523E+03</pdfrwt>
<pdfrwt beam="2">  1       21 0.23250662E-01 0.27449523E+03</pdfrwt>
<totfact> 0.42695925E+05</totfact>
</mgrwt>
</event>
<event>
 8    1  0.9705063E-006  0.3097423E+03  0.7546771E-02  0.1080469E+00
         21   -1    0    0  504  503  0.00000000000E+00  0.00000000000E+00  0.17434797335E+04  0.17434797335E+04  0.00000000000E+00 0.  1.
         21   -1    0    0  503  504 -0.00000000000E+00 -0.00000000000E+00 -0.13757012687E+02  0.13757012687E+02  0.00000000000E+00 0.  1.
         25    2    1    2    0    0  0.13300007791E+02 -0.36159667003E+02  0.39437177098E+03  0.41549479421E+03  0.12498967377E+03 0.  0.
         25    2    1    2    0    0 -0.13300007791E+02  0.36159667003E+02  0.13353509499E+04  0.13417419520E+04  0.12499957894E+03 0.  0.
          5    1    3    3  501    0  0.35147586639E+02 -0.73844470971E+02  0.19764960196E+03  0.21395283101E+03  0.47000000000E+01 0.  1.
         -5    1    3    3    0  501 -0.21847578848E+02  0.37684803968E+02  0.19672216901E+03  0.20154196321E+03  0.47000000000E+01 0.  1.
          5    1    4    4  502    0 -0.39984404469E+02  0.15954807499E+02  0.15579409771E+03  0.16170095660E+03  0.47000000000E+01 0.  1.
         -5    1    4    4    0  502  0.26684396678E+02  0.20204859504E+02  0.11795568522E+04  0.11800409954E+04  0.47000000000E+01 0.  1.
<mgrwt>
<rscale>  0 0.30974230E+03</rscale>
<asrwt>0</asrwt>
<pdfrwt beam="1">  1       21 0.26822748E+00 0.30974230E+03</pdfrwt>
<pdfrwt beam="2">  1       21 0.21164649E-02 0.30974230E+03</pdfrwt>
<totfact> 0.54188454E+04</totfact>
</mgrwt>
</event>
<event>
 8    1  0.9705063E-006  0.3462544E+03  0.7546771E-02  0.1064163E+00
         21   -1    0    0  504  503  0.00000000000E+00  0.00000000000E+00  0.89295288687E+02  0.89295288687E+02  0.00000000000E+00 0.  1.
         21   -1    0    0  503  504 -0.00000000000E+00 -0.00000000000E+00 -0.33566196349E+03  0.33566196349E+03  0.00000000000E+00 0.  1.
         25    2    1    2    0    0 -0.15722058334E+02 -0.92654127455E+02 -0.21433213746E+03  0.26532302610E+03  0.12500429024E+03 0.  0.
         25    2    1    2    0    0  0.15722058334E+02  0.92654127455E+02 -0.32034537342E+02  0.15963422607E+03  0.12499961639E+03 0.  0.
          5    1    3    3  501    0 -0.46225859849E+02  0.52393369317E+00 -0.26763662523E+02  0.53623579299E+02  0.47000000000E+01 0.  1.
         -5    1    3    3    0  501  0.30503801515E+02 -0.93178061149E+02 -0.18756847494E+03  0.21169944680E+03  0.47000000000E+01 0.  1.
          5    1    4    4  502    0  0.45206508980E+01  0.12295557666E+03 -0.19490350573E+02  0.12466143702E+03  0.47000000000E+01 0. -1.
         -5    1    4    4    0  502  0.11201407436E+02 -0.30301449201E+02 -0.12544186769E+02  0.34972789049E+02  0.47000000000E+01 0. -1.
<mgrwt>
<rscale>  0 0.34625443E+03</rscale>
<asrwt>0</asrwt>
<pdfrwt beam="1">  1       21 0.13737737E-01 0.34625443E+03</pdfrwt>
<pdfrwt beam="2">  1       21 0.51640303E-01 0.34625443E+03</pdfrwt>
<totfact> 0.15712519E+05</totfact>
</mgrwt>
</event>
<event>
 8    1  0.9705063E-006  0.3730805E+03  0.7546771E-02  0.1053521E+00
         21   -1    0    0  504  503  0.00000000000E+00  0.00000000000E+00  0.24285979585E+02  0.24285979585E+02  0.00000000000E+00 0. -1.
         21   -1    0    0  503  504 -0.00000000000E+00 -0.00000000000E+00 -0.14328131738E+04  0.14328131738E+04  0.00000000000E+00 0. -1.
         25    2    1    2    0    0  0.13715020913E+03  0.17827981337E+02 -0.67698385294E+03  0.70218103469E+03  0.12499220597E+03 0.  0.
         25    2    1    2    0    0 -0.13715020913E+03 -0.17827981337E+02 -0.73154334123E+03  0.75491811865E+03  0.12497075251E+03 0.  0.
          5    1    3    3  501    0  0.85715978985E+02 -0.36745705590E+02 -0.51782506909E+03  0.52617712617E+03  0.47000000000E+01 0.  1.
         -5    1    3    3    0  501  0.51434230149E+02  0.54573686927E+02 -0.15915878385E+03  0.17600390851E+03  0.47000000000E+01 0.  1.
          5    1    4    4  502    0 -0.11843426634E+03  0.28137289482E+02 -0.36018148333E+03  0.38022516150E+03  0.47000000000E+01 0. -1.
         -5    1    4    4    0  502 -0.18715942795E+02 -0.45965270819E+02 -0.37136185790E+03  0.37469295715E+03  0.47000000000E+01 0. -1.
<mgrwt>
<rscale>  0 0.37308054E+03</rscale>
<asrwt>0</asrwt>
<pdfrwt beam="1">  1       21 0.37363042E-02 0.37308054E+03</pdfrwt>
<pdfrwt beam="2">  1       21 0.22043281E+00 0.37308054E+03</pdfrwt>
<totfact> 0.39963175E+04</totfact>
</mgrwt>
</event>
<event>
 8    1  0.9705063E-006  0.2676183E+03  0.7546771E-02  0.1102650E+00
         21   -1    0    0  504  503  0.00000000000E+00  0.00000000000E+00  0.61795670050E+02  0.61795670050E+02  0.00000000000E+00 0.  1.
         21   -1    0    0  503  504 -0.00000000000E+00 -0.00000000000E+00 -0.28974352226E+03  0.28974352226E+03  0.00000000000E+00 0.  1.
         25    2    1    2    0    0  0.18733446672E+02  0.40137107995E+02 -0.90547559480E+02  0.16057982216E+03  0.12500035718E+03 0.  0.
         25    2    1    2    0    0 -0.18733446672E+02 -0.40137107995E+02 -0.13740029273E+03  0.19095937015E+03  0.12499884456E+03 0.  0.
          5    1    3    3  501    0 -0.21377989417E+02  0.74154751931E+02 -0.38252164613E+02  0.86262760002E+02  0.47000000000E+01 0. -1.
         -5    1    3    3    0  501  0.40111436089E+02 -0.34017643936E+02 -0.52295394867E+02  0.74317062162E+02  0.47000000000E+01 0. -1.
          5    1    4    4  502    0  0.12944441867E+02 -0.77089810274E+02 -0.57004693527E+02  0.96860840939E+02  0.47000000000E+01 0.  1.
         -5    1    4    4    0  502 -0.31677888539E+02  0.36952702279E+02 -0.80395599205E+02  0.94098529210E+02  0.47000000000E+01 0.  1.
<mgrwt>
<rscale>  0 0.26761835E+03</rscale>
<asrwt>0</asrwt>
<pdfrwt beam="1">  1       21 0.95070264E-02 0.26761835E+03</pdfrwt>
<pdfrwt beam="2">  1       21 0.44575926E-01 0.26761835E+03</pdfrwt>
<totfact> 0.42183989E+05</totfact>
</mgrwt>
</event>
<event>
 8    1  0.9705063E-006  0.5447387E+03  0.7546771E-02  0.1002719E+00
         21   -1    0    0  504  503  0.00000000000E+00  0.00000000000E+00  0.22191557764E+03  0.22191557764E+03  0.00000000000E+00 0.  1.
         21   -1    0    0  503  504 -0.00000000000E+00 -0.00000000000E+00 -0.33429401397E+03  0.33429401397E+03  0.00000000000E+00 0.  1.
         25    2    1    2    0    0  0.41707802639E+02 -0.18828639838E+02 -0.29881994389E+03  0.32712636810E+03  0.12499697341E+03 0.  0.
         25    2    1    2    0    0 -0.41707802639E+02  0.18828639838E+02  0.18644150757E+03  0.22908322351E+03  0.12499851627E+03 0.  0.
          5    1    3    3  501    0 -0.31558115985E+02  0.28566146487E+02 -0.68491844298E+02  0.80778475753E+02  0.47000000000E+01 0.  1.
         -5    1    3    3    0  501  0.73265918624E+02 -0.47394786325E+02 -0.23032809960E+03  0.24634789235E+03  0.47000000000E+01 0.  1.
          5    1    4    4  502    0  0.53159885341E+01  0.64677185350E+02  0.71934902581E+02  0.96995454781E+02  0.47000000000E+01 0. -1.
         -5    1    4    4    0  502 -0.47023791173E+02 -0.45848545511E+02  0.11450660499E+03  0.13208776873E+03  0.47000000000E+01 0. -1.
<mgrwt>
<rscale>  0 0.54473865E+03</rscale>
<asrwt>0</asrwt>
<pdfrwt beam="1">  1       21 0.34140858E-01 0.54473865E+03</pdfrwt>
<pdfrwt beam="2">  1       21 0.51429848E-01 0.54473865E+03</pdfrwt>
<totfact> 0.26463331E+04</totfact>
</mgrwt>
</event>
<event>
 8    1  0.9705063E-006  0.2927263E+03  0.7546771E-02  0.1088934E+00
         21   -1    0    0  504  503  0.00000000000E+00  0.00000000000E+00  0.30510037790E+02  0.30510037790E+02  0.00000000000E+00 0.  1.
         21   -1    0    0  503  504 -0.00000000000E+00 -0.00000000000E+00 -0.70213540383E+03  0.70213540383E+03  0.00000000000E+00 0.  1.
         25    2    1    2    0    0  0.77638145388E+01 -0.41353185788E+02 -0.17700354670E+03  0.22073917589E+03  0.12500066175E+03 0.  0.
         25    2    1    2    0    0 -0.77638145388E+01  0.41353185788E+02 -0.49462181934E+03  0.51190626573E+03  0.12500767150E+03 0.  0.
          5    1    3    3  501    0 -0.45364735869E+01  0.51373390080E+01  0.18006690776E+02  0.19831862177E+02  0.47000000000E+01 0. -1.
         -5    1    3    3    0  501  0.12300288126E+02 -0.46490524796E+02 -0.19501023747E+03  0.20090731371E+03  0.47000000000E+01 0. -1.
          5    1    4    4  502    0 -0.13636903735E+02  0.83830795280E+02 -0.26665664975E+03  0.27989538445E+03  0.47000000000E+01 0.  1.
         -5    1    4    4    0  502  0.58730891963E+01 -0.42477609491E+02 -0.22796516960E+03  0.23201088128E+03  0.47000000000E+01 0.  1.
<mgrwt>
<rscale>  0 0.29272634E+03</rscale>
<asrwt>0</asrwt>
<pdfrwt beam="1">  1       21 0.46938518E-02 0.29272634E+03</pdfrwt>
<pdfrwt beam="2">  1       21 0.10802084E+00 0.29272634E+03</pdfrwt>
<totfact> 0.19802736E+05</totfact>
</mgrwt>
</event>
<event>
 8    1  0.9705063E-006  0.2592433E+03  0.7546771E-02  0.1107599E+00
         21   -1    0    0  504  503  0.00000000000E+00  0.00000000000E+00  0.31855493231E+02  0.31855493231E+02  0.00000000000E+00 0. -1.
         21   -1    0    0  503  504 -0.00000000000E+00 -0.00000000000E+00 -0.52743730608E+03  0.52743730608E+03  0.00000000000E+00 0. -1.
         25    2    1    2    0    0  0.88281714163E+01  0.18415937653E+01 -0.17641246625E+03  0.21639673606E+03  0.12499944422E+03 0.  0.
         25    2    1    2    0    0 -0.88281714163E+01 -0.18415937653E+01 -0.31916934660E+03  0.34289606324E+03  0.12500924086E+03 0.  0.
          5    1    3    3  501    0 -0.30327675852E+02 -0.44238076030E+02 -0.12776430812E+03  0.13864553265E+03  0.47000000000E+01 0.  1.
         -5    1    3    3    0  501  0.39155847268E+02  0.46079669795E+02 -0.48648158121E+02  0.77751203414E+02  0.47000000000E+01 0.  1.
          5    1    4    4  502    0  0.23790883046E+02 -0.23133730089E+02 -0.15893483561E+02  0.37092700140E+02  0.47000000000E+01 0.  1.
         -5    1    4    4    0  502 -0.32619054462E+02  0.21292136324E+02 -0.30327586304E+03  0.30580336310E+03  0.47000000000E+01 0.  1.
<mgrwt>
<rscale>  0 0.25924333E+03</rscale>
<asrwt>0</asrwt>
<pdfrwt beam="1">  1       21 0.49008458E-02 0.25924333E+03</pdfrwt>
<pdfrwt beam="2">  1       21 0.81144190E-01 0.25924333E+03</pdfrwt>
<totfact> 0.36451733E+05</totfact>
</mgrwt>
</event>
<event>
 8    1  0.9705063E-006  0.3255829E+03  0.7546771E-02  0.1073108E+00
         21   -1    0    0  504  503  0.00000000000E+00  0.00000000000E+00  0.22475638868E+02  0.22475638868E+02  0.00000000000E+00 0. -1.
         21   -1    0    0  503  504 -0.00000000000E+00 -0.00000000000E+00 -0.11791011670E+04  0.11791011670E+04  0.00000000000E+00 0. -1.
         25    2    1    2    0    0  0.49015161510E+02  0.11201484112E+02 -0.24110513469E+03  0.27619606610E+03  0.12499848659E+03 0.  0.
         25    2    1    2    0    0 -0.49015161510E+02 -0.11201484112E+02 -0.91552039346E+03  0.92538073979E+03  0.12499585363E+03 0.  0.
          5    1    3    3  501    0  0.57555657110E+02 -0.26393421783E+02 -0.22562148668E+03  0.23438517792E+03  0.47000000000E+01 0.  1.
         -5    1    3    3    0  501 -0.85404955990E+01  0.37594905895E+02 -0.15483648014E+02  0.41810888177E+02  0.47000000000E+01 0.  1.
          5    1    4    4  502    0  0.35000629659E+02  0.17306715008E+02 -0.43030522977E+03  0.43209865451E+03  0.47000000000E+01 0. -1.
         -5    1    4    4    0  502 -0.84015791169E+02 -0.28508199120E+02 -0.48521516369E+03  0.49328208528E+03  0.47000000000E+01 0. -1.
<mgrwt>
<rscale>  0 0.32558287E+03</rscale>
<asrwt>0</asrwt>
<pdfrwt beam="1">  1       21 0.34577886E-02 0.32558287E+03</pdfrwt>
<pdfrwt beam="2">  1       21 0.18140028E+00 0.32558287E+03</pdfrwt>
<totfact> 0.83861610E+04</totfact>
</mgrwt>
</event>
<event>
 8    1  0.9705063E-006  0.2631222E+03  0.7546771E-02  0.1105282E+00
         21   -1    0    0  504  503  0.00000000000E+00  0.00000000000E+00  0.88445538480E+03  0.88445538480E+03  0.00000000000E+00 0.  1.
         21   -1    0    0  503  504 -0.00000000000E+00 -0.00000000000E+00 -0.19569476181E+02  0.19569476181E+02  0.00000000000E+00 0.  1.
         25    2    1    2    0    0 -0.45536929853E+01 -0.11560316306E+02  0.29799542651E+03  0.32339009895E+03  0.12500201937E+03 0.  0.
         25    2    1    2    0    0  0.45536929853E+01  0.11560316306E+02  0.56689048211E+03  0.58063476203E+03  0.12497012098E+03 0.  0.
          5    1    3    3  501    0 -0.47753644058E+02 -0.21531963205E+01  0.42751272996E+02  0.64302473654E+02  0.47000000000E+01 0.  1.
         -5    1    3    3    0  501  0.43199951073E+02 -0.94071199857E+01  0.25524415351E+03  0.25908762530E+03  0.47000000000E+01 0.  1.
          5    1    4    4  502    0  0.34124389935E+02 -0.40477848882E+02  0.14384961383E+03  0.15335492049E+03  0.47000000000E+01 0.  1.
         -5    1    4    4    0  502 -0.29570696950E+02  0.52038165189E+02  0.42304086828E+03  0.42727984154E+03  0.47000000000E+01 0.  1.
<mgrwt>
<rscale>  0 0.26312224E+03</rscale>
<asrwt>0</asrwt>
<pdfrwt beam="1">  1       21 0.13607003E+00 0.26312224E+03</pdfrwt>
<pdfrwt beam="2">  1       21 0.30106893E-02 0.26312224E+03</pdfrwt>
<totfact> 0.23646236E+05</totfact>
</mgrwt>
</event>
<event>
 8    1  0.9705063E-006  0.2716306E+03  0.7546771E-02  0.1100350E+00
         21   -1    0    0  504  503  0.00000000000E+00  0.00000000000E+00  0.32941325619E+02  0.32941325619E+02  0.00000000000E+00 0.  1.
         21   -1    0    0  503  504 -0.00000000000E+00 -0.00000000000E+00 -0.55995912639E+03  0.55995912639E+03  0.00000000000E+00 0.  1.
         25    2    1    2    0    0 -0.33362086398E+02 -0.51563557210E+01 -0.35303849798E+03  0.37603070391E+03  0.12499316947E+03 0.  0.
         25    2    1    2    0    0  0.33362086398E+02  0.51563557210E+01 -0.17397930278E+03  0.21686974809E+03  0.12499629205E+03 0.  0.
          5    1    3    3  501    0 -0.42323156902E+02 -0.11539285376E+02 -0.31357987768E+02  0.54127794283E+02  0.47000000000E+01 0.  1.
         -5    1    3    3    0  501  0.89610705035E+01  0.63829296554E+01 -0.32168051022E+03  0.32190290963E+03  0.47000000000E+01 0.  1.
          5    1    4    4  502    0  0.58026165339E+01 -0.58966485996E+02 -0.76019927768E+02  0.96497856180E+02  0.47000000000E+01 0.  1.
         -5    1    4    4    0  502  0.27559469864E+02  0.64122841717E+02 -0.97959375017E+02  0.12037189191E+03  0.47000000000E+01 0.  1.
<mgrwt>
<rscale>  0 0.27163060E+03</rscale>
<asrwt>0</asrwt>
<pdfrwt beam="1">  1       21 0.50678968E-02 0.27163060E+03</pdfrwt>
<pdfrwt beam="2">  1       21 0.86147548E-01 0.27163060E+03</pdfrwt>
<totfact> 0.29914081E+05</totfact>
</mgrwt>
</event>
<event>
 8    1  0.9705063E-006  0.3299290E+03  0.7546771E-02  0.1071168E+00
         21   -1    0    0  504  503  0.00000000000E+00  0.00000000000E+00  0.11833543814E+03  0.11833543814E+03  0.00000000000E+00 0.  1.
         21   -1    0    0  503  504 -0.00000000000E+00 -0.00000000000E+00 -0.22996731520E+03  0.22996731520E+03  0.00000000000E+00 0.  1.
         25    2    1    2    0    0 -0.79176854481E+02 -0.34875664144E+02 -0.12344544472E+03  0.19581929000E+03  0.12498452016E+03 0.  0.
         25    2    1    2    0    0  0.79176854481E+02  0.34875664144E+02  0.11813567656E+02  0.15248346335E+03  0.12500543979E+03 0.  0.
          5    1    3    3  501    0 -0.91368747271E+02 -0.49332525043E+02 -0.13708318255E+03  0.17203440047E+03  0.47000000000E+01 0. -1.
         -5    1    3    3    0  501  0.12191892790E+02  0.14456860899E+02  0.13637737838E+02  0.23784889535E+02  0.47000000000E+01 0. -1.
          5    1    4    4  502    0  0.79523088071E+02 -0.23298295142E+02 -0.20881145342E+02  0.85585304367E+02  0.47000000000E+01 0. -1.
         -5    1    4    4    0  502 -0.34623358983E+00  0.58173959286E+02  0.32694712998E+02  0.66898158979E+02  0.47000000000E+01 0. -1.
<mgrwt>
<rscale>  0 0.32992898E+03</rscale>
<asrwt>0</asrwt>
<pdfrwt beam="1">  1       21 0.18205452E-01 0.32992898E+03</pdfrwt>
<pdfrwt beam="2">  1       21 0.35379586E-01 0.32992898E+03</pdfrwt>
<totfact> 0.20449808E+05</totfact>
</mgrwt>
</event>
<event>
 8    1  0.9705063E-006  0.3594774E+03  0.7546771E-02  0.1058791E+00
         21   -1    0    0  504  503  0.00000000000E+00  0.00000000000E+00  0.16356147881E+03  0.16356147881E+03  0.00000000000E+00 0. -1.
         21   -1    0    0  503  504 -0.00000000000E+00 -0.00000000000E+00 -0.19751598176E+03  0.19751598176E+03  0.00000000000E+00 0. -1.
         25    2    1    2    0    0  0.32836061398E+02 -0.11108921824E+03 -0.74379747219E+02  0.18593312347E+03  0.12497903133E+03 0.  0.
         25    2    1    2    0    0 -0.32836061398E+02  0.11108921824E+03  0.40425244274E+02  0.17514433709E+03  0.12498926795E+03 0.  0.
          5    1    3    3  501    0 -0.41069166775E+02 -0.66816983508E+01 -0.24773091573E+02  0.48653032984E+02  0.47000000000E+01 0.  1.
         -5    1    3    3    0  501  0.73905228173E+02 -0.10440751989E+03 -0.49606655646E+02  0.13728009049E+03  0.47000000000E+01 0.  1.
          5    1    4    4  502    0 -0.49962008537E+02  0.79600513367E+02  0.78571644301E+02  0.12258889556E+03  0.47000000000E+01 0. -1.
         -5    1    4    4    0  502  0.17125947139E+02  0.31488704874E+02 -0.38146400027E+02  0.52555441536E+02  0.47000000000E+01 0. -1.
<mgrwt>
<rscale>  0 0.35947743E+03</rscale>
<asrwt>0</asrwt>
<pdfrwt beam="1">  1       21 0.25163304E-01 0.35947743E+03</pdfrwt>
<pdfrwt beam="2">  1       21 0.30387074E-01 0.35947743E+03</pdfrwt>
<totfact> 0.14863608E+05</totfact>
</mgrwt>
</event>
<event>
 8    1  0.9705063E-006  0.3725413E+03  0.7546771E-02  0.1053725E+00
         21   -1    0    0  504  503  0.00000000000E+00  0.00000000000E+00  0.28667443555E+03  0.28667443555E+03  0.00000000000E+00 0.  1.
         21   -1    0    0  503  504 -0.00000000000E+00 -0.00000000000E+00 -0.12103192011E+03  0.12103192011E+03  0.00000000000E+00 0.  1.
         25    2    1    2    0    0 -0.92986691948E+02  0.18740681447E+02 -0.27031204437E+02  0.15922030613E+03  0.12499072706E+03 0.  0.
         25    2    1    2    0    0  0.92986691948E+02 -0.18740681447E+02  0.19267371988E+03  0.24848604953E+03  0.12499766581E+03 0.  0.
          5    1    3    3  501    0 -0.16262933422E+02  0.64783309026E+02 -0.16814811177E+02  0.69037584017E+02  0.47000000000E+01 0. -1.
         -5    1    3    3    0  501 -0.76723758526E+02 -0.46042627580E+02 -0.10216393259E+02  0.90182722114E+02  0.47000000000E+01 0. -1.
          5    1    4    4  502    0  0.10322965927E+03  0.21148658052E+02  0.93328232818E+02  0.14083989964E+03  0.47000000000E+01 0. -1.
         -5    1    4    4    0  502 -0.10242967323E+02 -0.39889339499E+02  0.99345487065E+02  0.10764614989E+03  0.47000000000E+01 0. -1.
<mgrwt>
<rscale>  0 0.37254131E+03</rscale>
<asrwt>0</asrwt>
<pdfrwt beam="1">  1       21 0.44103759E-01 0.37254131E+03</pdfrwt>
<pdfrwt beam="2">  1       21 0.18620296E-01 0.37254131E+03</pdfrwt>
<totfact> 0.12378651E+05</totfact>
</mgrwt>
</event>
<event>
 8    1  0.9705063E-006  0.3423036E+03  0.7546771E-02  0.1065819E+00
         21   -1    0    0  504  503  0.00000000000E+00  0.00000000000E+00  0.30170055465E+04  0.30170055465E+04  0.00000000000E+00 0. -1.
         21   -1    0    0  503  504 -0.00000000000E+00 -0.00000000000E+00 -0.97092752179E+01  0.97092752179E+01  0.00000000000E+00 0. -1.
         25    2    1    2    0    0 -0.62748611420E+01 -0.11636958903E+03  0.14201285294E+04  0.14303730088E+04  0.12498259538E+03 0.  0.
         25    2    1    2    0    0  0.62748611420E+01  0.11636958903E+03  0.15871677419E+04  0.15963418129E+04  0.12499795069E+03 0.  0.
          5    1    3    3  501    0  0.35955237478E+02 -0.10994689565E+03  0.75154247186E+03  0.76040730926E+03  0.47000000000E+01 0.  1.
         -5    1    3    3    0  501 -0.42230098620E+02 -0.64226933717E+01  0.66858605755E+03  0.66996569955E+03  0.47000000000E+01 0.  1.
          5    1    4    4  502    0 -0.36675982454E+02  0.18360507079E+02  0.89350035616E+03  0.89445358313E+03  0.47000000000E+01 0. -1.
         -5    1    4    4    0  502  0.42950843596E+02  0.98009081947E+02  0.69366738571E+03  0.70188822979E+03  0.47000000000E+01 0. -1.
<mgrwt>
<rscale>  0 0.34230359E+03</rscale>
<asrwt>0</asrwt>
<pdfrwt beam="1">  1       21 0.46415395E+00 0.34230359E+03</pdfrwt>
<pdfrwt beam="2">  1       21 0.14937370E-02 0.34230359E+03</pdfrwt>
<totfact> 0.56732633E+03</totfact>
</mgrwt>
</event>
<event>
 8    1  0.9705063E-006  0.2818565E+03  0.7546771E-02  0.1094679E+00
         21   -1    0    0  504  503  0.00000000000E+00  0.00000000000E+00  0.86282566535E+03  0.86282566535E+03  0.00000000000E+00 0. -1.
         21   -1    0    0  503  504 -0.00000000000E+00 -0.00000000000E+00 -0.23018296664E+02  0.23018296664E+02  0.00000000000E+00 0. -1.
         25    2    1    2    0    0 -0.21163111605E+02 -0.61494599673E+02  0.41103691980E+03  0.43451776634E+03  0.12499950700E+03 0.  0.
         25    2    1    2    0    0  0.21163111605E+02  0.61494599673E+02  0.42877044888E+03  0.45132619567E+03  0.12498709524E+03 0.  0.
          5    1    3    3  501    0 -0.66560089760E+02 -0.65272538781E+02  0.30628676094E+03  0.32019434691E+03  0.47000000000E+01 0. -1.
         -5    1    3    3    0  501  0.45396978155E+02  0.37779391085E+01  0.10475015886E+03  0.11432341943E+03  0.47000000000E+01 0. -1.
          5    1    4    4  502    0  0.45851152367E+02  0.89407893632E+02  0.34806947676E+03  0.36231277961E+03  0.47000000000E+01 0.  1.
         -5    1    4    4    0  502 -0.24688040762E+02 -0.27913293959E+02  0.80700972130E+02  0.89013416062E+02  0.47000000000E+01 0.  1.
<mgrwt>
<rscale>  0 0.28185654E+03</rscale>
<asrwt>0</asrwt>
<pdfrwt beam="1">  1       21 0.13274239E+00 0.28185654E+03</pdfrwt>
<pdfrwt beam="2">  1       21 0.35412771E-02 0.28185654E+03</pdfrwt>
<totfact> 0.19100282E+05</totfact>
</mgrwt>
</event>
<event>
 8    1  0.9705063E-006  0.2545811E+03  0.7546771E-02  0.1110443E+00
         21   -1    0    0  504  503  0.00000000000E+00  0.00000000000E+00  0.19270363623E+03  0.19270363623E+03  0.00000000000E+00 0.  1.
         21   -1    0    0  503  504 -0.00000000000E+00 -0.00000000000E+00 -0.84081856355E+02  0.84081856355E+02  0.00000000000E+00 0.  1.
         25    2    1    2    0    0  0.11374347993E+02  0.12328495364E+02  0.73043710963E+02  0.14574524698E+03  0.12499970287E+03 0.  0.
         25    2    1    2    0    0 -0.11374347993E+02 -0.12328495364E+02  0.35578068911E+02  0.13104024560E+03  0.12499751753E+03 0.  0.
          5    1    3    3  501    0  0.33684881539E+02 -0.46693504098E+02  0.55446563966E+02  0.80071006144E+02  0.47000000000E+01 0.  1.
         -5    1    3    3    0  501 -0.22310533546E+02  0.59021999462E+02  0.17597146997E+02  0.65674240841E+02  0.47000000000E+01 0.  1.
          5    1    4    4  502    0 -0.34422244880E+02 -0.49325262159E+02 -0.16904380454E+02  0.62655570448E+02  0.47000000000E+01 0. -1.
         -5    1    4    4    0  502  0.23047896887E+02  0.36996766796E+02  0.52482449365E+02  0.68384675152E+02  0.47000000000E+01 0. -1.
<mgrwt>
<rscale>  0 0.25458106E+03</rscale>
<asrwt>0</asrwt>
<pdfrwt beam="1">  1       21 0.29646713E-01 0.25458106E+03</pdfrwt>
<pdfrwt beam="2">  1       21 0.12935670E-01 0.25458106E+03</pdfrwt>
<totfact> 0.55291612E+05</totfact>
</mgrwt>
</event>
<event>
 8    1  0.9705063E-006  0.2615552E+03  0.7546771E-02  0.1106212E+00
         21   -1    0    0  504  503  0.00000000000E+00  0.00000000000E+00  0.34304923671E+03  0.34304923671E+03  0.00000000000E+00 0.  1.
         21   -1    0    0  503  504 -0.00000000000E+00 -0.00000000000E+00 -0.49855189757E+02  0.49855189757E+02  0.00000000000E+00 0.  1.
         25    2    1    2    0    0  0.37373951455E+02  0.66777124355E+01  0.15559449109E+03  0.20316660667E+03  0.12500248124E+03 0.  0.
         25    2    1    2    0    0 -0.37373951455E+02 -0.66777124355E+01  0.13759955586E+03  0.18973781980E+03  0.12500159359E+03 0.  0.
          5    1    3    3  501    0 -0.32025019785E+01 -0.43000598666E+02  0.12428229294E+03  0.13163390840E+03  0.47000000000E+01 0. -1.
         -5    1    3    3    0  501  0.40576453433E+02  0.49678311102E+02  0.31312198157E+02  0.71532698261E+02  0.47000000000E+01 0. -1.
          5    1    4    4  502    0 -0.47340396559E+02  0.35058539460E+02  0.13396300643E+03  0.14641854878E+03  0.47000000000E+01 0.  1.
         -5    1    4    4    0  502  0.99664451048E+01 -0.41736251895E+02  0.36365494351E+01  0.43319271024E+02  0.47000000000E+01 0.  1.
<mgrwt>
<rscale>  0 0.26155523E+03</rscale>
<asrwt>0</asrwt>
<pdfrwt beam="1">  1       21 0.52776804E-01 0.26155523E+03</pdfrwt>
<pdfrwt beam="2">  1       21 0.76700294E-02 0.26155523E+03</pdfrwt>
<totfact> 0.43287213E+05</totfact>
</mgrwt>
</event>
<event>
 8    1  0.9705063E-006  0.3034971E+03  0.7546771E-02  0.1083505E+00
         21   -1    0    0  504  503  0.00000000000E+00  0.00000000000E+00  0.59312925760E+02  0.59312925760E+02  0.00000000000E+00 0. -1.
         21   -1    0    0  503  504 -0.00000000000E+00 -0.00000000000E+00 -0.38823956374E+03  0.38823956374E+03  0.00000000000E+00 0. -1.
         25    2    1    2    0    0 -0.47765159122E+02 -0.58141049639E+01 -0.59304129841E+02  0.14649161980E+03  0.12501000205E+03 0.  0.
         25    2    1    2    0    0  0.47765159122E+02  0.58141049639E+01 -0.26962250814E+03  0.30106086971E+03  0.12500414445E+03 0.  0.
          5    1    3    3  501    0 -0.83803688429E+02  0.19066916428E+02 -0.55206446805E+02  0.10225677124E+03  0.47000000000E+01 0. -1.
         -5    1    3    3    0  501  0.36038529308E+02 -0.24881021392E+02 -0.40976830352E+01  0.44234848552E+02  0.47000000000E+01 0. -1.
          5    1    4    4  502    0 -0.64336512361E+01 -0.30488223027E+02 -0.96039100514E+01  0.32943113087E+02  0.47000000000E+01 0.  1.
         -5    1    4    4    0  502  0.54198810358E+02  0.36302327991E+02 -0.26001859809E+03  0.26811775662E+03  0.47000000000E+01 0.  1.
<mgrwt>
<rscale>  0 0.30349711E+03</rscale>
<asrwt>0</asrwt>
<pdfrwt beam="1">  1       21 0.91250656E-02 0.30349711E+03</pdfrwt>
<pdfrwt beam="2">  1       21 0.59729163E-01 0.30349711E+03</pdfrwt>
<totfact> 0.24245968E+05</totfact>
</mgrwt>
</event>
<event>
 8    1  0.9705063E-006  0.2676778E+03  0.7546771E-02  0.1102616E+00
         21   -1    0    0  504  503  0.00000000000E+00  0.00000000000E+00  0.46596232846E+02  0.46596232846E+02  0.00000000000E+00 0. -1.
         21   -1    0    0  503  504 -0.00000000000E+00 -0.00000000000E+00 -0.38442703468E+03  0.38442703468E+03  0.00000000000E+00 0. -1.
         25    2    1    2    0    0 -0.36261370753E+02 -0.20052536605E+02 -0.20732458786E+03  0.24561893141E+03  0.12501273337E+03 0.  0.
         25    2    1    2    0    0  0.36261370753E+02  0.20052536605E+02 -0.13050621398E+03  0.18540433611E+03  0.12500361887E+03 0.  0.
          5    1    3    3  501    0 -0.57545663027E+02 -0.23276648629E+02 -0.34064300992E+02  0.70963175709E+02  0.47000000000E+01 0. -1.
         -5    1    3    3    0  501  0.21284292274E+02  0.32241120243E+01 -0.17326028686E+03  0.17465575570E+03  0.47000000000E+01 0. -1.
          5    1    4    4  502    0  0.13567509754E+02 -0.52581010293E+02 -0.43627690083E+02  0.69816225237E+02  0.47000000000E+01 0. -1.
         -5    1    4    4    0  502  0.22693860999E+02  0.72633546897E+02 -0.86878523895E+02  0.11558811088E+03  0.47000000000E+01 0. -1.
<mgrwt>
<rscale>  0 0.26767780E+03</rscale>
<asrwt>0</asrwt>
<pdfrwt beam="1">  1       21 0.71686508E-02 0.26767780E+03</pdfrwt>
<pdfrwt beam="2">  1       21 0.59142624E-01 0.26767780E+03</pdfrwt>
<totfact> 0.38134379E+05</totfact>
</mgrwt>
</event>
<event>
 8    1  0.9705063E-006  0.2820502E+03  0.7546771E-02  0.1094574E+00
         21   -1    0    0  504  503  0.00000000000E+00  0.00000000000E+00  0.10691772788E+03  0.10691772788E+03  0.00000000000E+00 0.  1.
         21   -1    0    0  503  504 -0.00000000000E+00 -0.00000000000E+00 -0.18601288487E+03  0.18601288487E+03  0.00000000000E+00 0.  1.
         25    2    1    2    0    0 -0.44401992123E+02 -0.38540500259E+00  0.10156875312E+02  0.13303877770E+03  0.12499787523E+03 0.  0.
         25    2    1    2    0    0  0.44401992123E+02  0.38540500259E+00 -0.89252032301E+02  0.15989183505E+03  0.12501115232E+03 0.  0.
          5    1    3    3  501    0 -0.14910886362E+02  0.33274412878E+02  0.57164193166E+02  0.67965844839E+02  0.47000000000E+01 0. -1.
         -5    1    3    3    0  501 -0.29491105761E+02 -0.33659817880E+02 -0.47007317854E+02  0.65072932856E+02  0.47000000000E+01 0. -1.
          5    1    4    4  502    0 -0.60394450053E+00 -0.49076288253E+02 -0.77466386714E+02  0.91825801866E+02  0.47000000000E+01 0. -1.
         -5    1    4    4    0  502  0.45005936623E+02  0.49461693256E+02 -0.11785645587E+02  0.68066033181E+02  0.47000000000E+01 0. -1.
<mgrwt>
<rscale>  0 0.28205017E+03</rscale>
<asrwt>0</asrwt>
<pdfrwt beam="1">  1       21 0.16448881E-01 0.28205017E+03</pdfrwt>
<pdfrwt beam="2">  1       21 0.28617367E-01 0.28205017E+03</pdfrwt>
<totfact> 0.37980889E+05</totfact>
</mgrwt>
</event>
<event>
 8    1  0.9705063E-006  0.2799246E+03  0.7546771E-02  0.1095730E+00
         21   -1    0    0  504  503  0.00000000000E+00  0.00000000000E+00  0.11010261543E+03  0.11010261543E+03  0.00000000000E+00 0.  1.
         21   -1    0    0  503  504 -0.00000000000E+00 -0.00000000000E+00 -0.17791987634E+03  0.17791987634E+03  0.00000000000E+00 0.  1.
         25    2    1    2    0    0 -0.34048984491E+02 -0.45179551745E+02 -0.62325937670E+02  0.15070696578E+03  0.12501016674E+03 0.  0.
         25    2    1    2    0    0  0.34048984491E+02  0.45179551745E+02 -0.54913232423E+01  0.13731552599E+03  0.12499949522E+03 0.  0.
          5    1    3    3  501    0  0.46683210020E+02 -0.85639416257E+01 -0.14382953032E+02  0.49815886340E+02  0.47000000000E+01 0. -1.
         -5    1    3    3    0  501 -0.80732194511E+02 -0.36615610120E+02 -0.47942984638E+02  0.10089107944E+03  0.47000000000E+01 0. -1.
          5    1    4    4  502    0  0.50713781597E+02 -0.30621033179E+02 -0.36822491109E+01  0.59541450061E+02  0.47000000000E+01 0.  1.
         -5    1    4    4    0  502 -0.16664797106E+02  0.75800584925E+02 -0.18090741314E+01  0.77774075930E+02  0.47000000000E+01 0.  1.
<mgrwt>
<rscale>  0 0.27992459E+03</rscale>
<asrwt>0</asrwt>
<pdfrwt beam="1">  1       21 0.16938864E-01 0.27992459E+03</pdfrwt>
<pdfrwt beam="2">  1       21 0.27372289E-01 0.27992459E+03</pdfrwt>
<totfact> 0.39247018E+05</totfact>
</mgrwt>
</event>
<event>
 8    1  0.9705063E-006  0.3807790E+03  0.7546771E-02  0.1050646E+00
         21   -1    0    0  504  503  0.00000000000E+00  0.00000000000E+00  0.18864776825E+03  0.18864776825E+03  0.00000000000E+00 0.  1.
         21   -1    0    0  503  504 -0.00000000000E+00 -0.00000000000E+00 -0.19214730716E+03  0.19214730716E+03  0.00000000000E+00 0.  1.
         25    2    1    2    0    0  0.11354566558E+03  0.87860514693E+02  0.22704553734E+00  0.19038299708E+03  0.12503417858E+03 0.  0.
         25    2    1    2    0    0 -0.11354566558E+03 -0.87860514693E+02 -0.37265844492E+01  0.19041207834E+03  0.12502313358E+03 0.  0.
          5    1    3    3  501    0  0.10920367463E+03  0.59076624030E+02 -0.48541234301E+02  0.13339352116E+03  0.47000000000E+01 0. -1.
         -5    1    3    3    0  501  0.43419909494E+01  0.28783890663E+02  0.48768279838E+02  0.56989475919E+02  0.47000000000E+01 0. -1.
          5    1    4    4  502    0  0.91503673283E+01  0.15457161642E+02 -0.22132103301E+02  0.28888978258E+02  0.47000000000E+01 0.  1.
         -5    1    4    4    0  502 -0.12269603291E+03 -0.10331767633E+03  0.18405518851E+02  0.16152310008E+03  0.47000000000E+01 0.  1.
<mgrwt>
<rscale>  0 0.38077899E+03</rscale>
<asrwt>0</asrwt>
<pdfrwt beam="1">  1       21 0.29022734E-01 0.38077899E+03</pdfrwt>
<pdfrwt beam="2">  1       21 0.29561124E-01 0.38077899E+03</pdfrwt>
<totfact> 0.11823714E+05</totfact>
</mgrwt>
</event>
<event>
 8    1  0.9705063E-006  0.2850859E+03  0.7546771E-02  0.1092943E+00
         21   -1    0    0  504  503  0.00000000000E+00  0.00000000000E+00  0.36479451457E+03  0.36479451457E+03  0.00000000000E+00 0. -1.
         21   -1    0    0  503  504 -0.00000000000E+00 -0.00000000000E+00 -0.55698456271E+02  0.55698456271E+02  0.00000000000E+00 0. -1.
         25    2    1    2    0    0 -0.18572735863E+02  0.53661582310E+02  0.21107911410E+03  0.25180193154E+03  0.12500123353E+03 0.  0.
         25    2    1    2    0    0  0.18572735863E+02 -0.53661582310E+02  0.98016944202E+02  0.16869103930E+03  0.12499933383E+03 0.  0.
          5    1    3    3  501    0  0.37970144647E+00 -0.30912043796E+02  0.12759634779E+03  0.13137205409E+03  0.47000000000E+01 0.  1.
         -5    1    3    3    0  501 -0.18952437309E+02  0.84573626106E+02  0.83482766301E+02  0.12042987745E+03  0.47000000000E+01 0.  1.
          5    1    4    4  502    0 -0.18209765700E+02 -0.58676654811E+01  0.10587350131E+03  0.10769082294E+03  0.47000000000E+01 0. -1.
         -5    1    4    4    0  502  0.36782501562E+02 -0.47793916829E+02 -0.78565571096E+01  0.61000216366E+02  0.47000000000E+01 0. -1.
<mgrwt>
<rscale>  0 0.28508589E+03</rscale>
<asrwt>0</asrwt>
<pdfrwt beam="1">  1       21 0.56122231E-01 0.28508589E+03</pdfrwt>
<pdfrwt beam="2">  1       21 0.85689935E-02 0.28508589E+03</pdfrwt>
<totfact> 0.31113611E+05</totfact>
</mgrwt>
</event>
<event>
 8    1  0.9705063E-006  0.2767811E+03  0.7546771E-02  0.1097460E+00
         21   -1    0    0  504  503  0.00000000000E+00  0.00000000000E+00  0.35042232135E+02  0.35042232135E+02  0.00000000000E+00 0. -1.
         21   -1    0    0  503  504 -0.00000000000E+00 -0.00000000000E+00 -0.54653907176E+03  0.54653907176E+03  0.00000000000E+00 0. -1.
         25    2    1    2    0    0  0.15651410836E+02  0.77000532648E+01 -0.13649475276E+03  0.18590442878E+03  0.12500152651E+03 0.  0.
         25    2    1    2    0    0 -0.15651410836E+02 -0.77000532648E+01 -0.37500208687E+03  0.39567687512E+03  0.12501746623E+03 0.  0.
          5    1    3    3  501    0  0.25621454439E+02 -0.50986626323E+02 -0.32103542712E+02  0.65641621293E+02  0.47000000000E+01 0.  1.
         -5    1    3    3    0  501 -0.99700436031E+01  0.58686679588E+02 -0.10439121004E+03  0.12026280749E+03  0.47000000000E+01 0.  1.
          5    1    4    4  502    0 -0.54827688290E+02 -0.36723254659E+02 -0.29110466786E+03  0.29852753724E+03  0.47000000000E+01 0.  1.
         -5    1    4    4    0  502  0.39176277454E+02  0.29023201394E+02 -0.83897419008E+02  0.97149337880E+02  0.47000000000E+01 0.  1.
<mgrwt>
<rscale>  0 0.27678113E+03</rscale>
<asrwt>0</asrwt>
<pdfrwt beam="1">  1       21 0.53911129E-02 0.27678113E+03</pdfrwt>
<pdfrwt beam="2">  1       21 0.84082931E-01 0.27678113E+03</pdfrwt>
<totfact> 0.28426687E+05</totfact>
</mgrwt>
</event>
<event>
 8    1  0.9705063E-006  0.3133518E+03  0.7546771E-02  0.1078750E+00
         21   -1    0    0  504  503  0.00000000000E+00  0.00000000000E+00  0.17704257295E+03  0.17704257295E+03  0.00000000000E+00 0. -1.
         21   -1    0    0  503  504 -0.00000000000E+00 -0.00000000000E+00 -0.13865221688E+03  0.13865221688E+03  0.00000000000E+00 0. -1.
         25    2    1    2    0    0 -0.41025710018E+02  0.78897551934E+02 -0.12894247428E+02  0.15394394306E+03  0.12499817360E+03 0.  0.
         25    2    1    2    0    0  0.41025710018E+02 -0.78897551934E+02  0.51284603496E+02  0.16175084677E+03  0.12500117317E+03 0.  0.
          5    1    3    3  501    0 -0.39995676056E+01  0.23222515905E+02  0.54087576937E+02  0.59184776463E+02  0.47000000000E+01 0.  1.
         -5    1    3    3    0  501 -0.37026142412E+02  0.55675036029E+02 -0.66981824365E+02  0.94759166596E+02  0.47000000000E+01 0.  1.
          5    1    4    4  502    0  0.33100247733E+01  0.39194927667E+01 -0.35343817827E+02  0.36022134114E+02  0.47000000000E+01 0. -1.
         -5    1    4    4    0  502  0.37715685244E+02 -0.82817044700E+02  0.86628421323E+02  0.12572871266E+03  0.47000000000E+01 0. -1.
<mgrwt>
<rscale>  0 0.31335185E+03</rscale>
<asrwt>0</asrwt>
<pdfrwt beam="1">  1       21 0.27237319E-01 0.31335185E+03</pdfrwt>
<pdfrwt beam="2">  1       21 0.21331110E-01 0.31335185E+03</pdfrwt>
<totfact> 0.25541006E+05</totfact>
</mgrwt>
</event>
<event>
 8    1  0.9705063E-006  0.3529325E+03  0.7546771E-02  0.1061418E+00
         21   -1    0    0  504  503  0.00000000000E+00  0.00000000000E+00  0.44054702404E+02  0.44054702404E+02  0.00000000000E+00 0.  1.
         21   -1    0    0  503  504 -0.00000000000E+00 -0.00000000000E+00 -0.70685625224E+03  0.70685625224E+03  0.00000000000E+00 0.  1.
         25    2    1    2    0    0  0.10065250418E+03 -0.71648780296E+02 -0.29775695973E+03  0.34576062396E+03  0.12500691058E+03 0.  0.
         25    2    1    2    0    0 -0.10065250418E+03  0.71648780296E+02 -0.36504459011E+03  0.40515033069E+03  0.12499905350E+03 0.  0.
          5    1    3    3  501    0  0.79841642256E+02 -0.68408749937E+02 -0.30527597866E+03  0.32290859086E+03  0.47000000000E+01 0. -1.
         -5    1    3    3    0  501  0.20810861928E+02 -0.32400303587E+01  0.75190189262E+01  0.22852033094E+02  0.47000000000E+01 0. -1.
          5    1    4    4  502    0 -0.53832071177E+02  0.80714533999E+02 -0.11489316996E+03  0.15045018574E+03  0.47000000000E+01 0. -1.
         -5    1    4    4    0  502 -0.46820433007E+02 -0.90657537032E+01 -0.25015142014E+03  0.25470014495E+03  0.47000000000E+01 0. -1.
<mgrwt>
<rscale>  0 0.35293253E+03</rscale>
<asrwt>0</asrwt>
<pdfrwt beam="1">  1       21 0.67776472E-02 0.35293253E+03</pdfrwt>
<pdfrwt beam="2">  1       21 0.10874711E+00 0.35293253E+03</pdfrwt>
<totfact> 0.10176155E+05</totfact>
</mgrwt>
</event>
<event>
 8    1  0.9705063E-006  0.2906939E+03  0.7546771E-02  0.1089987E+00
         21   -1    0    0  504  503  0.00000000000E+00  0.00000000000E+00  0.31778406938E+02  0.31778406938E+02  0.00000000000E+00 0.  1.
         21   -1    0    0  503  504 -0.00000000000E+00 -0.00000000000E+00 -0.66478279171E+03  0.66478279171E+03  0.00000000000E+00 0.  1.
         25    2    1    2    0    0  0.53042648917E+02 -0.41613499768E+02 -0.39061822936E+03  0.41563435964E+03  0.12499645529E+03 0.  0.
         25    2    1    2    0    0 -0.53042648917E+02  0.41613499768E+02 -0.24238615541E+03  0.28092683901E+03  0.12499453818E+03 0.  0.
          5    1    3    3  501    0 -0.13811272422E+02  0.13802347121E+02 -0.24646376061E+03  0.24728067318E+03  0.47000000000E+01 0. -1.
         -5    1    3    3    0  501  0.66853921338E+02 -0.55415846889E+02 -0.14415446875E+03  0.16835368646E+03  0.47000000000E+01 0. -1.
          5    1    4    4  502    0  0.19517690552E+02  0.17649446136E+02  0.66675715987E-02  0.26730754532E+02  0.47000000000E+01 0. -1.
         -5    1    4    4    0  502 -0.72560339469E+02  0.23964053632E+02 -0.24239282298E+03  0.25419608448E+03  0.47000000000E+01 0. -1.
<mgrwt>
<rscale>  0 0.29069392E+03</rscale>
<asrwt>0</asrwt>
<pdfrwt beam="1">  1       21 0.48889861E-02 0.29069392E+03</pdfrwt>
<pdfrwt beam="2">  1       21 0.10227427E+00 0.29069392E+03</pdfrwt>
<totfact> 0.21109730E+05</totfact>
</mgrwt>
</event>
<event>
 8    1  0.9705063E-006  0.2697203E+03  0.7546771E-02  0.1101440E+00
         21   -1    0    0  504  503  0.00000000000E+00  0.00000000000E+00  0.29945419418E+03  0.29945419418E+03  0.00000000000E+00 0.  1.
         21   -1    0    0  503  504 -0.00000000000E+00 -0.00000000000E+00 -0.60734701210E+02  0.60734701210E+02  0.00000000000E+00 0.  1.
         25    2    1    2    0    0  0.46948530252E+01  0.20161161872E+02  0.18101805057E+03  0.22095921208E+03  0.12500769847E+03 0.  0.
         25    2    1    2    0    0 -0.46948530252E+01 -0.20161161872E+02  0.57701442399E+02  0.13922968331E+03  0.12500773642E+03 0.  0.
          5    1    3    3  501    0 -0.32217077923E+02  0.61917843997E+02  0.87963151260E+02  0.11238934778E+03  0.47000000000E+01 0. -1.
         -5    1    3    3    0  501  0.36911930948E+02 -0.41756682125E+02  0.93054899307E+02  0.10856986430E+03  0.47000000000E+01 0. -1.
          5    1    4    4  502    0 -0.29198127594E+02 -0.47352343653E+02 -0.14903909559E+02  0.57784008381E+02  0.47000000000E+01 0. -1.
         -5    1    4    4    0  502  0.24503274569E+02  0.27191181781E+02  0.72605351958E+02  0.81445674927E+02  0.47000000000E+01 0. -1.
<mgrwt>
<rscale>  0 0.26972031E+03</rscale>
<asrwt>0</asrwt>
<pdfrwt beam="1">  1       21 0.46069875E-01 0.26972031E+03</pdfrwt>
<pdfrwt beam="2">  1       21 0.93438004E-02 0.26972031E+03</pdfrwt>
<totfact> 0.40610582E+05</totfact>
</mgrwt>
</event>
<event>
 8    1  0.9705063E-006  0.2568478E+03  0.7546771E-02  0.1109052E+00
         21   -1    0    0  504  503  0.00000000000E+00  0.00000000000E+00  0.13597182557E+02  0.13597182557E+02  0.00000000000E+00 0.  1.
         21   -1    0    0  503  504 -0.00000000000E+00 -0.00000000000E+00 -0.12129501145E+04  0.12129501145E+04  0.00000000000E+00 0.  1.
         25    2    1    2    0    0  0.11954333534E+01  0.39892205443E+01 -0.46094158628E+03  0.47761745731E+03  0.12503578137E+03 0.  0.
         25    2    1    2    0    0 -0.11954333534E+01 -0.39892205443E+01 -0.73841134567E+03  0.74892983975E+03  0.12500898575E+03 0.  0.
          5    1    3    3  501    0  0.19579572898E+01 -0.28417318856E+02 -0.43467287424E+03  0.43563054898E+03  0.47000000000E+01 0.  1.
         -5    1    3    3    0  501 -0.76252393634E+00  0.32406539401E+02 -0.26268712046E+02  0.41986908332E+02  0.47000000000E+01 0.  1.
          5    1    4    4  502    0  0.59705960914E+02 -0.16153193961E+02 -0.32709840713E+03  0.33292819856E+03  0.47000000000E+01 0.  1.
         -5    1    4    4    0  502 -0.60901394268E+02  0.12163973417E+02 -0.41131293853E+03  0.41600164119E+03  0.47000000000E+01 0.  1.
<mgrwt>
<rscale>  0 0.25684785E+03</rscale>
<asrwt>0</asrwt>
<pdfrwt beam="1">  1       21 0.20918737E-02 0.25684785E+03</pdfrwt>
<pdfrwt beam="2">  1       21 0.18660776E+00 0.25684785E+03</pdfrwt>
<totfact> 0.18265086E+05</totfact>
</mgrwt>
</event>
<event>
 8    1  0.9705063E-006  0.2685786E+03  0.7546771E-02  0.1102096E+00
         21   -1    0    0  504  503  0.00000000000E+00  0.00000000000E+00  0.32725129360E+02  0.32725129360E+02  0.00000000000E+00 0. -1.
         21   -1    0    0  503  504 -0.00000000000E+00 -0.00000000000E+00 -0.55106334230E+03  0.55106334230E+03  0.00000000000E+00 0. -1.
         25    2    1    2    0    0 -0.26768283994E+02 -0.31090344240E+02 -0.31776569224E+03  0.34391981132E+03  0.12499060333E+03 0.  0.
         25    2    1    2    0    0  0.26768283994E+02  0.31090344240E+02 -0.20057252070E+03  0.23986866034E+03  0.12499795047E+03 0.  0.
          5    1    3    3  501    0 -0.33233590298E+01  0.46840420569E+02 -0.84003562765E+02  0.96352261372E+02  0.47000000000E+01 0.  1.
         -5    1    3    3    0  501 -0.23444924964E+02 -0.77930764809E+02 -0.23376212947E+03  0.24756754994E+03  0.47000000000E+01 0.  1.
          5    1    4    4  502    0 -0.22422337942E+02 -0.17754336261E+02 -0.15285831468E+03  0.15558191431E+03  0.47000000000E+01 0.  1.
         -5    1    4    4    0  502  0.49190621936E+02  0.48844680501E+02 -0.47714206019E+02  0.84286746026E+02  0.47000000000E+01 0.  1.
<mgrwt>
<rscale>  0 0.26857862E+03</rscale>
<asrwt>0</asrwt>
<pdfrwt beam="1">  1       21 0.50346354E-02 0.26857862E+03</pdfrwt>
<pdfrwt beam="2">  1       21 0.84778973E-01 0.26857862E+03</pdfrwt>
<totfact> 0.31415638E+05</totfact>
</mgrwt>
</event>
<event>
 8    1  0.9705063E-006  0.4643775E+03  0.7546771E-02  0.1023519E+00
         21   -1    0    0  504  503  0.00000000000E+00  0.00000000000E+00  0.29533187603E+03  0.29533187603E+03  0.00000000000E+00 0.  1.
         21   -1    0    0  503  504 -0.00000000000E+00 -0.00000000000E+00 -0.18254588697E+03  0.18254588697E+03  0.00000000000E+00 0.  1.
         25    2    1    2    0    0 -0.85118368409E+02  0.16914504823E+03  0.10713062417E+03  0.25091644428E+03  0.12500762934E+03 0.  0.
         25    2    1    2    0    0  0.85118368409E+02 -0.16914504823E+03  0.56553648960E+01  0.22696131872E+03  0.12499709222E+03 0.  0.
          5    1    3    3  501    0  0.54192100165E+01 -0.13239879338E+02  0.29176681009E+02  0.32833381744E+02  0.47000000000E+01 0. -1.
         -5    1    3    3    0  501 -0.90537578426E+02  0.18238492757E+03  0.77953943160E+02  0.21808306254E+03  0.47000000000E+01 0. -1.
          5    1    4    4  502    0  0.76669169524E+02 -0.11043171628E+03  0.59147026731E+02  0.14694824357E+03  0.47000000000E+01 0.  1.
         -5    1    4    4    0  502  0.84491988859E+01 -0.58713331947E+02 -0.53491661835E+02  0.80013075156E+02  0.47000000000E+01 0.  1.
<mgrwt>
<rscale>  0 0.46437752E+03</rscale>
<asrwt>0</asrwt>
<pdfrwt beam="1">  1       21 0.45435673E-01 0.46437752E+03</pdfrwt>
<pdfrwt beam="2">  1       21 0.28083983E-01 0.46437752E+03</pdfrwt>
<totfact> 0.51707450E+04</totfact>
</mgrwt>
</event>
<event>
 8    1  0.9705063E-006  0.2845513E+03  0.7546771E-02  0.1093229E+00
         21   -1    0    0  504  503  0.00000000000E+00  0.00000000000E+00  0.45025329745E+03  0.45025329745E+03  0.00000000000E+00 0.  1.
         21   -1    0    0  503  504 -0.00000000000E+00 -0.00000000000E+00 -0.44957713773E+02  0.44957713773E+02  0.00000000000E+00 0.  1.
         25    2    1    2    0    0 -0.67508083267E+02 -0.13877596535E+01  0.21575357930E+03  0.25832986105E+03  0.12500177178E+03 0.  0.
         25    2    1    2    0    0  0.67508083267E+02  0.13877596535E+01  0.18954200439E+03  0.23688115018E+03  0.12500896248E+03 0.  0.
          5    1    3    3  501    0 -0.79432079658E+02  0.46374114172E+02  0.12957846679E+03  0.15897384313E+03  0.47000000000E+01 0.  1.
         -5    1    3    3    0  501  0.11923996391E+02 -0.47761873825E+02  0.86175112505E+02  0.99356017918E+02  0.47000000000E+01 0.  1.
          5    1    4    4  502    0 -0.75582966999E+00  0.77969559631E+01  0.16292639305E+03  0.16318230098E+03  0.47000000000E+01 0.  1.
         -5    1    4    4    0  502  0.68263912937E+02 -0.64091963096E+01  0.26615611339E+02  0.73698849202E+02  0.47000000000E+01 0.  1.
<mgrwt>
<rscale>  0 0.28455129E+03</rscale>
<asrwt>0</asrwt>
<pdfrwt beam="1">  1       21 0.69269735E-01 0.28455129E+03</pdfrwt>
<pdfrwt beam="2">  1       21 0.69165716E-02 0.28455129E+03</pdfrwt>
<totfact> 0.28606345E+05</totfact>
</mgrwt>
</event>
<event>
 8    1  0.9705063E-006  0.2908622E+03  0.7546771E-02  0.1089900E+00
         21   -1    0    0  504  503  0.00000000000E+00  0.00000000000E+00  0.20904283784E+03  0.20904283784E+03  0.00000000000E+00 0.  1.
         21   -1    0    0  503  504 -0.00000000000E+00 -0.00000000000E+00 -0.10117643371E+03  0.10117643371E+03  0.00000000000E+00 0.  1.
         25    2    1    2    0    0  0.96839510315E+01 -0.36561658573E+02  0.12214558125E+03  0.17881310147E+03  0.12499619375E+03 0.  0.
         25    2    1    2    0    0 -0.96839510315E+01  0.36561658573E+02 -0.14279177122E+02  0.13140617009E+03  0.12503260716E+03 0.  0.
          5    1    3    3  501    0 -0.43032679804E+02 -0.51682503400E+02  0.35579405741E+02  0.76229107313E+02  0.47000000000E+01 0. -1.
         -5    1    3    3    0  501  0.52716630835E+02  0.15120844828E+02  0.86566175505E+02  0.10258399415E+03  0.47000000000E+01 0. -1.
          5    1    4    4  502    0  0.51972390457E+02  0.42970553129E+02  0.95056084358E-01  0.67599532851E+02  0.47000000000E+01 0. -1.
         -5    1    4    4    0  502 -0.61656341488E+02 -0.64088945569E+01 -0.14374233206E+02  0.63806637236E+02  0.47000000000E+01 0. -1.
<mgrwt>
<rscale>  0 0.29086223E+03</rscale>
<asrwt>0</asrwt>
<pdfrwt beam="1">  1       21 0.32160437E-01 0.29086223E+03</pdfrwt>
<pdfrwt beam="2">  1       21 0.15565605E-01 0.29086223E+03</pdfrwt>
<totfact> 0.33362388E+05</totfact>
</mgrwt>
</event>
<event>
 8    1  0.9705063E-006  0.4673860E+03  0.7546771E-02  0.1022661E+00
         21   -1    0    0  504  503  0.00000000000E+00  0.00000000000E+00  0.19530120617E+03  0.19530120617E+03  0.00000000000E+00 0.  1.
         21   -1    0    0  503  504 -0.00000000000E+00 -0.00000000000E+00 -0.27963170482E+03  0.27963170482E+03  0.00000000000E+00 0.  1.
         25    2    1    2    0    0  0.80647333914E+01  0.18506477192E+03  0.27295435391E+02  0.22513226654E+03  0.12500194764E+03 0.  0.
         25    2    1    2    0    0 -0.80647333914E+01 -0.18506477192E+03 -0.11162593403E+03  0.24980064445E+03  0.12500401227E+03 0.  0.
          5    1    3    3  501    0  0.35954118539E+01 -0.12352051359E+02  0.23939289989E+02  0.27580423571E+02  0.47000000000E+01 0. -1.
         -5    1    3    3    0  501  0.44693215375E+01  0.19741682328E+03  0.33561454018E+01  0.19755184297E+03  0.47000000000E+01 0. -1.
          5    1    4    4  502    0 -0.23061705248E+02 -0.18919677028E+03 -0.66633967065E+02  0.20196394654E+03  0.47000000000E+01 0. -1.
         -5    1    4    4    0  502  0.14996971856E+02  0.41319983552E+01 -0.44991966969E+02  0.47836697911E+02  0.47000000000E+01 0. -1.
<mgrwt>
<rscale>  0 0.46738596E+03</rscale>
<asrwt>0</asrwt>
<pdfrwt beam="1">  1       21 0.30046339E-01 0.46738596E+03</pdfrwt>
<pdfrwt beam="2">  1       21 0.43020262E-01 0.46738596E+03</pdfrwt>
<totfact> 0.50673321E+04</totfact>
</mgrwt>
</event>
<event>
 8    1  0.9705063E-006  0.2571791E+03  0.7546771E-02  0.1108850E+00
         21   -1    0    0  504  503  0.00000000000E+00  0.00000000000E+00  0.96402049344E+02  0.96402049344E+02  0.00000000000E+00 0. -1.
         21   -1    0    0  503  504 -0.00000000000E+00 -0.00000000000E+00 -0.17152404029E+03  0.17152404029E+03  0.00000000000E+00 0. -1.
         25    2    1    2    0    0  0.83769246449E+01  0.25782617037E+02 -0.51395636270E+02  0.13784256635E+03  0.12499658181E+03 0.  0.
         25    2    1    2    0    0 -0.83769246449E+01 -0.25782617037E+02 -0.23726354680E+02  0.13008352328E+03  0.12499546758E+03 0.  0.
          5    1    3    3  501    0  0.44350248159E+02 -0.17240253833E+02 -0.64275745559E+02  0.80110126271E+02  0.47000000000E+01 0. -1.
         -5    1    3    3    0  501 -0.35973323514E+02  0.43022870871E+02  0.12880109289E+02  0.57732440082E+02  0.47000000000E+01 0. -1.
          5    1    4    4  502    0 -0.34898864931E+01 -0.48057629038E+02 -0.65981745505E+02  0.81837618222E+02  0.47000000000E+01 0.  1.
         -5    1    4    4    0  502 -0.48870381519E+01  0.22275012001E+02  0.42255390825E+02  0.48245905062E+02  0.47000000000E+01 0.  1.
<mgrwt>
<rscale>  0 0.25717907E+03</rscale>
<asrwt>0</asrwt>
<pdfrwt beam="1">  1       21 0.14831085E-01 0.25717907E+03</pdfrwt>
<pdfrwt beam="2">  1       21 0.26388314E-01 0.25717907E+03</pdfrwt>
<totfact> 0.54042013E+05</totfact>
</mgrwt>
</event>
<event>
 8    1  0.9705063E-006  0.4463991E+03  0.7546771E-02  0.1028801E+00
         21   -1    0    0  504  503  0.00000000000E+00  0.00000000000E+00  0.73862395677E+03  0.73862395677E+03  0.00000000000E+00 0. -1.
         21   -1    0    0  503  504 -0.00000000000E+00 -0.00000000000E+00 -0.67447088835E+02  0.67447088835E+02  0.00000000000E+00 0. -1.
         25    2    1    2    0    0 -0.15098931405E+03 -0.76516903729E+02  0.20118918516E+03  0.29112751387E+03  0.12500212635E+03 0.  0.
         25    2    1    2    0    0  0.15098931405E+03  0.76516903729E+02  0.46998768277E+03  0.51494353173E+03  0.12500323758E+03 0.  0.
          5    1    3    3  501    0 -0.47443449736E+02  0.19544846030E+02  0.85825645314E+01  0.52236312496E+02  0.47000000000E+01 0.  1.
         -5    1    3    3    0  501 -0.10354586431E+03 -0.96061749759E+02  0.19260662063E+03  0.23889120137E+03  0.47000000000E+01 0.  1.
          5    1    4    4  502    0  0.28216919723E+02  0.74340727819E+02  0.25687590055E+03  0.26894247834E+03  0.47000000000E+01 0. -1.
         -5    1    4    4    0  502  0.12277239433E+03  0.21761759096E+01  0.21311178222E+03  0.24600105339E+03  0.47000000000E+01 0. -1.
<mgrwt>
<rscale>  0 0.44639908E+03</rscale>
<asrwt>0</asrwt>
<pdfrwt beam="1">  1       21 0.11363445E+00 0.44639908E+03</pdfrwt>
<pdfrwt beam="2">  1       21 0.10376476E-01 0.44639908E+03</pdfrwt>
<totfact> 0.41881622E+04</totfact>
</mgrwt>
</event>
<event>
 8    1  0.9705063E-006  0.2612313E+03  0.7546771E-02  0.1106406E+00
         21   -1    0    0  504  503  0.00000000000E+00  0.00000000000E+00  0.38026535131E+03  0.38026535131E+03  0.00000000000E+00 0.  1.
         21   -1    0    0  503  504 -0.00000000000E+00 -0.00000000000E+00 -0.44864582109E+02  0.44864582109E+02  0.00000000000E+00 0.  1.
         25    2    1    2    0    0  0.36525074277E+01  0.29705850594E+02  0.12993255762E+03  0.18276935260E+03  0.12500555327E+03 0.  0.
         25    2    1    2    0    0 -0.36525074277E+01 -0.29705850594E+02  0.20546821158E+03  0.24236058082E+03  0.12500274716E+03 0.  0.
          5    1    3    3  501    0  0.10590101009E+02 -0.30206076825E+02  0.11635547285E+03  0.12076938096E+03  0.47000000000E+01 0. -1.
         -5    1    3    3    0  501 -0.69375935812E+01  0.59911927418E+02  0.13577084775E+02  0.61999971634E+02  0.47000000000E+01 0. -1.
          5    1    4    4  502    0 -0.51197801733E+02 -0.46547917956E+02  0.15961638266E+03  0.17403276468E+03  0.47000000000E+01 0. -1.
         -5    1    4    4    0  502  0.47545294305E+02  0.16842067362E+02  0.45851828917E+02  0.68327816141E+02  0.47000000000E+01 0. -1.
<mgrwt>
<rscale>  0 0.26123129E+03</rscale>
<asrwt>0</asrwt>
<pdfrwt beam="1">  1       21 0.58502360E-01 0.26123129E+03</pdfrwt>
<pdfrwt beam="2">  1       21 0.69022437E-02 0.26123129E+03</pdfrwt>
<totfact> 0.41753130E+05</totfact>
</mgrwt>
</event>
<event>
 8    1  0.9705063E-006  0.2602791E+03  0.7546771E-02  0.1106976E+00
         21   -1    0    0  504  503  0.00000000000E+00  0.00000000000E+00  0.15096111929E+03  0.15096111929E+03  0.00000000000E+00 0.  1.
         21   -1    0    0  503  504 -0.00000000000E+00 -0.00000000000E+00 -0.11218979063E+03  0.11218979063E+03  0.00000000000E+00 0.  1.
         25    2    1    2    0    0  0.92633176432E+01  0.31233554143E+02  0.35344357692E+02  0.13392718783E+03  0.12500369619E+03 0.  0.
         25    2    1    2    0    0 -0.92633176432E+01 -0.31233554143E+02  0.34269709680E+01  0.12922372209E+03  0.12500272902E+03 0.  0.
          5    1    3    3  501    0 -0.44439324132E+02 -0.20541373025E+02  0.32844811492E+02  0.59141129318E+02  0.47000000000E+01 0. -1.
         -5    1    3    3    0  501  0.53702641775E+02  0.51774927168E+02  0.24995462001E+01  0.74786058514E+02  0.47000000000E+01 0. -1.
          5    1    4    4  502    0  0.40511939639E+02 -0.32333364623E+02  0.41341553340E+02  0.66467117838E+02  0.47000000000E+01 0. -1.
         -5    1    4    4    0  502 -0.49775257283E+02  0.10998104800E+01 -0.37914582372E+02  0.62756604251E+02  0.47000000000E+01 0. -1.
<mgrwt>
<rscale>  0 0.26027905E+03</rscale>
<asrwt>0</asrwt>
<pdfrwt beam="1">  1       21 0.23224788E-01 0.26027905E+03</pdfrwt>
<pdfrwt beam="2">  1       21 0.17259968E-01 0.26027905E+03</pdfrwt>
<totfact> 0.52194282E+05</totfact>
</mgrwt>
</event>
<event>
 8    1  0.9705063E-006  0.2815714E+03  0.7546771E-02  0.1094834E+00
         21   -1    0    0  504  503  0.00000000000E+00  0.00000000000E+00  0.29591647457E+03  0.29591647457E+03  0.00000000000E+00 0.  1.
         21   -1    0    0  503  504 -0.00000000000E+00 -0.00000000000E+00 -0.66980425894E+02  0.66980425894E+02  0.00000000000E+00 0.  1.
         25    2    1    2    0    0  0.93022566363E+01  0.15658734498E+02  0.34279766337E+02  0.13085416054E+03  0.12496391881E+03 0.  0.
         25    2    1    2    0    0 -0.93022566363E+01 -0.15658734498E+02  0.19465628234E+03  0.23204273993E+03  0.12498414681E+03 0.  0.
          5    1    3    3  501    0 -0.48471463568E+02  0.38656702789E+02  0.27962100757E+02  0.68174720606E+02  0.47000000000E+01 0. -1.
         -5    1    3    3    0  501  0.57773720205E+02 -0.22997968291E+02  0.63176655798E+01  0.62679439932E+02  0.47000000000E+01 0. -1.
          5    1    4    4  502    0  0.35888440124E+02  0.36049316648E+02  0.12040782408E+03  0.13079628231E+03  0.47000000000E+01 0.  1.
         -5    1    4    4    0  502 -0.45190696760E+02 -0.51708051146E+02  0.74248458263E+02  0.10124645762E+03  0.47000000000E+01 0.  1.
<mgrwt>
<rscale>  0 0.28157139E+03</rscale>
<asrwt>0</asrwt>
<pdfrwt beam="1">  1       21 0.45525611E-01 0.28157139E+03</pdfrwt>
<pdfrwt beam="2">  1       21 0.10304681E-01 0.28157139E+03</pdfrwt>
<totfact> 0.34894618E+05</totfact>
</mgrwt>
</event>
<event>
 8    1  0.9705063E-006  0.2601780E+03  0.7546771E-02  0.1107036E+00
         21   -1    0    0  504  503  0.00000000000E+00  0.00000000000E+00  0.26331295944E+03  0.26331295944E+03  0.00000000000E+00 0.  1.
         21   -1    0    0  503  504 -0.00000000000E+00 -0.00000000000E+00 -0.64270090382E+02  0.64270090382E+02  0.00000000000E+00 0.  1.
         25    2    1    2    0    0  0.19148743959E+02 -0.28347349010E+02  0.85232364659E+02  0.15511364286E+03  0.12500175849E+03 0.  0.
         25    2    1    2    0    0 -0.19148743959E+02  0.28347349010E+02  0.11381050440E+03  0.17246940695E+03  0.12499047497E+03 0.  0.
          5    1    3    3  501    0  0.30963424139E+02 -0.12885081093E+02 -0.25622307723E+02  0.42465887513E+02  0.47000000000E+01 0.  1.
         -5    1    3    3    0  501 -0.11814680180E+02 -0.15462267918E+02  0.11085467238E+03  0.11264775535E+03  0.47000000000E+01 0.  1.
          5    1    4    4  502    0 -0.47907573089E+02  0.37356112062E+02  0.69333603096E+01  0.61325167369E+02  0.47000000000E+01 0. -1.
         -5    1    4    4    0  502  0.28758829130E+02 -0.90087630520E+01  0.10687714409E+03  0.11114423958E+03  0.47000000000E+01 0. -1.
<mgrwt>
<rscale>  0 0.26017800E+03</rscale>
<asrwt>0</asrwt>
<pdfrwt beam="1">  1       21 0.40509686E-01 0.26017800E+03</pdfrwt>
<pdfrwt beam="2">  1       21 0.98877063E-02 0.26017800E+03</pdfrwt>
<totfact> 0.47946273E+05</totfact>
</mgrwt>
</event>
<event>
 8    1  0.9705063E-006  0.2717269E+03  0.7546771E-02  0.1100295E+00
         21   -1    0    0  504  503  0.00000000000E+00  0.00000000000E+00  0.14081809897E+03  0.14081809897E+03  0.00000000000E+00 0.  1.
         21   -1    0    0  503  504 -0.00000000000E+00 -0.00000000000E+00 -0.13108308189E+03  0.13108308189E+03  0.00000000000E+00 0.  1.
         25    2    1    2    0    0 -0.30931791921E+02 -0.35865831552E+02  0.29198855393E+02  0.13681743119E+03  0.12499321060E+03 0.  0.
         25    2    1    2    0    0  0.30931791921E+02  0.35865831552E+02 -0.19463838319E+02  0.13508374968E+03  0.12500257917E+03 0.  0.
          5    1    3    3  501    0 -0.80313403134E+01  0.44141230679E+02  0.28692973188E+02  0.53463327463E+02  0.47000000000E+01 0.  1.
         -5    1    3    3    0  501 -0.22900451607E+02 -0.80007062231E+02  0.50588220481E+00  0.83354103723E+02  0.47000000000E+01 0.  1.
          5    1    4    4  502    0  0.56436557678E+02  0.32904445965E+02 -0.58703999171E+02  0.87954744758E+02  0.47000000000E+01 0. -1.
         -5    1    4    4    0  502 -0.25504765758E+02  0.29613855868E+01  0.39240160852E+02  0.47129004919E+02  0.47000000000E+01 0. -1.
<mgrwt>
<rscale>  0 0.27172685E+03</rscale>
<asrwt>0</asrwt>
<pdfrwt beam="1">  1       21 0.21664323E-01 0.27172685E+03</pdfrwt>
<pdfrwt beam="2">  1       21 0.20166628E-01 0.27172685E+03</pdfrwt>
<totfact> 0.44451265E+05</totfact>
</mgrwt>
</event>
<event>
 8    1  0.9705063E-006  0.4485699E+03  0.7546771E-02  0.1028149E+00
         21   -1    0    0  504  503  0.00000000000E+00  0.00000000000E+00  0.12740937724E+03  0.12740937724E+03  0.00000000000E+00 0.  1.
         21   -1    0    0  503  504 -0.00000000000E+00 -0.00000000000E+00 -0.39481980501E+03  0.39481980501E+03  0.00000000000E+00 0.  1.
         25    2    1    2    0    0  0.13334412714E+03  0.19137038138E+02 -0.28339885363E+03  0.33776580028E+03  0.12499577245E+03 0.  0.
         25    2    1    2    0    0 -0.13334412714E+03 -0.19137038138E+02  0.15988425850E+02  0.18446338197E+03  0.12499690817E+03 0.  0.
          5    1    3    3  501    0  0.10321998559E+03  0.12361333517E+02 -0.28797429077E+03  0.30620001655E+03  0.47000000000E+01 0. -1.
         -5    1    3    3    0  501  0.30124141550E+02  0.67757046214E+01  0.45754371459E+01  0.31565783727E+02  0.47000000000E+01 0. -1.
          5    1    4    4  502    0 -0.14272780889E+03  0.18877926977E+02  0.83194012728E+01  0.14428758087E+03  0.47000000000E+01 0. -1.
         -5    1    4    4    0  502  0.93836817423E+01 -0.38014965115E+02  0.76690245775E+01  0.40175801096E+02  0.47000000000E+01 0. -1.
<mgrwt>
<rscale>  0 0.44856993E+03</rscale>
<asrwt>0</asrwt>
<pdfrwt beam="1">  1       21 0.19601442E-01 0.44856993E+03</pdfrwt>
<pdfrwt beam="2">  1       21 0.60741509E-01 0.44856993E+03</pdfrwt>
<totfact> 0.55800343E+04</totfact>
</mgrwt>
</event>
<event>
 8    1  0.9705063E-006  0.3606966E+03  0.7546771E-02  0.1058308E+00
         21   -1    0    0  504  503  0.00000000000E+00  0.00000000000E+00  0.26947276572E+02  0.26947276572E+02  0.00000000000E+00 0.  1.
         21   -1    0    0  503  504 -0.00000000000E+00 -0.00000000000E+00 -0.12070052425E+04  0.12070052425E+04  0.00000000000E+00 0.  1.
         25    2    1    2    0    0 -0.24511080933E+02 -0.73148804541E+02 -0.23206947606E+03  0.27464887748E+03  0.12499689391E+03 0.  0.
         25    2    1    2    0    0  0.24511080933E+02  0.73148804541E+02 -0.94798848982E+03  0.95930364155E+03  0.12501903518E+03 0.  0.
          5    1    3    3  501    0 -0.58406879004E+02 -0.34815112891E+02 -0.20609185046E+03  0.21707002655E+03  0.47000000000E+01 0.  1.
         -5    1    3    3    0  501  0.33895798071E+02 -0.38333691650E+02 -0.25977625600E+02  0.57578850928E+02  0.47000000000E+01 0.  1.
          5    1    4    4  502    0  0.50469066788E+02  0.91657799346E+02 -0.84296980677E+03  0.84945186092E+03  0.47000000000E+01 0. -1.
         -5    1    4    4    0  502 -0.25957985856E+02 -0.18508994805E+02 -0.10501868305E+03  0.10985178063E+03  0.47000000000E+01 0. -1.
<mgrwt>
<rscale>  0 0.36069657E+03</rscale>
<asrwt>0</asrwt>
<pdfrwt beam="1">  1       21 0.41457340E-02 0.36069657E+03</pdfrwt>
<pdfrwt beam="2">  1       21 0.18569315E+00 0.36069657E+03</pdfrwt>
<totfact> 0.56932145E+04</totfact>
</mgrwt>
</event>
<event>
 8    1  0.9705063E-006  0.3436510E+03  0.7546771E-02  0.1065252E+00
         21   -1    0    0  504  503  0.00000000000E+00  0.00000000000E+00  0.67937443251E+03  0.67937443251E+03  0.00000000000E+00 0.  1.
         21   -1    0    0  503  504 -0.00000000000E+00 -0.00000000000E+00 -0.43457618066E+02  0.43457618066E+02  0.00000000000E+00 0.  1.
         25    2    1    2    0    0  0.94272461919E+02 -0.64611906643E+02  0.25716894380E+03  0.30793815430E+03  0.12501218205E+03 0.  0.
         25    2    1    2    0    0 -0.94272461919E+02  0.64611906643E+02  0.37874787064E+03  0.41489389627E+03  0.12500000038E+03 0.  0.
          5    1    3    3  501    0  0.70989060399E+01 -0.11055867555E+02 -0.12960591485E+02  0.19044516429E+02  0.47000000000E+01 0.  1.
         -5    1    3    3    0  501  0.87173555879E+02 -0.53556039088E+02  0.27012953529E+03  0.28889363787E+03  0.47000000000E+01 0.  1.
          5    1    4    4  502    0 -0.23538634858E+02  0.62630786286E+02  0.65612562374E+02  0.93828466166E+02  0.47000000000E+01 0.  1.
         -5    1    4    4    0  502 -0.70733827061E+02  0.19811203570E+01  0.31313530826E+03  0.32106543011E+03  0.47000000000E+01 0.  1.
<mgrwt>
<rscale>  0 0.34365095E+03</rscale>
<asrwt>0</asrwt>
<pdfrwt beam="1">  1       21 0.10451914E+00 0.34365095E+03</pdfrwt>
<pdfrwt beam="2">  1       21 0.66857879E-02 0.34365095E+03</pdfrwt>
<totfact> 0.11511828E+05</totfact>
</mgrwt>
</event>
<event>
 8    1  0.9705063E-006  0.3181914E+03  0.7546771E-02  0.1076485E+00
         21   -1    0    0  504  503  0.00000000000E+00  0.00000000000E+00  0.53963238338E+02  0.53963238338E+02  0.00000000000E+00 0. -1.
         21   -1    0    0  503  504 -0.00000000000E+00 -0.00000000000E+00 -0.46904978952E+03  0.46904978952E+03  0.00000000000E+00 0. -1.
         25    2    1    2    0    0  0.58463120053E+02  0.57516316276E+00 -0.33767661594E+03  0.36478641990E+03  0.12500147185E+03 0.  0.
         25    2    1    2    0    0 -0.58463120053E+02 -0.57516316276E+00 -0.77409935235E+02  0.15822660796E+03  0.12500037670E+03 0.  0.
          5    1    3    3  501    0  0.15510011262E+02 -0.28401561018E+02 -0.11770825498E+02  0.34754157312E+02  0.47000000000E+01 0. -1.
         -5    1    3    3    0  501  0.42953108791E+02  0.28976724181E+02 -0.32590579045E+03  0.33003226258E+03  0.47000000000E+01 0. -1.
          5    1    4    4  502    0 -0.33974877675E+02 -0.34340270422E+01 -0.11103779839E+03  0.11626507441E+03  0.47000000000E+01 0. -1.
         -5    1    4    4    0  502 -0.24488242378E+02  0.28588638795E+01  0.33627863159E+02  0.41961533552E+02  0.47000000000E+01 0. -1.
<mgrwt>
<rscale>  0 0.31819142E+03</rscale>
<asrwt>0</asrwt>
<pdfrwt beam="1">  1       21 0.83020368E-02 0.31819142E+03</pdfrwt>
<pdfrwt beam="2">  1       21 0.72161505E-01 0.31819142E+03</pdfrwt>
<totfact> 0.18819038E+05</totfact>
</mgrwt>
</event>
<event>
 8    1  0.9705063E-006  0.2518287E+03  0.7546771E-02  0.1112155E+00
         21   -1    0    0  504  503  0.00000000000E+00  0.00000000000E+00  0.15231680363E+03  0.15231680363E+03  0.00000000000E+00 0. -1.
         21   -1    0    0  503  504 -0.00000000000E+00 -0.00000000000E+00 -0.10408844993E+03  0.10408844993E+03  0.00000000000E+00 0. -1.
         25    2    1    2    0    0  0.78434775222E+01  0.56058207804E+01  0.36075291900E+02  0.13045161083E+03  0.12499300267E+03 0.  0.
         25    2    1    2    0    0 -0.78434775222E+01 -0.56058207804E+01  0.12153061802E+02  0.12595364273E+03  0.12499471124E+03 0.  0.
          5    1    3    3  501    0  0.80282865674E+01  0.17309969004E+01  0.82796079072E+02  0.83335049320E+02  0.47000000000E+01 0.  1.
         -5    1    3    3    0  501 -0.18480904518E+00  0.38748238800E+01 -0.46720787172E+02  0.47116561509E+02  0.47000000000E+01 0.  1.
          5    1    4    4  502    0  0.20202220546E+02  0.10727526048E+02 -0.50276564217E+02  0.55434938799E+02  0.47000000000E+01 0. -1.
         -5    1    4    4    0  502 -0.28045698069E+02 -0.16333346829E+02  0.62429626020E+02  0.70518703928E+02  0.47000000000E+01 0. -1.
<mgrwt>
<rscale>  0 0.25182867E+03</rscale>
<asrwt>0</asrwt>
<pdfrwt beam="1">  1       21 0.23433354E-01 0.25182867E+03</pdfrwt>
<pdfrwt beam="2">  1       21 0.16013608E-01 0.25182867E+03</pdfrwt>
<totfact> 0.59018904E+05</totfact>
</mgrwt>
</event>
<event>
 8    1  0.9705063E-006  0.2654558E+03  0.7546771E-02  0.1103909E+00
         21   -1    0    0  504  503  0.00000000000E+00  0.00000000000E+00  0.17156655173E+02  0.17156655173E+02  0.00000000000E+00 0.  1.
         21   -1    0    0  503  504 -0.00000000000E+00 -0.00000000000E+00 -0.10268140844E+04  0.10268140844E+04  0.00000000000E+00 0.  1.
         25    2    1    2    0    0  0.14691525838E+02  0.24437901787E+02 -0.64015096837E+03  0.65286314317E+03  0.12499587765E+03 0.  0.
         25    2    1    2    0    0 -0.14691525838E+02 -0.24437901787E+02 -0.36950646084E+03  0.39110759639E+03  0.12496829747E+03 0.  0.
          5    1    3    3  501    0 -0.45054279418E+02  0.41062709812E+02 -0.40668679994E+03  0.41125694825E+03  0.47000000000E+01 0. -1.
         -5    1    3    3    0  501  0.59745805256E+02 -0.16624808026E+02 -0.23346416842E+03  0.24160619492E+03  0.47000000000E+01 0. -1.
          5    1    4    4  502    0 -0.13517737607E+02  0.24941976267E+02 -0.31904731248E+03  0.32034061405E+03  0.47000000000E+01 0.  1.
         -5    1    4    4    0  502 -0.11737882307E+01 -0.49379878053E+02 -0.50459148358E+02  0.70766982332E+02  0.47000000000E+01 0.  1.
<mgrwt>
<rscale>  0 0.26545580E+03</rscale>
<asrwt>0</asrwt>
<pdfrwt beam="1">  1       21 0.26394845E-02 0.26545580E+03</pdfrwt>
<pdfrwt beam="2">  1       21 0.15797145E+00 0.26545580E+03</pdfrwt>
<totfact> 0.19799987E+05</totfact>
</mgrwt>
</event>
<event>
 8    1  0.9705063E-006  0.2716359E+03  0.7546771E-02  0.1100347E+00
         21   -1    0    0  504  503  0.00000000000E+00  0.00000000000E+00  0.23202695006E+04  0.23202695006E+04  0.00000000000E+00 0. -1.
         21   -1    0    0  503  504 -0.00000000000E+00 -0.00000000000E+00 -0.79501602244E+01  0.79501602244E+01  0.00000000000E+00 0. -1.
         25    2    1    2    0    0  0.29431291426E+02 -0.16338808789E+02  0.15083079688E+04  0.15138534410E+04  0.12500461772E+03 0.  0.
         25    2    1    2    0    0 -0.29431291426E+02  0.16338808789E+02  0.80401137155E+03  0.81436621981E+03  0.12499958721E+03 0.  0.
          5    1    3    3  501    0  0.19276854483E+01  0.53071165533E+02  0.52328270716E+03  0.52599158376E+03  0.47000000000E+01 0. -1.
         -5    1    3    3    0  501  0.27503605977E+02 -0.69409974322E+02  0.98502526168E+03  0.98786185726E+03  0.47000000000E+01 0. -1.
          5    1    4    4  502    0 -0.74527720162E+02  0.27184001295E+02  0.59056510318E+03  0.59588806171E+03  0.47000000000E+01 0. -1.
         -5    1    4    4    0  502  0.45096428736E+02 -0.10845192506E+02  0.21344626837E+03  0.21847815810E+03  0.47000000000E+01 0. -1.
<mgrwt>
<rscale>  0 0.27163589E+03</rscale>
<asrwt>0</asrwt>
<pdfrwt beam="1">  1       21 0.35696400E+00 0.27163589E+03</pdfrwt>
<pdfrwt beam="2">  1       21 0.12231034E-02 0.27163589E+03</pdfrwt>
<totfact> 0.40339806E+04</totfact>
</mgrwt>
</event>
<event>
 8    1  0.9705063E-006  0.2675253E+03  0.7546771E-02  0.1102704E+00
         21   -1    0    0  504  503  0.00000000000E+00  0.00000000000E+00  0.45137118425E+03  0.45137118425E+03  0.00000000000E+00 0.  1.
         21   -1    0    0  503  504 -0.00000000000E+00 -0.00000000000E+00 -0.39640211100E+02  0.39640211100E+02  0.00000000000E+00 0.  1.
         25    2    1    2    0    0 -0.10677479442E+02  0.57428640939E+01  0.12139150322E+03  0.17467410162E+03  0.12501262203E+03 0.  0.
         25    2    1    2    0    0  0.10677479442E+02 -0.57428640939E+01  0.29033946993E+03  0.31633729373E+03  0.12500114619E+03 0.  0.
          5    1    3    3  501    0 -0.20123334921E+02  0.20787008145E+02 -0.17788369357E+02  0.34286504638E+02  0.47000000000E+01 0. -1.
         -5    1    3    3    0  501  0.94458554789E+01 -0.15044144051E+02  0.13917987257E+03  0.14038759698E+03  0.47000000000E+01 0. -1.
          5    1    4    4  502    0 -0.15113699289E+02  0.45970557056E+02  0.21938173135E+03  0.22470458400E+03  0.47000000000E+01 0. -1.
         -5    1    4    4    0  502  0.25791178731E+02 -0.51713421150E+02  0.70957738581E+02  0.91632709727E+02  0.47000000000E+01 0. -1.
<mgrwt>
<rscale>  0 0.26752532E+03</rscale>
<asrwt>0</asrwt>
<pdfrwt beam="1">  1       21 0.69441717E-01 0.26752532E+03</pdfrwt>
<pdfrwt beam="2">  1       21 0.60984943E-02 0.26752532E+03</pdfrwt>
<totfact> 0.35515791E+05</totfact>
</mgrwt>
</event>
<event>
 8    1  0.9705063E-006  0.2815748E+03  0.7546771E-02  0.1094832E+00
         21   -1    0    0  504  503  0.00000000000E+00  0.00000000000E+00  0.19578019625E+02  0.19578019625E+02  0.00000000000E+00 0.  1.
         21   -1    0    0  503  504 -0.00000000000E+00 -0.00000000000E+00 -0.10124155800E+04  0.10124155800E+04  0.00000000000E+00 0.  1.
         25    2    1    2    0    0 -0.28575640275E+02 -0.17414976168E+02 -0.29306423046E+03  0.32035602031E+03  0.12498595107E+03 0.  0.
         25    2    1    2    0    0  0.28575640275E+02  0.17414976168E+02 -0.69977332993E+03  0.71163757932E+03  0.12500192965E+03 0.  0.
          5    1    3    3  501    0 -0.17599455819E+02 -0.26722632833E+02 -0.59998147207E+01  0.32892669812E+02  0.47000000000E+01 0.  1.
         -5    1    3    3    0  501 -0.10976184456E+02  0.93076566653E+01 -0.28706441574E+03  0.28746335050E+03  0.47000000000E+01 0.  1.
          5    1    4    4  502    0  0.59958613964E+02 -0.33598360489E+02 -0.34455583756E+03  0.35137544082E+03  0.47000000000E+01 0.  1.
         -5    1    4    4    0  502 -0.31382973689E+02  0.51013336657E+02 -0.35521749237E+03  0.36026213850E+03  0.47000000000E+01 0.  1.
<mgrwt>
<rscale>  0 0.28157480E+03</rscale>
<asrwt>0</asrwt>
<pdfrwt beam="1">  1       21 0.30120029E-02 0.28157480E+03</pdfrwt>
<pdfrwt beam="2">  1       21 0.15575625E+00 0.28157480E+03</pdfrwt>
<totfact> 0.16431337E+05</totfact>
</mgrwt>
</event>
<event>
 8    1  0.9705063E-006  0.3183297E+03  0.7546771E-02  0.1076421E+00
         21   -1    0    0  504  503  0.00000000000E+00  0.00000000000E+00  0.84418097196E+02  0.84418097196E+02  0.00000000000E+00 0.  1.
         21   -1    0    0  503  504 -0.00000000000E+00 -0.00000000000E+00 -0.30009493921E+03  0.30009493921E+03  0.00000000000E+00 0.  1.
         25    2    1    2    0    0 -0.44192403636E+02  0.68207286856E+02 -0.40554967304E+02  0.15451886772E+03  0.12500469027E+03 0.  0.
         25    2    1    2    0    0  0.44192403636E+02 -0.68207286856E+02 -0.17512187471E+03  0.22999416869E+03  0.12499777641E+03 0.  0.
          5    1    3    3  501    0 -0.14597127119E+02  0.10090579397E+03 -0.41442501526E+02  0.11015727987E+03  0.47000000000E+01 0.  1.
         -5    1    3    3    0  501 -0.29595276517E+02 -0.32698507110E+02  0.88753422172E+00  0.44361587847E+02  0.47000000000E+01 0.  1.
          5    1    4    4  502    0  0.13835903407E+02  0.36805484018E+02 -0.43201180222E+02  0.58604674298E+02  0.47000000000E+01 0. -1.
         -5    1    4    4    0  502  0.30356500229E+02 -0.10501277087E+03 -0.13192069449E+03  0.17138949439E+03  0.47000000000E+01 0. -1.
<mgrwt>
<rscale>  0 0.31832966E+03</rscale>
<asrwt>0</asrwt>
<pdfrwt beam="1">  1       21 0.12987399E-01 0.31832966E+03</pdfrwt>
<pdfrwt beam="2">  1       21 0.46168453E-01 0.31832966E+03</pdfrwt>
<totfact> 0.22169577E+05</totfact>
</mgrwt>
</event>
<event>
 8    1  0.9705063E-006  0.3670889E+03  0.7546771E-02  0.1055812E+00
         21   -1    0    0  504  503  0.00000000000E+00  0.00000000000E+00  0.10270090785E+03  0.10270090785E+03  0.00000000000E+00 0. -1.
         21   -1    0    0  503  504 -0.00000000000E+00 -0.00000000000E+00 -0.32802601206E+03  0.32802601206E+03  0.00000000000E+00 0. -1.
         25    2    1    2    0    0  0.13766893190E+02 -0.11614701854E+03 -0.35014997941E+02  0.17472992030E+03  0.12499935081E+03 0.  0.
         25    2    1    2    0    0 -0.13766893190E+02  0.11614701854E+03 -0.19031010627E+03  0.25599699960E+03  0.12504747096E+03 0.  0.
          5    1    3    3  501    0 -0.55600452582E+00  0.22672266231E+02  0.13617990521E+02  0.26867833238E+02  0.47000000000E+01 0.  1.
         -5    1    3    3    0  501  0.14322897716E+02 -0.13881928477E+03 -0.48632988462E+02  0.14786208706E+03  0.47000000000E+01 0.  1.
          5    1    4    4  502    0  0.88598134182E+01  0.12558825426E+03 -0.19342651031E+03  0.23083936144E+03  0.47000000000E+01 0. -1.
         -5    1    4    4    0  502 -0.22626706608E+02 -0.94412357152E+01  0.31164040367E+01  0.25157638162E+02  0.47000000000E+01 0. -1.
<mgrwt>
<rscale>  0 0.36708892E+03</rscale>
<asrwt>0</asrwt>
<pdfrwt beam="1">  1       21 0.15800139E-01 0.36708892E+03</pdfrwt>
<pdfrwt beam="2">  1       21 0.50465541E-01 0.36708892E+03</pdfrwt>
<totfact> 0.12692473E+05</totfact>
</mgrwt>
</event>
<event>
 8    1  0.9705063E-006  0.3098631E+03  0.7546771E-02  0.1080412E+00
         21   -1    0    0  504  503  0.00000000000E+00  0.00000000000E+00  0.16893826853E+02  0.16893826853E+02  0.00000000000E+00 0.  1.
         21   -1    0    0  503  504 -0.00000000000E+00 -0.00000000000E+00 -0.14208608763E+04  0.14208608763E+04  0.00000000000E+00 0.  1.
         25    2    1    2    0    0 -0.86174316541E+02  0.65960531574E+01 -0.84184649631E+03  0.85545330717E+03  0.12500126662E+03 0.  0.
         25    2    1    2    0    0  0.86174316541E+02 -0.65960531574E+01 -0.56212055312E+03  0.58230139596E+03  0.12500351496E+03 0.  0.
          5    1    3    3  501    0 -0.69743168512E+02 -0.37063127947E+02 -0.72862655479E+03  0.73290963382E+03  0.47000000000E+01 0.  1.
         -5    1    3    3    0  501 -0.16431148029E+02  0.43659181105E+02 -0.11321994152E+03  0.12254367335E+03  0.47000000000E+01 0.  1.
          5    1    4    4  502    0 -0.14293286926E+02  0.14426032166E+02 -0.30056665121E+03  0.30128858305E+03  0.47000000000E+01 0.  1.
         -5    1    4    4    0  502  0.10046760347E+03 -0.21022085324E+02 -0.26155390191E+03  0.28101281291E+03  0.47000000000E+01 0.  1.
<mgrwt>
<rscale>  0 0.30986305E+03</rscale>
<asrwt>0</asrwt>
<pdfrwt beam="1">  1       21 0.25990497E-02 0.30986305E+03</pdfrwt>
<pdfrwt beam="2">  1       21 0.21859403E+00 0.30986305E+03</pdfrwt>
<totfact> 0.77377113E+04</totfact>
</mgrwt>
</event>
<event>
 8    1  0.9705063E-006  0.3091911E+03  0.7546771E-02  0.1080734E+00
         21   -1    0    0  504  503  0.00000000000E+00  0.00000000000E+00  0.28036794605E+03  0.28036794605E+03  0.00000000000E+00 0. -1.
         21   -1    0    0  503  504 -0.00000000000E+00 -0.00000000000E+00 -0.85244350059E+02  0.85244350059E+02  0.00000000000E+00 0. -1.
         25    2    1    2    0    0  0.78563266177E+02  0.34420858914E+02  0.13338281293E+03  0.20192378803E+03  0.12500103626E+03 0.  0.
         25    2    1    2    0    0 -0.78563266177E+02 -0.34420858914E+02  0.61740783058E+02  0.16368850808E+03  0.12500008425E+03 0.  0.
          5    1    3    3  501    0  0.25819353175E+02  0.40726243799E+02 -0.95369855198E+01  0.49379246907E+02  0.47000000000E+01 0. -1.
         -5    1    3    3    0  501  0.52743913003E+02 -0.63053848842E+01  0.14291979845E+03  0.15254454112E+03  0.47000000000E+01 0. -1.
          5    1    4    4  502    0 -0.44674358618E+02  0.34305807722E+02 -0.11391790768E+02  0.57658907883E+02  0.47000000000E+01 0. -1.
         -5    1    4    4    0  502 -0.33888907559E+02 -0.68726666636E+02  0.73132573827E+02  0.10602960019E+03  0.47000000000E+01 0. -1.
<mgrwt>
<rscale>  0 0.30919110E+03</rscale>
<asrwt>0</asrwt>
<pdfrwt beam="1">  1       21 0.43133530E-01 0.30919110E+03</pdfrwt>
<pdfrwt beam="2">  1       21 0.13114515E-01 0.30919110E+03</pdfrwt>
<totfact> 0.25127729E+05</totfact>
</mgrwt>
</event>
<event>
 8    1  0.9705063E-006  0.3100945E+03  0.7546771E-02  0.1080301E+00
         21   -1    0    0  504  503  0.00000000000E+00  0.00000000000E+00  0.36418080215E+03  0.36418080215E+03  0.00000000000E+00 0. -1.
         21   -1    0    0  503  504 -0.00000000000E+00 -0.00000000000E+00 -0.66010224045E+02  0.66010224045E+02  0.00000000000E+00 0. -1.
         25    2    1    2    0    0  0.36541177316E+02  0.38411247318E+02  0.25292723196E+03  0.28706925293E+03  0.12500355894E+03 0.  0.
         25    2    1    2    0    0 -0.36541177316E+02 -0.38411247318E+02  0.45243346141E+02  0.14312177326E+03  0.12500480012E+03 0.  0.
          5    1    3    3  501    0  0.61263761527E+01  0.81584695377E+02  0.16856340045E+03  0.18742813283E+03  0.47000000000E+01 0. -1.
         -5    1    3    3    0  501  0.30414801163E+02 -0.43173448059E+02  0.84363831509E+02  0.99641120096E+02  0.47000000000E+01 0. -1.
          5    1    4    4  502    0 -0.57846757249E+02  0.48099486251E+01 -0.20266841052E+02  0.61662125947E+02  0.47000000000E+01 0. -1.
         -5    1    4    4    0  502  0.21305579933E+02 -0.43221195943E+02  0.65510187192E+02  0.81459647317E+02  0.47000000000E+01 0. -1.
<mgrwt>
<rscale>  0 0.31009454E+03</rscale>
<asrwt>0</asrwt>
<pdfrwt beam="1">  1       21 0.56027814E-01 0.31009454E+03</pdfrwt>
<pdfrwt beam="2">  1       21 0.10155419E-01 0.31009454E+03</pdfrwt>
<totfact> 0.22976364E+05</totfact>
</mgrwt>
</event>
<event>
 8    1  0.9705063E-006  0.3459834E+03  0.7546771E-02  0.1064276E+00
         21   -1    0    0  504  503  0.00000000000E+00  0.00000000000E+00  0.54658193708E+03  0.54658193708E+03  0.00000000000E+00 0.  1.
         21   -1    0    0  503  504 -0.00000000000E+00 -0.00000000000E+00 -0.54751407683E+02  0.54751407683E+02  0.00000000000E+00 0.  1.
         25    2    1    2    0    0 -0.47867116986E+02  0.10592791553E+03  0.19710177801E+03  0.26074866763E+03  0.12501508948E+03 0.  0.
         25    2    1    2    0    0  0.47867116986E+02 -0.10592791553E+03  0.29472875138E+03  0.34058467713E+03  0.12498360384E+03 0.  0.
          5    1    3    3  501    0 -0.41657869838E+02  0.12909026105E+03  0.19303651653E+03  0.23597639783E+03  0.47000000000E+01 0. -1.
         -5    1    3    3    0  501 -0.62092471479E+01 -0.23162345520E+02  0.40652614804E+01  0.24772269800E+02  0.47000000000E+01 0. -1.
          5    1    4    4  502    0  0.53187086680E+02 -0.12336626677E+03  0.29213500770E+03  0.32157900225E+03  0.47000000000E+01 0. -1.
         -5    1    4    4    0  502 -0.53199696942E+01  0.17438351234E+02  0.25937436812E+01  0.19005674879E+02  0.47000000000E+01 0. -1.
<mgrwt>
<rscale>  0 0.34598341E+03</rscale>
<asrwt>0</asrwt>
<pdfrwt beam="1">  1       21 0.84089525E-01 0.34598341E+03</pdfrwt>
<pdfrwt beam="2">  1       21 0.84232939E-02 0.34598341E+03</pdfrwt>
<totfact> 0.12856658E+05</totfact>
</mgrwt>
</event>
<event>
 8    1  0.9705063E-006  0.3219551E+03  0.7546771E-02  0.1074753E+00
         21   -1    0    0  504  503  0.00000000000E+00  0.00000000000E+00  0.14726100077E+03  0.14726100077E+03  0.00000000000E+00 0.  1.
         21   -1    0    0  503  504 -0.00000000000E+00 -0.00000000000E+00 -0.17597168795E+03  0.17597168795E+03  0.00000000000E+00 0.  1.
         25    2    1    2    0    0 -0.10067719807E+03  0.33638074494E+01 -0.24416229996E+01  0.16055559261E+03  0.12499969353E+03 0.  0.
         25    2    1    2    0    0  0.10067719807E+03 -0.33638074494E+01 -0.26269064184E+02  0.16267709611E+03  0.12500624166E+03 0.  0.
          5    1    3    3  501    0 -0.25990470200E+02  0.60741419696E+02 -0.14278562391E+01  0.66250685893E+02  0.47000000000E+01 0. -1.
         -5    1    3    3    0  501 -0.74686727873E+02 -0.57377612247E+02 -0.10137667604E+01  0.94304906715E+02  0.47000000000E+01 0. -1.
          5    1    4    4  502    0  0.11357221516E+03 -0.11033499035E+02  0.18077817505E+02  0.11562561845E+03  0.47000000000E+01 0.  1.
         -5    1    4    4    0  502 -0.12895017084E+02  0.76696915854E+01 -0.44346881688E+02  0.47051477661E+02  0.47000000000E+01 0.  1.
<mgrwt>
<rscale>  0 0.32195507E+03</rscale>
<asrwt>0</asrwt>
<pdfrwt beam="1">  1       21 0.22655539E-01 0.32195507E+03</pdfrwt>
<pdfrwt beam="2">  1       21 0.27072567E-01 0.32195507E+03</pdfrwt>
<totfact> 0.23001620E+05</totfact>
</mgrwt>
</event>
<event>
 8    1  0.9705063E-006  0.2683404E+03  0.7546771E-02  0.1102233E+00
         21   -1    0    0  504  503  0.00000000000E+00  0.00000000000E+00  0.28900416700E+03  0.28900416700E+03  0.00000000000E+00 0.  1.
         21   -1    0    0  503  504 -0.00000000000E+00 -0.00000000000E+00 -0.62288509243E+02  0.62288509243E+02  0.00000000000E+00 0.  1.
         25    2    1    2    0    0 -0.57224413031E+01  0.48396045416E+02  0.11468056900E+03  0.17649685244E+03  0.12499832987E+03 0.  0.
         25    2    1    2    0    0  0.57224413031E+01 -0.48396045416E+02  0.11203508876E+03  0.17479582380E+03  0.12500718123E+03 0.  0.
          5    1    3    3  501    0  0.18162499798E+01  0.80503686197E+02  0.30972624015E+02  0.86403331496E+02  0.47000000000E+01 0.  1.
         -5    1    3    3    0  501 -0.75386912830E+01 -0.32107640781E+02  0.83707944986E+02  0.90093520947E+02  0.47000000000E+01 0.  1.
          5    1    4    4  502    0 -0.28343281876E+02  0.27455523074E+02  0.63565306324E+01  0.40244786699E+02  0.47000000000E+01 0. -1.
         -5    1    4    4    0  502  0.34065723179E+02 -0.75851568490E+02  0.10567855813E+03  0.13455103710E+03  0.47000000000E+01 0. -1.
<mgrwt>
<rscale>  0 0.26834037E+03</rscale>
<asrwt>0</asrwt>
<pdfrwt beam="1">  1       21 0.44462179E-01 0.26834037E+03</pdfrwt>
<pdfrwt beam="2">  1       21 0.95828477E-02 0.26834037E+03</pdfrwt>
<totfact> 0.41808204E+05</totfact>
</mgrwt>
</event>
<event>
 8    1  0.9705063E-006  0.3771014E+03  0.7546771E-02  0.1052010E+00
         21   -1    0    0  504  503  0.00000000000E+00  0.00000000000E+00  0.72873931390E+02  0.72873931390E+02  0.00000000000E+00 0. -1.
         21   -1    0    0  503  504 -0.00000000000E+00 -0.00000000000E+00 -0.48784749095E+03  0.48784749095E+03  0.00000000000E+00 0. -1.
         25    2    1    2    0    0 -0.43503504835E+02 -0.31294769906E+02 -0.40167054846E+03  0.42407102863E+03  0.12500036108E+03 0.  0.
         25    2    1    2    0    0  0.43503504835E+02  0.31294769906E+02 -0.13303011108E+02  0.13665039371E+03  0.12499776974E+03 0.  0.
          5    1    3    3  501    0 -0.23049013702E+02  0.31524431478E+02 -0.38958891496E+02  0.55361828360E+02  0.47000000000E+01 0. -1.
         -5    1    3    3    0  501 -0.20454491133E+02 -0.62819201384E+02 -0.36271165696E+03  0.36870920027E+03  0.47000000000E+01 0. -1.
          5    1    4    4  502    0  0.79755655462E+02 -0.97107559222E+01 -0.16770087788E+01  0.80499476502E+02  0.47000000000E+01 0.  1.
         -5    1    4    4    0  502 -0.36252150627E+02  0.41005525828E+02 -0.11626002330E+02  0.56150917211E+02  0.47000000000E+01 0.  1.
<mgrwt>
<rscale>  0 0.37710139E+03</rscale>
<asrwt>0</asrwt>
<pdfrwt beam="1">  1       21 0.11211374E-01 0.37710139E+03</pdfrwt>
<pdfrwt beam="2">  1       21 0.75053460E-01 0.37710139E+03</pdfrwt>
<totfact> 0.99387202E+04</totfact>
</mgrwt>
</event>
<event>
 8    1  0.9705063E-006  0.5081441E+03  0.7546771E-02  0.1011675E+00
         21   -1    0    0  504  503  0.00000000000E+00  0.00000000000E+00  0.22876014413E+03  0.22876014413E+03  0.00000000000E+00 0. -1.
         21   -1    0    0  503  504 -0.00000000000E+00 -0.00000000000E+00 -0.28218462750E+03  0.28218462750E+03  0.00000000000E+00 0. -1.
         25    2    1    2    0    0 -0.34365529103E+02 -0.19749278113E+03 -0.12073119055E+03  0.26530366089E+03  0.12500249566E+03 0.  0.
         25    2    1    2    0    0  0.34365529103E+02  0.19749278113E+03  0.67306707181E+02  0.24564111073E+03  0.12499989705E+03 0.  0.
          5    1    3    3  501    0 -0.16429069780E+02 -0.10635026892E+03 -0.13337485547E+03  0.17143872405E+03  0.47000000000E+01 0. -1.
         -5    1    3    3    0  501 -0.17936459323E+02 -0.91142512211E+02  0.12643664918E+02  0.93864936839E+02  0.47000000000E+01 0. -1.
          5    1    4    4  502    0  0.33689027585E+02  0.16930003523E+02  0.51953131552E+02  0.64364535864E+02  0.47000000000E+01 0. -1.
         -5    1    4    4    0  502  0.67650151775E+00  0.18056277761E+03  0.15353575628E+02  0.18127657487E+03  0.47000000000E+01 0. -1.
<mgrwt>
<rscale>  0 0.50814406E+03</rscale>
<asrwt>0</asrwt>
<pdfrwt beam="1">  1       21 0.35193868E-01 0.50814406E+03</pdfrwt>
<pdfrwt beam="2">  1       21 0.43413020E-01 0.50814406E+03</pdfrwt>
<totfact> 0.35884470E+04</totfact>
</mgrwt>
</event>
<event>
 8    1  0.9705063E-006  0.2632382E+03  0.7546771E-02  0.1105213E+00
         21   -1    0    0  504  503  0.00000000000E+00  0.00000000000E+00  0.92248597510E+02  0.92248597510E+02  0.00000000000E+00 0.  1.
         21   -1    0    0  503  504 -0.00000000000E+00 -0.00000000000E+00 -0.18779247949E+03  0.18779247949E+03  0.00000000000E+00 0.  1.
         25    2    1    2    0    0 -0.95079447939E+01  0.37294010713E+02 -0.32112352054E+02  0.13468001820E+03  0.12500503949E+03 0.  0.
         25    2    1    2    0    0  0.95079447939E+01 -0.37294010713E+02 -0.63431529928E+02  0.14536105880E+03  0.12500013671E+03 0.  0.
          5    1    3    3  501    0 -0.11403049982E+02 -0.13435532554E+02  0.41388447839E+02  0.45228715419E+02  0.47000000000E+01 0. -1.
         -5    1    3    3    0  501  0.18951051884E+01  0.50729543266E+02 -0.73500799894E+02  0.89451302778E+02  0.47000000000E+01 0. -1.
          5    1    4    4  502    0 -0.37775446429E+02  0.29549696187E+02 -0.30210311873E+02  0.56876373312E+02  0.47000000000E+01 0.  1.
         -5    1    4    4    0  502  0.47283391223E+02 -0.66843706900E+02 -0.33221218055E+02  0.88484685492E+02  0.47000000000E+01 0.  1.
<mgrwt>
<rscale>  0 0.26323824E+03</rscale>
<asrwt>0</asrwt>
<pdfrwt beam="1">  1       21 0.14192092E-01 0.26323824E+03</pdfrwt>
<pdfrwt beam="2">  1       21 0.28891151E-01 0.26323824E+03</pdfrwt>
<totfact> 0.49061978E+05</totfact>
</mgrwt>
</event>
<event>
 8    1  0.9705063E-006  0.2825233E+03  0.7546771E-02  0.1094319E+00
         21   -1    0    0  504  503  0.00000000000E+00  0.00000000000E+00  0.15665474436E+03  0.15665474436E+03  0.00000000000E+00 0.  1.
         21   -1    0    0  503  504 -0.00000000000E+00 -0.00000000000E+00 -0.12738106356E+03  0.12738106356E+03  0.00000000000E+00 0.  1.
         25    2    1    2    0    0 -0.30990376858E+01 -0.61375428826E+02  0.38285553615E+02  0.14445690014E+03  0.12500186032E+03 0.  0.
         25    2    1    2    0    0  0.30990376858E+01  0.61375428826E+02 -0.90118728218E+01  0.13957890778E+03  0.12499804137E+03 0.  0.
          5    1    3    3  501    0  0.11880899256E+02  0.19953897767E+02 -0.29207785173E+02  0.37609819435E+02  0.47000000000E+01 0.  1.
         -5    1    3    3    0  501 -0.14979936942E+02 -0.81329326592E+02  0.67493338788E+02  0.10684708071E+03  0.47000000000E+01 0.  1.
          5    1    4    4  502    0  0.97434970647E+01  0.62009577043E+02  0.49762458692E+02  0.80240361883E+02  0.47000000000E+01 0.  1.
         -5    1    4    4    0  502 -0.66444593789E+01 -0.63414821711E+00 -0.58774331513E+02  0.59338545898E+02  0.47000000000E+01 0.  1.
<mgrwt>
<rscale>  0 0.28252326E+03</rscale>
<asrwt>0</asrwt>
<pdfrwt beam="1">  1       21 0.24100730E-01 0.28252326E+03</pdfrwt>
<pdfrwt beam="2">  1       21 0.19597087E-01 0.28252326E+03</pdfrwt>
<totfact> 0.38208105E+05</totfact>
</mgrwt>
</event>
<event>
 8    1  0.9705063E-006  0.3192763E+03  0.7546771E-02  0.1075983E+00
         21   -1    0    0  504  503  0.00000000000E+00  0.00000000000E+00  0.10098627282E+04  0.10098627282E+04  0.00000000000E+00 0.  1.
         21   -1    0    0  503  504 -0.00000000000E+00 -0.00000000000E+00 -0.25235448469E+02  0.25235448469E+02  0.00000000000E+00 0.  1.
         25    2    1    2    0    0  0.87823818409E+02 -0.18534551369E+02  0.62996569911E+03  0.64848911606E+03  0.12499919563E+03 0.  0.
         25    2    1    2    0    0 -0.87823818409E+02  0.18534551369E+02  0.35466158063E+03  0.38660906062E+03  0.12500070523E+03 0.  0.
          5    1    3    3  501    0  0.82583607160E+02 -0.37498665014E+02  0.21978993819E+03  0.23781486282E+03  0.47000000000E+01 0. -1.
         -5    1    3    3    0  501  0.52402112487E+01  0.18964113644E+02  0.41017576093E+03  0.41067425324E+03  0.47000000000E+01 0. -1.
          5    1    4    4  502    0 -0.86336453276E+02  0.26612889002E+02  0.11295594069E+03  0.14471822125E+03  0.47000000000E+01 0. -1.
         -5    1    4    4    0  502 -0.14873651330E+01 -0.80783376327E+01  0.24170563994E+03  0.24189083937E+03  0.47000000000E+01 0. -1.
<mgrwt>
<rscale>  0 0.31927630E+03</rscale>
<asrwt>0</asrwt>
<pdfrwt beam="1">  1       21 0.15536347E+00 0.31927630E+03</pdfrwt>
<pdfrwt beam="2">  1       21 0.38823775E-02 0.31927630E+03</pdfrwt>
<totfact> 0.10671247E+05</totfact>
</mgrwt>
</event>
<event>
 8    1  0.9705063E-006  0.2917021E+03  0.7546771E-02  0.1089464E+00
         21   -1    0    0  504  503  0.00000000000E+00  0.00000000000E+00  0.53727901927E+03  0.53727901927E+03  0.00000000000E+00 0.  1.
         21   -1    0    0  503  504 -0.00000000000E+00 -0.00000000000E+00 -0.39593063661E+02  0.39593063661E+02  0.00000000000E+00 0.  1.
         25    2    1    2    0    0 -0.62235981870E+02  0.41889348843E+02  0.25749886301E+03  0.29590718786E+03  0.12500945719E+03 0.  0.
         25    2    1    2    0    0  0.62235981870E+02 -0.41889348843E+02  0.24018709260E+03  0.28096489507E+03  0.12499359115E+03 0.  0.
          5    1    3    3  501    0 -0.38540321284E+02 -0.18971800123E+02  0.21153837200E+03  0.21590705962E+03  0.47000000000E+01 0.  1.
         -5    1    3    3    0  501 -0.23695660586E+02  0.60861148966E+02  0.45960491013E+02  0.80000128239E+02  0.47000000000E+01 0.  1.
          5    1    4    4  502    0  0.84030145805E+02 -0.59632506364E+02  0.22746710542E+03  0.24976083613E+03  0.47000000000E+01 0. -1.
         -5    1    4    4    0  502 -0.21794163934E+02  0.17743157521E+02  0.12719987176E+02  0.31204058937E+02  0.47000000000E+01 0. -1.
<mgrwt>
<rscale>  0 0.29170206E+03</rscale>
<asrwt>0</asrwt>
<pdfrwt beam="1">  1       21 0.82658305E-01 0.29170206E+03</pdfrwt>
<pdfrwt beam="2">  1       21 0.60912410E-02 0.29170206E+03</pdfrwt>
<totfact> 0.23879162E+05</totfact>
</mgrwt>
</event>
<event>
 8    1  0.9705063E-006  0.2702583E+03  0.7546771E-02  0.1101132E+00
         21   -1    0    0  504  503  0.00000000000E+00  0.00000000000E+00  0.46881115407E+02  0.46881115407E+02  0.00000000000E+00 0.  1.
         21   -1    0    0  503  504 -0.00000000000E+00 -0.00000000000E+00 -0.38949351897E+03  0.38949351897E+03  0.00000000000E+00 0.  1.
         25    2    1    2    0    0  0.30640678402E+02  0.29422008673E+02 -0.12481255028E+03  0.18168806624E+03  0.12501149923E+03 0.  0.
         25    2    1    2    0    0 -0.30640678402E+02 -0.29422008673E+02 -0.21779985328E+03  0.25468656814E+03  0.12499586446E+03 0.  0.
          5    1    3    3  501    0  0.42884042277E+02  0.21864807688E+02 -0.14704357903E+03  0.15479345926E+03  0.47000000000E+01 0. -1.
         -5    1    3    3    0  501 -0.12243363875E+02  0.75572009850E+01  0.22231028743E+02  0.26894606982E+02  0.47000000000E+01 0. -1.
          5    1    4    4  502    0 -0.79025695739E+02 -0.23229230487E+02 -0.12562667736E+03  0.15029574113E+03  0.47000000000E+01 0. -1.
         -5    1    4    4    0  502  0.48385017337E+02 -0.61927781854E+01 -0.92173175923E+02  0.10439082701E+03  0.47000000000E+01 0. -1.
<mgrwt>
<rscale>  0 0.27025833E+03</rscale>
<asrwt>0</asrwt>
<pdfrwt beam="1">  1       21 0.72124793E-02 0.27025833E+03</pdfrwt>
<pdfrwt beam="2">  1       21 0.59922080E-01 0.27025833E+03</pdfrwt>
<totfact> 0.36658924E+05</totfact>
</mgrwt>
</event>
<event>
 8    1  0.9705063E-006  0.3301076E+03  0.7546771E-02  0.1071089E+00
         21   -1    0    0  504  503  0.00000000000E+00  0.00000000000E+00  0.12729798608E+03  0.12729798608E+03  0.00000000000E+00 0. -1.
         21   -1    0    0  503  504 -0.00000000000E+00 -0.00000000000E+00 -0.21400781949E+03  0.21400781949E+03  0.00000000000E+00 0. -1.
         25    2    1    2    0    0  0.32246203993E+02  0.39132522133E+00  0.62984571273E+02  0.14363725470E+03  0.12499853564E+03 0.  0.
         25    2    1    2    0    0 -0.32246203993E+02 -0.39132522133E+00 -0.14969440468E+03  0.19766855087E+03  0.12499788160E+03 0.  0.
          5    1    3    3  501    0  0.29423629314E+02 -0.10633397913E+02 -0.33670059467E+02  0.46201536962E+02  0.47000000000E+01 0. -1.
         -5    1    3    3    0  501  0.28225746791E+01  0.11024723134E+02  0.96654630740E+02  0.97435717740E+02  0.47000000000E+01 0. -1.
          5    1    4    4  502    0 -0.37437503761E+02  0.54523007489E+02 -0.11374863773E+03  0.13166308373E+03  0.47000000000E+01 0.  1.
         -5    1    4    4    0  502  0.51912997681E+01 -0.54914332710E+02 -0.35945766950E+02  0.66005467137E+02  0.47000000000E+01 0.  1.
<mgrwt>
<rscale>  0 0.33010765E+03</rscale>
<asrwt>0</asrwt>
<pdfrwt beam="1">  1       21 0.19584306E-01 0.33010765E+03</pdfrwt>
<pdfrwt beam="2">  1       21 0.32924279E-01 0.33010765E+03</pdfrwt>
<totfact> 0.20589482E+05</totfact>
</mgrwt>
</event>
<event>
 8    1  0.9705063E-006  0.3499435E+03  0.7546771E-02  0.1062638E+00
         21   -1    0    0  504  503  0.00000000000E+00  0.00000000000E+00  0.14332225011E+03  0.14332225011E+03  0.00000000000E+00 0.  1.
         21   -1    0    0  503  504 -0.00000000000E+00 -0.00000000000E+00 -0.21361029334E+03  0.21361029334E+03  0.00000000000E+00 0.  1.
         25    2    1    2    0    0 -0.79255027962E+01 -0.26566620739E+02  0.86495155739E+02  0.15451008550E+03  0.12499342232E+03 0.  0.
         25    2    1    2    0    0  0.79255027962E+01  0.26566620739E+02 -0.15678319897E+03  0.20242245794E+03  0.12500112428E+03 0.  0.
          5    1    3    3  501    0 -0.64048920158E+02 -0.46515537528E+01  0.27372282472E+02  0.69965941525E+02  0.47000000000E+01 0. -1.
         -5    1    3    3    0  501  0.56123417362E+02 -0.21915066986E+02  0.59122873267E+02  0.84544143976E+02  0.47000000000E+01 0. -1.
          5    1    4    4  502    0 -0.31505132078E+02  0.44134769020E+02 -0.14857499031E+03  0.15823106184E+03  0.47000000000E+01 0.  1.
         -5    1    4    4    0  502  0.39430634874E+02 -0.17568148282E+02 -0.82082086534E+01  0.44191396107E+02  0.47000000000E+01 0.  1.
<mgrwt>
<rscale>  0 0.34994347E+03</rscale>
<asrwt>0</asrwt>
<pdfrwt beam="1">  1       21 0.22049577E-01 0.34994347E+03</pdfrwt>
<pdfrwt beam="2">  1       21 0.32863122E-01 0.34994347E+03</pdfrwt>
<totfact> 0.16432811E+05</totfact>
</mgrwt>
</event>
<event>
 8    1  0.9705063E-006  0.2515979E+03  0.7546771E-02  0.1112299E+00
         21   -1    0    0  504  503  0.00000000000E+00  0.00000000000E+00  0.14991686771E+03  0.14991686771E+03  0.00000000000E+00 0.  1.
         21   -1    0    0  503  504 -0.00000000000E+00 -0.00000000000E+00 -0.10556098855E+03  0.10556098855E+03  0.00000000000E+00 0.  1.
         25    2    1    2    0    0 -0.11749948832E+01  0.13782238014E+02  0.25450534159E+02  0.12829587855E+03  0.12498308712E+03 0.  0.
         25    2    1    2    0    0  0.11749948832E+01 -0.13782238014E+02  0.18905344997E+02  0.12718197771E+03  0.12500605060E+03 0.  0.
          5    1    3    3  501    0  0.37347150608E+02 -0.95043955604E+01 -0.35346078119E+02  0.52503127830E+02  0.47000000000E+01 0.  1.
         -5    1    3    3    0  501 -0.38522145492E+02  0.23286633575E+02  0.60796612279E+02  0.75792750716E+02  0.47000000000E+01 0.  1.
          5    1    4    4  502    0 -0.19279993661E+02 -0.18476541467E+02 -0.48972970239E+02  0.55978054219E+02  0.47000000000E+01 0. -1.
         -5    1    4    4    0  502  0.20454988544E+02  0.46943034531E+01  0.67878315236E+02  0.71203923491E+02  0.47000000000E+01 0. -1.
<mgrwt>
<rscale>  0 0.25159788E+03</rscale>
<asrwt>0</asrwt>
<pdfrwt beam="1">  1       21 0.23064134E-01 0.25159788E+03</pdfrwt>
<pdfrwt beam="2">  1       21 0.16240152E-01 0.25159788E+03</pdfrwt>
<totfact> 0.59281228E+05</totfact>
</mgrwt>
</event>
<event>
 8    1  0.9705063E-006  0.3569154E+03  0.7546771E-02  0.1059812E+00
         21   -1    0    0  504  503  0.00000000000E+00  0.00000000000E+00  0.56110637002E+03  0.56110637002E+03  0.00000000000E+00 0.  1.
         21   -1    0    0  503  504 -0.00000000000E+00 -0.00000000000E+00 -0.56757792037E+02  0.56757792037E+02  0.00000000000E+00 0.  1.
         25    2    1    2    0    0  0.52253907409E+01 -0.62575092673E+02  0.44401189797E+03  0.46552061034E+03  0.12497970305E+03 0.  0.
         25    2    1    2    0    0 -0.52253907409E+01  0.62575092673E+02  0.60336680013E+02  0.15234355172E+03  0.12500038346E+03 0.  0.
          5    1    3    3  501    0  0.14616693752E+02  0.35689554340E+02  0.91231601069E+02  0.99159906509E+02  0.47000000000E+01 0. -1.
         -5    1    3    3    0  501 -0.93913030107E+01 -0.98264647013E+02  0.35278029690E+03  0.36636070383E+03  0.47000000000E+01 0. -1.
          5    1    4    4  502    0  0.56772201615E+02  0.28551264763E+02  0.49403717790E+02  0.80629243623E+02  0.47000000000E+01 0. -1.
         -5    1    4    4    0  502 -0.61997592356E+02  0.34023827909E+02  0.10932962223E+02  0.71714308102E+02  0.47000000000E+01 0. -1.
<mgrwt>
<rscale>  0 0.35691544E+03</rscale>
<asrwt>0</asrwt>
<pdfrwt beam="1">  1       21 0.86324053E-01 0.35691544E+03</pdfrwt>
<pdfrwt beam="2">  1       21 0.87319684E-02 0.35691544E+03</pdfrwt>
<totfact> 0.11319643E+05</totfact>
</mgrwt>
</event>
<event>
 8    1  0.9705063E-006  0.2583919E+03  0.7546771E-02  0.1108113E+00
         21   -1    0    0  504  503  0.00000000000E+00  0.00000000000E+00  0.19640354768E+02  0.19640354768E+02  0.00000000000E+00 0. -1.
         21   -1    0    0  503  504 -0.00000000000E+00 -0.00000000000E+00 -0.84986228691E+03  0.84986228691E+03  0.00000000000E+00 0. -1.
         25    2    1    2    0    0 -0.32385859376E+02 -0.29338721624E+01 -0.40512719117E+03  0.42521811192E+03  0.12499980074E+03 0.  0.
         25    2    1    2    0    0  0.32385859376E+02  0.29338721624E+01 -0.42509474097E+03  0.44428452976E+03  0.12500301232E+03 0.  0.
          5    1    3    3  501    0 -0.67497141899E+02  0.22295301447E+02 -0.33659513331E+03  0.34405133105E+03  0.47000000000E+01 0.  1.
         -5    1    3    3    0  501  0.35111282524E+02 -0.25229173610E+02 -0.68532057864E+02  0.81166780868E+02  0.47000000000E+01 0.  1.
          5    1    4    4  502    0  0.79609869046E+02  0.84411197341E+01 -0.29456760954E+03  0.30528863448E+03  0.47000000000E+01 0. -1.
         -5    1    4    4    0  502 -0.47224009670E+02 -0.55072475717E+01 -0.13052713143E+03  0.13899589528E+03  0.47000000000E+01 0. -1.
<mgrwt>
<rscale>  0 0.25839193E+03</rscale>
<asrwt>0</asrwt>
<pdfrwt beam="1">  1       21 0.30215931E-02 0.25839193E+03</pdfrwt>
<pdfrwt beam="2">  1       21 0.13074804E+00 0.25839193E+03</pdfrwt>
<totfact> 0.26072404E+05</totfact>
</mgrwt>
</event>
<event>
 8    1  0.9705063E-006  0.3059757E+03  0.7546771E-02  0.1082291E+00
         21   -1    0    0  504  503  0.00000000000E+00  0.00000000000E+00  0.56129225283E+02  0.56129225283E+02  0.00000000000E+00 0.  1.
         21   -1    0    0  503  504 -0.00000000000E+00 -0.00000000000E+00 -0.41698910196E+03  0.41698910196E+03  0.00000000000E+00 0.  1.
         25    2    1    2    0    0  0.50979326905E+02 -0.71903282416E+02 -0.18570985786E+03  0.24058303830E+03  0.12499229263E+03 0.  0.
         25    2    1    2    0    0 -0.50979326905E+02  0.71903282416E+02 -0.17515001882E+03  0.23253528895E+03  0.12500463078E+03 0.  0.
          5    1    3    3  501    0 -0.27061067978E+02  0.17188792876E+02 -0.57319899601E+02  0.65843882715E+02  0.47000000000E+01 0. -1.
         -5    1    3    3    0  501  0.78040394883E+02 -0.89092075292E+02 -0.12838995826E+03  0.17473915558E+03  0.47000000000E+01 0. -1.
          5    1    4    4  502    0 -0.91729376791E+02  0.60451466575E+02 -0.11842572212E+03  0.16160259910E+03  0.47000000000E+01 0.  1.
         -5    1    4    4    0  502  0.40750049886E+02  0.11451815841E+02 -0.56724296707E+02  0.70932689845E+02  0.47000000000E+01 0.  1.
<mgrwt>
<rscale>  0 0.30597565E+03</rscale>
<asrwt>0</asrwt>
<pdfrwt beam="1">  1       21 0.86352655E-02 0.30597565E+03</pdfrwt>
<pdfrwt beam="2">  1       21 0.64152169E-01 0.30597565E+03</pdfrwt>
<totfact> 0.22860250E+05</totfact>
</mgrwt>
</event>
<event>
 8    1  0.9705063E-006  0.3374543E+03  0.7546771E-02  0.1067885E+00
         21   -1    0    0  504  503  0.00000000000E+00  0.00000000000E+00  0.29211141320E+03  0.29211141320E+03  0.00000000000E+00 0. -1.
         21   -1    0    0  503  504 -0.00000000000E+00 -0.00000000000E+00 -0.97458868598E+02  0.97458868598E+02  0.00000000000E+00 0. -1.
         25    2    1    2    0    0  0.52902164282E+02  0.77109811468E+02  0.23328188359E+02  0.15783914828E+03  0.12499772137E+03 0.  0.
         25    2    1    2    0    0 -0.52902164282E+02 -0.77109811468E+02  0.17132435624E+03  0.23173113351E+03  0.12491085296E+03 0.  0.
          5    1    3    3  501    0  0.90611290365E+02  0.74582787759E+02  0.11778838611E+02  0.11804164185E+03  0.47000000000E+01 0. -1.
         -5    1    3    3    0  501 -0.37709126083E+02  0.25270237088E+01  0.11549349747E+02  0.39797506433E+02  0.47000000000E+01 0. -1.
          5    1    4    4  502    0 -0.91800065283E+01  0.32598274755E+02  0.61627908082E+02  0.70477011084E+02  0.47000000000E+01 0. -1.
         -5    1    4    4    0  502 -0.43722157754E+02 -0.10970808622E+03  0.10969644816E+03  0.16125412243E+03  0.47000000000E+01 0. -1.
<mgrwt>
<rscale>  0 0.33745428E+03</rscale>
<asrwt>0</asrwt>
<pdfrwt beam="1">  1       21 0.44940217E-01 0.33745428E+03</pdfrwt>
<pdfrwt beam="2">  1       21 0.14993672E-01 0.33745428E+03</pdfrwt>
<totfact> 0.17952517E+05</totfact>
</mgrwt>
</event>
<event>
 8    1  0.9705063E-006  0.2887386E+03  0.7546771E-02  0.1091010E+00
         21   -1    0    0  504  503  0.00000000000E+00  0.00000000000E+00  0.56837381179E+02  0.56837381179E+02  0.00000000000E+00 0.  1.
         21   -1    0    0  503  504 -0.00000000000E+00 -0.00000000000E+00 -0.36670407640E+03  0.36670407640E+03  0.00000000000E+00 0.  1.
         25    2    1    2    0    0  0.13592933377E+02  0.35784991564E+02 -0.65068417020E+02  0.14602422286E+03  0.12499536516E+03 0.  0.
         25    2    1    2    0    0 -0.13592933377E+02 -0.35784991564E+02 -0.24479827820E+03  0.27751723471E+03  0.12499714035E+03 0.  0.
          5    1    3    3  501    0 -0.48950168147E+02  0.12259298520E+02 -0.60442291172E+02  0.78878196759E+02  0.47000000000E+01 0.  1.
         -5    1    3    3    0  501  0.62543101524E+02  0.23525693044E+02 -0.46261258477E+01  0.67146026105E+02  0.47000000000E+01 0.  1.
          5    1    4    4  502    0 -0.38349031459E+02 -0.63988650515E+02 -0.84494142331E+02  0.11281199270E+03  0.47000000000E+01 0. -1.
         -5    1    4    4    0  502  0.24756098082E+02  0.28203658951E+02 -0.16030413587E+03  0.16470524201E+03  0.47000000000E+01 0. -1.
<mgrwt>
<rscale>  0 0.28873863E+03</rscale>
<asrwt>0</asrwt>
<pdfrwt beam="1">  1       21 0.87442127E-02 0.28873863E+03</pdfrwt>
<pdfrwt beam="2">  1       21 0.56416010E-01 0.28873863E+03</pdfrwt>
<totfact> 0.29665192E+05</totfact>
</mgrwt>
</event>
<event>
 8    1  0.9705063E-006  0.3719015E+03  0.7546771E-02  0.1053968E+00
         21   -1    0    0  504  503  0.00000000000E+00  0.00000000000E+00  0.44300413343E+03  0.44300413343E+03  0.00000000000E+00 0. -1.
         21   -1    0    0  503  504 -0.00000000000E+00 -0.00000000000E+00 -0.78052728302E+02  0.78052728302E+02  0.00000000000E+00 0. -1.
         25    2    1    2    0    0  0.23573058702E+02 -0.79569554009E+02  0.33636066557E+03  0.36830924513E+03  0.12500479863E+03 0.  0.
         25    2    1    2    0    0 -0.23573058702E+02  0.79569554009E+02  0.28590739559E+02  0.15274761661E+03  0.12500960351E+03 0.  0.
          5    1    3    3  501    0  0.44198255086E+02 -0.55623797208E+02  0.69348335275E+02  0.99392022687E+02  0.47000000000E+01 0. -1.
         -5    1    3    3    0  501 -0.20625196383E+02 -0.23945756801E+02  0.26701233030E+03  0.26891722244E+03  0.47000000000E+01 0. -1.
          5    1    4    4  502    0 -0.34118311043E+02  0.10795970683E+03  0.39811906265E+02  0.12011009669E+03  0.47000000000E+01 0. -1.
         -5    1    4    4    0  502  0.10545252340E+02 -0.28390152820E+02 -0.11221166706E+02  0.32637519916E+02  0.47000000000E+01 0. -1.
<mgrwt>
<rscale>  0 0.37190150E+03</rscale>
<asrwt>0</asrwt>
<pdfrwt beam="1">  1       21 0.68154481E-01 0.37190150E+03</pdfrwt>
<pdfrwt beam="2">  1       21 0.12008112E-01 0.37190150E+03</pdfrwt>
<totfact> 0.10917203E+05</totfact>
</mgrwt>
</event>
<event>
 8    1  0.9705063E-006  0.2750268E+03  0.7546771E-02  0.1098437E+00
         21   -1    0    0  504  503  0.00000000000E+00  0.00000000000E+00  0.67807997146E+02  0.67807997146E+02  0.00000000000E+00 0.  1.
         21   -1    0    0  503  504 -0.00000000000E+00 -0.00000000000E+00 -0.27887469332E+03  0.27887469332E+03  0.00000000000E+00 0.  1.
         25    2    1    2    0    0  0.33524138547E+02 -0.36446869518E+02 -0.69173345599E+02  0.15120599183E+03  0.12500423217E+03 0.  0.
         25    2    1    2    0    0 -0.33524138547E+02  0.36446869518E+02 -0.14189335057E+03  0.19547669864E+03  0.12500069844E+03 0.  0.
          5    1    3    3  501    0  0.24789919235E+02 -0.68084587167E+02  0.20552608962E+01  0.72638593067E+02  0.47000000000E+01 0. -1.
         -5    1    3    3    0  501  0.87342193121E+01  0.31637717649E+02 -0.71228606496E+02  0.78567398763E+02  0.47000000000E+01 0. -1.
          5    1    4    4  502    0  0.28014761594E+02  0.50925811430E+02 -0.27012062757E+02  0.64265127958E+02  0.47000000000E+01 0. -1.
         -5    1    4    4    0  502 -0.61538900141E+02 -0.14478941912E+02 -0.11488128782E+03  0.13121157068E+03  0.47000000000E+01 0. -1.
<mgrwt>
<rscale>  0 0.27502679E+03</rscale>
<asrwt>0</asrwt>
<pdfrwt beam="1">  1       21 0.10432000E-01 0.27502679E+03</pdfrwt>
<pdfrwt beam="2">  1       21 0.42903798E-01 0.27502679E+03</pdfrwt>
<totfact> 0.38638819E+05</totfact>
</mgrwt>
</event>
<event>
 8    1  0.9705063E-006  0.2739589E+03  0.7546771E-02  0.1099035E+00
         21   -1    0    0  504  503  0.00000000000E+00  0.00000000000E+00  0.13810109759E+04  0.13810109759E+04  0.00000000000E+00 0. -1.
         21   -1    0    0  503  504 -0.00000000000E+00 -0.00000000000E+00 -0.13586692819E+02  0.13586692819E+02  0.00000000000E+00 0. -1.
         25    2    1    2    0    0  0.43550791963E+01 -0.18593788311E+02  0.95170930610E+03  0.96007655142E+03  0.12502673948E+03 0.  0.
         25    2    1    2    0    0 -0.43550791963E+01  0.18593788311E+02  0.41571497697E+03  0.43452111729E+03  0.12499985446E+03 0.  0.
          5    1    3    3  501    0  0.19933768007E+02  0.23952180034E+02  0.82195333612E+03  0.82255725564E+03  0.47000000000E+01 0.  1.
         -5    1    3    3    0  501 -0.15578688811E+02 -0.42545968346E+02  0.12975596998E+03  0.13751929578E+03  0.47000000000E+01 0.  1.
          5    1    4    4  502    0  0.55045569948E+02  0.32400335183E+02  0.18221149038E+03  0.19313962234E+03  0.47000000000E+01 0. -1.
         -5    1    4    4    0  502 -0.59400649144E+02 -0.13806546871E+02  0.23350348659E+03  0.24138149495E+03  0.47000000000E+01 0. -1.
<mgrwt>
<rscale>  0 0.27395892E+03</rscale>
<asrwt>0</asrwt>
<pdfrwt beam="1">  1       21 0.21246312E+00 0.27395892E+03</pdfrwt>
<pdfrwt beam="2">  1       21 0.20902615E-02 0.27395892E+03</pdfrwt>
<totfact> 0.12309701E+05</totfact>
</mgrwt>
</event>
<event>
 8    1  0.9705063E-006  0.2882043E+03  0.7546771E-02  0.1091290E+00
         21   -1    0    0  504  503  0.00000000000E+00  0.00000000000E+00  0.40806132209E+03  0.40806132209E+03  0.00000000000E+00 0. -1.
         21   -1    0    0  503  504 -0.00000000000E+00 -0.00000000000E+00 -0.50888010258E+02  0.50888010258E+02  0.00000000000E+00 0. -1.
         25    2    1    2    0    0 -0.52835519751E+02 -0.31668483699E+02  0.12020080105E+03  0.18404059193E+03  0.12501288692E+03 0.  0.
         25    2    1    2    0    0  0.52835519751E+02  0.31668483699E+02  0.23697251078E+03  0.27490874042E+03  0.12499743871E+03 0.  0.
          5    1    3    3  501    0  0.28216517250E+02 -0.43369621007E+02  0.72367327592E+02  0.89085441991E+02  0.47000000000E+01 0.  1.
         -5    1    3    3    0  501 -0.81052037001E+02  0.11701137309E+02  0.47833473456E+02  0.94955149935E+02  0.47000000000E+01 0.  1.
          5    1    4    4  502    0  0.60724593349E+02  0.56318585704E+02  0.78302146431E+02  0.11407267626E+03  0.47000000000E+01 0.  1.
         -5    1    4    4    0  502 -0.78890735985E+01 -0.24650102005E+02  0.15867036435E+03  0.16083606416E+03  0.47000000000E+01 0.  1.
<mgrwt>
<rscale>  0 0.28820429E+03</rscale>
<asrwt>0</asrwt>
<pdfrwt beam="1">  1       21 0.62778663E-01 0.28820429E+03</pdfrwt>
<pdfrwt beam="2">  1       21 0.78289249E-02 0.28820429E+03</pdfrwt>
<totfact> 0.28594419E+05</totfact>
</mgrwt>
</event>
<event>
 8    1  0.9705063E-006  0.5356998E+03  0.7546771E-02  0.1004859E+00
         21   -1    0    0  504  503  0.00000000000E+00  0.00000000000E+00  0.59257697750E+02  0.59257697750E+02  0.00000000000E+00 0. -1.
         21   -1    0    0  503  504 -0.00000000000E+00 -0.00000000000E+00 -0.12107046268E+04  0.12107046268E+04  0.00000000000E+00 0. -1.
         25    2    1    2    0    0  0.18825727581E+03  0.28613172601E+02 -0.24164914142E+03  0.33208375171E+03  0.12500318021E+03 0.  0.
         25    2    1    2    0    0 -0.18825727581E+03 -0.28613172601E+02 -0.90979778764E+03  0.93787857285E+03  0.12499874986E+03 0.  0.
          5    1    3    3  501    0  0.14298873433E+03  0.74449060739E+02 -0.15223719911E+03  0.22178073763E+03  0.47000000000E+01 0.  1.
         -5    1    3    3    0  501  0.45268541476E+02 -0.45835888138E+02 -0.89411942308E+02  0.11030301408E+03  0.47000000000E+01 0.  1.
          5    1    4    4  502    0 -0.15774051149E+03 -0.32497940741E+02 -0.46747667327E+03  0.49446406863E+03  0.47000000000E+01 0.  1.
         -5    1    4    4    0  502 -0.30516764318E+02  0.38847681397E+01 -0.44232111438E+03  0.44341450422E+03  0.47000000000E+01 0.  1.
<mgrwt>
<rscale>  0 0.53569980E+03</rscale>
<asrwt>0</asrwt>
<pdfrwt beam="1">  1       21 0.91165686E-02 0.53569980E+03</pdfrwt>
<pdfrwt beam="2">  1       21 0.18626226E+00 0.53569980E+03</pdfrwt>
<totfact> 0.13518327E+04</totfact>
</mgrwt>
</event>
<event>
 8    1  0.9705063E-006  0.4738501E+03  0.7546771E-02  0.1020839E+00
         21   -1    0    0  504  503  0.00000000000E+00  0.00000000000E+00  0.19637552888E+03  0.19637552888E+03  0.00000000000E+00 0. -1.
         21   -1    0    0  503  504 -0.00000000000E+00 -0.00000000000E+00 -0.28584765193E+03  0.28584765193E+03  0.00000000000E+00 0. -1.
         25    2    1    2    0    0 -0.18066617701E+03  0.19138654936E+01  0.45517953063E+02  0.22436445383E+03  0.12499437466E+03 0.  0.
         25    2    1    2    0    0  0.18066617701E+03 -0.19138654936E+01 -0.13499007612E+03  0.25785872698E+03  0.12499948813E+03 0.  0.
          5    1    3    3  501    0  0.17349174656E+02 -0.10046636304E+02 -0.76690121387E+00  0.20605991841E+02  0.47000000000E+01 0.  1.
         -5    1    3    3    0  501 -0.19801535166E+03  0.11960501797E+02  0.46284854277E+02  0.20375846199E+03  0.47000000000E+01 0.  1.
          5    1    4    4  502    0  0.19187153730E+03 -0.22449448419E+02 -0.10631052752E+03  0.22055086221E+03  0.47000000000E+01 0.  1.
         -5    1    4    4    0  502 -0.11205360294E+02  0.20535582925E+02 -0.28679548600E+02  0.37307864765E+02  0.47000000000E+01 0.  1.
<mgrwt>
<rscale>  0 0.47385012E+03</rscale>
<asrwt>0</asrwt>
<pdfrwt beam="1">  1       21 0.30211620E-01 0.47385012E+03</pdfrwt>
<pdfrwt beam="2">  1       21 0.43976562E-01 0.47385012E+03</pdfrwt>
<totfact> 0.47811294E+04</totfact>
</mgrwt>
</event>
<event>
 8    1  0.9705063E-006  0.2707218E+03  0.7546771E-02  0.1100867E+00
         21   -1    0    0  504  503  0.00000000000E+00  0.00000000000E+00  0.12158075640E+02  0.12158075640E+02  0.00000000000E+00 0. -1.
         21   -1    0    0  503  504 -0.00000000000E+00 -0.00000000000E+00 -0.15070289166E+04  0.15070289166E+04  0.00000000000E+00 0. -1.
         25    2    1    2    0    0  0.37666357614E+01 -0.45343516702E+02 -0.60690054701E+03  0.62130805367E+03  0.12500080616E+03 0.  0.
         25    2    1    2    0    0 -0.37666357614E+01  0.45343516702E+02 -0.88797029399E+03  0.89787893861E+03  0.12500049337E+03 0.  0.
          5    1    3    3  501    0 -0.19424733920E+02  0.39425894242E+02 -0.23648843842E+03  0.24058385842E+03  0.47000000000E+01 0. -1.
         -5    1    3    3    0  501  0.23191369681E+02 -0.84769410944E+02 -0.37041210859E+03  0.38072419526E+03  0.47000000000E+01 0. -1.
          5    1    4    4  502    0  0.37078042454E+02  0.36334168679E+02 -0.78373613199E+03  0.78546761081E+03  0.47000000000E+01 0. -1.
         -5    1    4    4    0  502 -0.40844678215E+02  0.90093480226E+01 -0.10423416200E+03  0.11241132780E+03  0.47000000000E+01 0. -1.
<mgrwt>
<rscale>  0 0.27072179E+03</rscale>
<asrwt>0</asrwt>
<pdfrwt beam="1">  1       21 0.18704740E-02 0.27072179E+03</pdfrwt>
<pdfrwt beam="2">  1       21 0.23185050E+00 0.27072179E+03</pdfrwt>
<totfact> 0.11200755E+05</totfact>
</mgrwt>
</event>
<event>
 8    1  0.9705063E-006  0.5246467E+03  0.7546771E-02  0.1007539E+00
         21   -1    0    0  504  503  0.00000000000E+00  0.00000000000E+00  0.70135042152E+02  0.70135042152E+02  0.00000000000E+00 0. -1.
         21   -1    0    0  503  504 -0.00000000000E+00 -0.00000000000E+00 -0.98115780373E+03  0.98115780373E+03  0.00000000000E+00 0. -1.
         25    2    1    2    0    0 -0.11288880279E+03  0.19909885671E+03 -0.51214529362E+03  0.57472935905E+03  0.12504718245E+03 0.  0.
         25    2    1    2    0    0  0.11288880279E+03 -0.19909885671E+03 -0.39887746795E+03  0.47656348683E+03  0.12500114400E+03 0.  0.
          5    1    3    3  501    0 -0.13579895200E+03  0.19399382455E+03 -0.46292855625E+03  0.51999990146E+03  0.47000000000E+01 0.  1.
         -5    1    3    3    0  501  0.22910149214E+02  0.51050321503E+01 -0.49216737377E+02  0.54729457592E+02  0.47000000000E+01 0.  1.
          5    1    4    4  502    0  0.98887151050E+02 -0.14677400994E+03 -0.18573023765E+03  0.25659128944E+03  0.47000000000E+01 0.  1.
         -5    1    4    4    0  502  0.14001651736E+02 -0.52324846765E+02 -0.21314723030E+03  0.21997219739E+03  0.47000000000E+01 0.  1.
<mgrwt>
<rscale>  0 0.52464672E+03</rscale>
<asrwt>0</asrwt>
<pdfrwt beam="1">  1       21 0.10790007E-01 0.52464672E+03</pdfrwt>
<pdfrwt beam="2">  1       21 0.15094735E+00 0.52464672E+03</pdfrwt>
<totfact> 0.18231488E+04</totfact>
</mgrwt>
</event>
<event>
 8    1  0.9705063E-006  0.2937194E+03  0.7546771E-02  0.1088423E+00
         21   -1    0    0  504  503  0.00000000000E+00  0.00000000000E+00  0.32544610840E+02  0.32544610840E+02  0.00000000000E+00 0. -1.
         21   -1    0    0  503  504 -0.00000000000E+00 -0.00000000000E+00 -0.66271385172E+03  0.66271385172E+03  0.00000000000E+00 0. -1.
         25    2    1    2    0    0  0.32131000223E+02  0.67409971660E+02 -0.26977760556E+03  0.30656452909E+03  0.12500139432E+03 0.  0.
         25    2    1    2    0    0 -0.32131000223E+02 -0.67409971660E+02 -0.36039163532E+03  0.38869393347E+03  0.12499735057E+03 0.  0.
          5    1    3    3  501    0 -0.46284845489E+02  0.85455257899E+01 -0.81443485546E+02  0.94183036003E+02  0.47000000000E+01 0. -1.
         -5    1    3    3    0  501  0.78415845712E+02  0.58864445870E+02 -0.18833412001E+03  0.21238149309E+03  0.47000000000E+01 0. -1.
          5    1    4    4  502    0 -0.66132770648E+02 -0.34874416959E+02 -0.31262345258E+03  0.32147360920E+03  0.47000000000E+01 0. -1.
         -5    1    4    4    0  502  0.34001770425E+02 -0.32535554701E+02 -0.47768182749E+02  0.67220324269E+02  0.47000000000E+01 0. -1.
<mgrwt>
<rscale>  0 0.29371935E+03</rscale>
<asrwt>0</asrwt>
<pdfrwt beam="1">  1       21 0.50068637E-02 0.29371935E+03</pdfrwt>
<pdfrwt beam="2">  1       21 0.10195597E+00 0.29371935E+03</pdfrwt>
<totfact> 0.20404954E+05</totfact>
</mgrwt>
</event>
<event>
 8    1  0.9705063E-006  0.2588719E+03  0.7546771E-02  0.1107823E+00
         21   -1    0    0  504  503  0.00000000000E+00  0.00000000000E+00  0.44065572525E+02  0.44065572525E+02  0.00000000000E+00 0.  1.
         21   -1    0    0  503  504 -0.00000000000E+00 -0.00000000000E+00 -0.38019839769E+03  0.38019839769E+03  0.00000000000E+00 0.  1.
         25    2    1    2    0    0  0.16587775331E+02 -0.11205601649E+02 -0.21227972124E+03  0.24715709845E+03  0.12499292566E+03 0.  0.
         25    2    1    2    0    0 -0.16587775331E+02  0.11205601649E+02 -0.12385310393E+03  0.17710687177E+03  0.12500613136E+03 0.  0.
          5    1    3    3  501    0  0.50357272484E+02  0.32360708392E+02 -0.16057948731E+03  0.17143783738E+03  0.47000000000E+01 0. -1.
         -5    1    3    3    0  501 -0.33769497153E+02 -0.43566310041E+02 -0.51700233931E+02  0.75719261071E+02  0.47000000000E+01 0. -1.
          5    1    4    4  502    0 -0.62128951390E+02 -0.70378458838E+01 -0.10880052386E+03  0.12557540312E+03  0.47000000000E+01 0. -1.
         -5    1    4    4    0  502  0.45541176059E+02  0.18243447533E+02 -0.15052580063E+02  0.51531468650E+02  0.47000000000E+01 0. -1.
<mgrwt>
<rscale>  0 0.25887186E+03</rscale>
<asrwt>0</asrwt>
<pdfrwt beam="1">  1       21 0.67793186E-02 0.25887186E+03</pdfrwt>
<pdfrwt beam="2">  1       21 0.58492063E-01 0.25887186E+03</pdfrwt>
<totfact> 0.43112902E+05</totfact>
</mgrwt>
</event>
<event>
 8    1  0.9705063E-006  0.3483857E+03  0.7546771E-02  0.1063280E+00
         21   -1    0    0  504  503  0.00000000000E+00  0.00000000000E+00  0.11575850444E+03  0.11575850444E+03  0.00000000000E+00 0. -1.
         21   -1    0    0  503  504 -0.00000000000E+00 -0.00000000000E+00 -0.26212459708E+03  0.26212459708E+03  0.00000000000E+00 0. -1.
         25    2    1    2    0    0  0.12631909128E+02 -0.16771623186E+02 -0.20278922394E+03  0.23914327001E+03  0.12500072709E+03 0.  0.
         25    2    1    2    0    0 -0.12631909128E+02  0.16771623186E+02  0.56423131306E+02  0.13873983151E+03  0.12499727448E+03 0.  0.
          5    1    3    3  501    0  0.14091307570E+02 -0.34180104257E+02 -0.21442103227E+03  0.21763573594E+03  0.47000000000E+01 0. -1.
         -5    1    3    3    0  501 -0.14593984414E+01  0.17408481071E+02  0.11631808332E+02  0.21507534077E+02  0.47000000000E+01 0. -1.
          5    1    4    4  502    0 -0.67599682220E+02  0.75739440279E+01  0.44884913434E+02  0.81632267629E+02  0.47000000000E+01 0.  1.
         -5    1    4    4    0  502  0.54967773091E+02  0.91976791580E+01  0.11538217871E+02  0.57107563879E+02  0.47000000000E+01 0.  1.
<mgrwt>
<rscale>  0 0.34838571E+03</rscale>
<asrwt>0</asrwt>
<pdfrwt beam="1">  1       21 0.17809001E-01 0.34838571E+03</pdfrwt>
<pdfrwt beam="2">  1       21 0.40326861E-01 0.34838571E+03</pdfrwt>
<totfact> 0.16274103E+05</totfact>
</mgrwt>
</event>
<event>
 8    1  0.9705063E-006  0.2978729E+03  0.7546771E-02  0.1086309E+00
         21   -1    0    0  504  503  0.00000000000E+00  0.00000000000E+00  0.44319040909E+02  0.44319040909E+02  0.00000000000E+00 0.  1.
         21   -1    0    0  503  504 -0.00000000000E+00 -0.00000000000E+00 -0.50050886550E+03  0.50050886550E+03  0.00000000000E+00 0.  1.
         25    2    1    2    0    0 -0.51476455007E+02  0.33092423539E+02 -0.32508087853E+03  0.35362258458E+03  0.12500568317E+03 0.  0.
         25    2    1    2    0    0  0.51476455007E+02 -0.33092423539E+02 -0.13110894606E+03  0.19120532183E+03  0.12499994177E+03 0.  0.
          5    1    3    3  501    0 -0.16907123341E+02  0.22241996384E+02 -0.31423701195E+03  0.31551156381E+03  0.47000000000E+01 0. -1.
         -5    1    3    3    0  501 -0.34569331666E+02  0.10850427156E+02 -0.10843866579E+02  0.38111020764E+02  0.47000000000E+01 0. -1.
          5    1    4    4  502    0  0.51754128708E+02 -0.36767107926E+02 -0.38164208325E+01  0.63772761674E+02  0.47000000000E+01 0. -1.
         -5    1    4    4    0  502 -0.27767370126E+00  0.36746843865E+01 -0.12729252523E+03  0.12743256016E+03  0.47000000000E+01 0. -1.
<mgrwt>
<rscale>  0 0.29787295E+03</rscale>
<asrwt>0</asrwt>
<pdfrwt beam="1">  1       21 0.68183137E-02 0.29787295E+03</pdfrwt>
<pdfrwt beam="2">  1       21 0.77001367E-01 0.29787295E+03</pdfrwt>
<totfact> 0.23055864E+05</totfact>
</mgrwt>
</event>
<event>
 8    1  0.9705063E-006  0.2732027E+03  0.7546771E-02  0.1099460E+00
         21   -1    0    0  504  503  0.00000000000E+00  0.00000000000E+00  0.20860075466E+02  0.20860075466E+02  0.00000000000E+00 0. -1.
         21   -1    0    0  503  504 -0.00000000000E+00 -0.00000000000E+00 -0.89452862207E+03  0.89452862207E+03  0.00000000000E+00 0. -1.
         25    2    1    2    0    0 -0.54912839147E+01 -0.53903368073E+02 -0.47136443651E+03  0.49065883063E+03  0.12500371504E+03 0.  0.
         25    2    1    2    0    0  0.54912839147E+01  0.53903368073E+02 -0.40230411009E+03  0.42472986690E+03  0.12494452993E+03 0.  0.
          5    1    3    3  501    0 -0.26242414543E+02 -0.89916291915E+02 -0.34688472925E+03  0.35933926763E+03  0.47000000000E+01 0.  1.
         -5    1    3    3    0  501  0.20751130628E+02  0.36012923842E+02 -0.12447970726E+03  0.13131956300E+03  0.47000000000E+01 0.  1.
          5    1    4    4  502    0  0.10157798579E+02  0.71058459276E+02 -0.10746956959E+03  0.12932240291E+03  0.47000000000E+01 0. -1.
         -5    1    4    4    0  502 -0.46665146645E+01 -0.17155091203E+02 -0.29483454050E+03  0.29540746400E+03  0.47000000000E+01 0. -1.
<mgrwt>
<rscale>  0 0.27320274E+03</rscale>
<asrwt>0</asrwt>
<pdfrwt beam="1">  1       21 0.32092418E-02 0.27320274E+03</pdfrwt>
<pdfrwt beam="2">  1       21 0.13761981E+00 0.27320274E+03</pdfrwt>
<totfact> 0.20577655E+05</totfact>
</mgrwt>
</event>
<event>
 8    1  0.9705063E-006  0.2570874E+03  0.7546771E-02  0.1108906E+00
         21   -1    0    0  504  503  0.00000000000E+00  0.00000000000E+00  0.51085900196E+03  0.51085900196E+03  0.00000000000E+00 0. -1.
         21   -1    0    0  503  504 -0.00000000000E+00 -0.00000000000E+00 -0.32344508627E+02  0.32344508627E+02  0.00000000000E+00 0. -1.
         25    2    1    2    0    0 -0.24916406872E+02 -0.14095582057E+02  0.25810022738E+03  0.28819937082E+03  0.12499454869E+03 0.  0.
         25    2    1    2    0    0  0.24916406872E+02  0.14095582057E+02  0.22041426595E+03  0.25500413977E+03  0.12500059959E+03 0.  0.
          5    1    3    3  501    0 -0.70073126034E+02  0.16205594675E+02  0.16871630675E+03  0.18346701734E+03  0.47000000000E+01 0.  1.
         -5    1    3    3    0  501  0.45156719162E+02 -0.30301176732E+02  0.89383920634E+02  0.10473235348E+03  0.47000000000E+01 0.  1.
          5    1    4    4  502    0  0.60780760278E+02  0.46178834305E+02  0.16223148258E+03  0.17935420123E+03  0.47000000000E+01 0.  1.
         -5    1    4    4    0  502 -0.35864353406E+02 -0.32083252247E+02  0.58182783371E+02  0.75649938538E+02  0.47000000000E+01 0.  1.
<mgrwt>
<rscale>  0 0.25708740E+03</rscale>
<asrwt>0</asrwt>
<pdfrwt beam="1">  1       21 0.78593687E-01 0.25708740E+03</pdfrwt>
<pdfrwt beam="2">  1       21 0.49760786E-02 0.25708740E+03</pdfrwt>
<totfact> 0.38214490E+05</totfact>
</mgrwt>
</event>
<event>
 8    1  0.9705063E-006  0.3221697E+03  0.7546771E-02  0.1074655E+00
         21   -1    0    0  504  503  0.00000000000E+00  0.00000000000E+00  0.68549537431E+02  0.68549537431E+02  0.00000000000E+00 0. -1.
         21   -1    0    0  503  504 -0.00000000000E+00 -0.00000000000E+00 -0.37853395634E+03  0.37853395634E+03  0.00000000000E+00 0. -1.
         25    2    1    2    0    0 -0.32015987031E+02 -0.56816628028E+02 -0.46876564909E+02  0.14858131842E+03  0.12500337276E+03 0.  0.
         25    2    1    2    0    0  0.32015987031E+02  0.56816628028E+02 -0.26310785400E+03  0.29850217535E+03  0.12499861281E+03 0.  0.
          5    1    3    3  501    0 -0.61472794185E+02  0.93234150790E+01 -0.43347068419E+02  0.75940034462E+02  0.47000000000E+01 0. -1.
         -5    1    3    3    0  501  0.29456807154E+02 -0.66140043107E+02 -0.35294964899E+01  0.72641283960E+02  0.47000000000E+01 0. -1.
          5    1    4    4  502    0 -0.38621399596E+02 -0.63426856780E+00 -0.14001842566E+03  0.14532468588E+03  0.47000000000E+01 0.  1.
         -5    1    4    4    0  502  0.70637386627E+02  0.57450896596E+02 -0.12308942834E+03  0.15317748947E+03  0.47000000000E+01 0.  1.
<mgrwt>
<rscale>  0 0.32216969E+03</rscale>
<asrwt>0</asrwt>
<pdfrwt beam="1">  1       21 0.10546083E-01 0.32216969E+03</pdfrwt>
<pdfrwt beam="2">  1       21 0.58235992E-01 0.32216969E+03</pdfrwt>
<totfact> 0.19707623E+05</totfact>
</mgrwt>
</event>
<event>
 8    1  0.9705063E-006  0.2760538E+03  0.7546771E-02  0.1097864E+00
         21   -1    0    0  504  503  0.00000000000E+00  0.00000000000E+00  0.43095780964E+03  0.43095780964E+03  0.00000000000E+00 0. -1.
         21   -1    0    0  503  504 -0.00000000000E+00 -0.00000000000E+00 -0.44207179001E+02  0.44207179001E+02  0.00000000000E+00 0. -1.
         25    2    1    2    0    0  0.19897192058E+02  0.42154935141E+02  0.25448779839E+03  0.28730180575E+03  0.12492138028E+03 0.  0.
         25    2    1    2    0    0 -0.19897192058E+02 -0.42154935141E+02  0.13226283225E+03  0.18786318289E+03  0.12500472744E+03 0.  0.
          5    1    3    3  501    0 -0.95428305078E+01 -0.42375798152E+02  0.85113145252E+02  0.95671894398E+02  0.47000000000E+01 0. -1.
         -5    1    3    3    0  501  0.29440022566E+02  0.84530733293E+02  0.16937465314E+03  0.19162991136E+03  0.47000000000E+01 0. -1.
          5    1    4    4  502    0 -0.25815531361E+02 -0.81015908529E+02  0.55955924860E+02  0.10189786367E+03  0.47000000000E+01 0. -1.
         -5    1    4    4    0  502  0.59183393026E+01  0.38860973387E+02  0.76306907390E+02  0.85965319217E+02  0.47000000000E+01 0. -1.
<mgrwt>
<rscale>  0 0.27605383E+03</rscale>
<asrwt>0</asrwt>
<pdfrwt beam="1">  1       21 0.66301199E-01 0.27605383E+03</pdfrwt>
<pdfrwt beam="2">  1       21 0.68011047E-02 0.27605383E+03</pdfrwt>
<totfact> 0.32514558E+05</totfact>
</mgrwt>
</event>
<event>
 8    1  0.9705063E-006  0.2633870E+03  0.7546771E-02  0.1105125E+00
         21   -1    0    0  504  503  0.00000000000E+00  0.00000000000E+00  0.66365990392E+03  0.66365990392E+03  0.00000000000E+00 0.  1.
         21   -1    0    0  503  504 -0.00000000000E+00 -0.00000000000E+00 -0.26132627584E+02  0.26132627584E+02  0.00000000000E+00 0.  1.
         25    2    1    2    0    0  0.74080241333E+01 -0.37028074299E+02  0.36360021557E+03  0.38633808500E+03  0.12500416814E+03 0.  0.
         25    2    1    2    0    0 -0.74080241333E+01  0.37028074299E+02  0.27392706077E+03  0.30345444651E+03  0.12499043714E+03 0.  0.
          5    1    3    3  501    0 -0.87085784570E+01 -0.68539637434E+02  0.10826211801E+03  0.12851574781E+03  0.47000000000E+01 0.  1.
         -5    1    3    3    0  501  0.16116602590E+02  0.31511563135E+02  0.25533809756E+03  0.25782233719E+03  0.47000000000E+01 0.  1.
          5    1    4    4  502    0 -0.27202560195E+02  0.16908042240E+02  0.27290966437E+03  0.27482291767E+03  0.47000000000E+01 0.  1.
         -5    1    4    4    0  502  0.19794536061E+02  0.20120032059E+02  0.10173964016E+01  0.28631528834E+02  0.47000000000E+01 0.  1.
<mgrwt>
<rscale>  0 0.26338699E+03</rscale>
<asrwt>0</asrwt>
<pdfrwt beam="1">  1       21 0.10210151E+00 0.26338699E+03</pdfrwt>
<pdfrwt beam="2">  1       21 0.40204047E-02 0.26338699E+03</pdfrwt>
<totfact> 0.29751934E+05</totfact>
</mgrwt>
</event>
<event>
 8    1  0.9705063E-006  0.3017230E+03  0.7546771E-02  0.1084382E+00
         21   -1    0    0  504  503  0.00000000000E+00  0.00000000000E+00  0.75875594572E+03  0.75875594572E+03  0.00000000000E+00 0.  1.
         21   -1    0    0  503  504 -0.00000000000E+00 -0.00000000000E+00 -0.29995408776E+02  0.29995408776E+02  0.00000000000E+00 0.  1.
         25    2    1    2    0    0 -0.45403026325E+02 -0.42192866765E+02  0.51436032028E+03  0.53294913317E+03  0.12500626650E+03 0.  0.
         25    2    1    2    0    0  0.45403026325E+02  0.42192866765E+02  0.21440021667E+03  0.25580222133E+03  0.12500260287E+03 0.  0.
          5    1    3    3  501    0 -0.10145824955E+02  0.43875631140E+02  0.13801088849E+03  0.14524842207E+03  0.47000000000E+01 0. -1.
         -5    1    3    3    0  501 -0.35257201369E+02 -0.86068497905E+02  0.37634943179E+03  0.38770071110E+03  0.47000000000E+01 0. -1.
          5    1    4    4  502    0  0.80468625630E+02  0.13697163829E+02  0.18341529089E+03  0.20081352280E+03  0.47000000000E+01 0.  1.
         -5    1    4    4    0  502 -0.35065599305E+02  0.28495702936E+02  0.30984925783E+02  0.54988698532E+02  0.47000000000E+01 0.  1.
<mgrwt>
<rscale>  0 0.30172302E+03</rscale>
<asrwt>0</asrwt>
<pdfrwt beam="1">  1       21 0.11673167E+00 0.30172302E+03</pdfrwt>
<pdfrwt beam="2">  1       21 0.46146788E-02 0.30172302E+03</pdfrwt>
<totfact> 0.16803745E+05</totfact>
</mgrwt>
</event>
<event>
 8    1  0.9705063E-006  0.4020372E+03  0.7546771E-02  0.1043077E+00
         21   -1    0    0  504  503  0.00000000000E+00  0.00000000000E+00  0.24555865223E+03  0.24555865223E+03  0.00000000000E+00 0. -1.
         21   -1    0    0  503  504 -0.00000000000E+00 -0.00000000000E+00 -0.16455733108E+03  0.16455733108E+03  0.00000000000E+00 0. -1.
         25    2    1    2    0    0 -0.74378721695E+02  0.66788436566E+02  0.16454976355E+03  0.22956695732E+03  0.12502589215E+03 0.  0.
         25    2    1    2    0    0  0.74378721695E+02 -0.66788436566E+02 -0.83548442398E+02  0.18054902599E+03  0.12499887623E+03 0.  0.
          5    1    3    3  501    0 -0.29445795463E+02 -0.36594835331E+02  0.46011449710E+02  0.65919498995E+02  0.47000000000E+01 0. -1.
         -5    1    3    3    0  501 -0.44932926232E+02  0.10338327190E+03  0.11853831384E+03  0.16364745832E+03  0.47000000000E+01 0. -1.
          5    1    4    4  502    0  0.88271934157E+02 -0.54992325831E+02 -0.10779151356E+03  0.14985723425E+03  0.47000000000E+01 0.  1.
         -5    1    4    4    0  502 -0.13893212462E+02 -0.11796110734E+02  0.24243071164E+02  0.30691791744E+02  0.47000000000E+01 0.  1.
<mgrwt>
<rscale>  0 0.40203719E+03</rscale>
<asrwt>0</asrwt>
<pdfrwt beam="1">  1       21 0.37778254E-01 0.40203719E+03</pdfrwt>
<pdfrwt beam="2">  1       21 0.25316513E-01 0.40203719E+03</pdfrwt>
<totfact> 0.94024555E+04</totfact>
</mgrwt>
</event>
<event>
 8    1  0.9705063E-006  0.2927724E+03  0.7546771E-02  0.1088910E+00
         21   -1    0    0  504  503  0.00000000000E+00  0.00000000000E+00  0.32747771361E+03  0.32747771361E+03  0.00000000000E+00 0. -1.
         21   -1    0    0  503  504 -0.00000000000E+00 -0.00000000000E+00 -0.65436247790E+02  0.65436247790E+02  0.00000000000E+00 0. -1.
         25    2    1    2    0    0  0.41953707421E+02  0.24961406989E+02  0.52555103830E+02  0.14411350606E+03  0.12499391300E+03 0.  0.
         25    2    1    2    0    0 -0.41953707421E+02 -0.24961406989E+02  0.20948636199E+03  0.24880045534E+03  0.12503577612E+03 0.  0.
          5    1    3    3  501    0  0.14827373036E+02  0.33387355020E+02 -0.35691633551E+02  0.51288879612E+02  0.47000000000E+01 0.  1.
         -5    1    3    3    0  501  0.27126334385E+02 -0.84259480302E+01  0.88246737381E+02  0.92824626451E+02  0.47000000000E+01 0.  1.
          5    1    4    4  502    0 -0.36622839212E+02 -0.68653673816E+02  0.17846299075E+03  0.19474518826E+03  0.47000000000E+01 0. -1.
         -5    1    4    4    0  502 -0.53308682095E+01  0.43692266827E+02  0.31023371238E+02  0.54055267082E+02  0.47000000000E+01 0. -1.
<mgrwt>
<rscale>  0 0.29277235E+03</rscale>
<asrwt>0</asrwt>
<pdfrwt beam="1">  1       21 0.50381186E-01 0.29277235E+03</pdfrwt>
<pdfrwt beam="2">  1       21 0.10067115E-01 0.29277235E+03</pdfrwt>
<totfact> 0.29361036E+05</totfact>
</mgrwt>
</event>
<event>
 8    1  0.9705063E-006  0.2725210E+03  0.7546771E-02  0.1099845E+00
         21   -1    0    0  504  503  0.00000000000E+00  0.00000000000E+00  0.25170018920E+03  0.25170018920E+03  0.00000000000E+00 0. -1.
         21   -1    0    0  503  504 -0.00000000000E+00 -0.00000000000E+00 -0.73766011303E+02  0.73766011303E+02  0.00000000000E+00 0. -1.
         25    2    1    2    0    0  0.33421922313E+02  0.88801733236E+01  0.39058487435E+02  0.13545182226E+03  0.12500299334E+03 0.  0.
         25    2    1    2    0    0 -0.33421922313E+02 -0.88801733236E+01  0.13887569047E+03  0.19001437825E+03  0.12499249645E+03 0.  0.
          5    1    3    3  501    0 -0.36520474517E+02 -0.30458050506E+01  0.51379605394E+02  0.63284878429E+02  0.47000000000E+01 0. -1.
         -5    1    3    3    0  501  0.69942396830E+02  0.11925978374E+02 -0.12321117959E+02  0.72166943833E+02  0.47000000000E+01 0. -1.
          5    1    4    4  502    0 -0.24637819387E+02 -0.41325223102E+02  0.14731241013E+03  0.15504138927E+03  0.47000000000E+01 0. -1.
         -5    1    4    4    0  502 -0.87841029264E+01  0.32445049779E+02 -0.84367196610E+01  0.34972988977E+02  0.47000000000E+01 0. -1.
<mgrwt>
<rscale>  0 0.27252096E+03</rscale>
<asrwt>0</asrwt>
<pdfrwt beam="1">  1       21 0.38723105E-01 0.27252096E+03</pdfrwt>
<pdfrwt beam="2">  1       21 0.11348617E-01 0.27252096E+03</pdfrwt>
<totfact> 0.40990642E+05</totfact>
</mgrwt>
</event>
<event>
 8    1  0.9705063E-006  0.3841253E+03  0.7546771E-02  0.1049419E+00
         21   -1    0    0  504  503  0.00000000000E+00  0.00000000000E+00  0.87321325092E+02  0.87321325092E+02  0.00000000000E+00 0. -1.
         21   -1    0    0  503  504 -0.00000000000E+00 -0.00000000000E+00 -0.42244046077E+03  0.42244046077E+03  0.00000000000E+00 0. -1.
         25    2    1    2    0    0 -0.12924538855E+03 -0.24368888588E+02 -0.25112238520E+03  0.30981561303E+03  0.12500019413E+03 0.  0.
         25    2    1    2    0    0  0.12924538855E+03  0.24368888588E+02 -0.83996750475E+02  0.19994617283E+03  0.12499921899E+03 0.  0.
          5    1    3    3  501    0  0.71730083186E+01  0.45672815082E+01 -0.11321956536E+03  0.11363569901E+03  0.47000000000E+01 0.  1.
         -5    1    3    3    0  501 -0.13641839687E+03 -0.28936170096E+02 -0.13790281984E+03  0.19617991402E+03  0.47000000000E+01 0.  1.
          5    1    4    4  502    0 -0.23110923158E+02 -0.33237432052E+01 -0.23995962847E+02  0.33809144785E+02  0.47000000000E+01 0. -1.
         -5    1    4    4    0  502  0.15235631171E+03  0.27692631793E+02 -0.60000787628E+02  0.16613702805E+03  0.47000000000E+01 0. -1.
<mgrwt>
<rscale>  0 0.38412530E+03</rscale>
<asrwt>0</asrwt>
<pdfrwt beam="1">  1       21 0.13434050E-01 0.38412530E+03</pdfrwt>
<pdfrwt beam="2">  1       21 0.64990840E-01 0.38412530E+03</pdfrwt>
<totfact> 0.98612580E+04</totfact>
</mgrwt>
</event>
<event>
 8    1  0.9705063E-006  0.3003868E+03  0.7546771E-02  0.1085047E+00
         21   -1    0    0  504  503  0.00000000000E+00  0.00000000000E+00  0.96587505172E+02  0.96587505172E+02  0.00000000000E+00 0. -1.
         21   -1    0    0  503  504 -0.00000000000E+00 -0.00000000000E+00 -0.23355052877E+03  0.23355052877E+03  0.00000000000E+00 0. -1.
         25    2    1    2    0    0 -0.70539450742E+02 -0.21735676492E+02 -0.11089264145E+03  0.18265093664E+03  0.12496372668E+03 0.  0.
         25    2    1    2    0    0  0.70539450742E+02  0.21735676492E+02 -0.26070382143E+02  0.14748709730E+03  0.12499810119E+03 0.  0.
          5    1    3    3  501    0 -0.10631812004E+03 -0.21295964958E+02 -0.89681481595E+02  0.14079033672E+03  0.47000000000E+01 0. -1.
         -5    1    3    3    0  501  0.35778669302E+02 -0.43971153401E+00 -0.21211159859E+02  0.41860599922E+02  0.47000000000E+01 0. -1.
          5    1    4    4  502    0  0.54564930185E+02  0.72999070050E+02 -0.16993624577E+02  0.92828169811E+02  0.47000000000E+01 0. -1.
         -5    1    4    4    0  502  0.15974520557E+02 -0.51263393558E+02 -0.90767575660E+01  0.54658927487E+02  0.47000000000E+01 0. -1.
<mgrwt>
<rscale>  0 0.30038684E+03</rscale>
<asrwt>0</asrwt>
<pdfrwt beam="1">  1       21 0.14859616E-01 0.30038684E+03</pdfrwt>
<pdfrwt beam="2">  1       21 0.35930851E-01 0.30038684E+03</pdfrwt>
<totfact> 0.29064711E+05</totfact>
</mgrwt>
</event>
<event>
 8    1  0.9705063E-006  0.3822368E+03  0.7546771E-02  0.1050110E+00
         21   -1    0    0  504  503  0.00000000000E+00  0.00000000000E+00  0.42586333694E+03  0.42586333694E+03  0.00000000000E+00 0.  1.
         21   -1    0    0  503  504 -0.00000000000E+00 -0.00000000000E+00 -0.85769863618E+02  0.85769863618E+02  0.00000000000E+00 0.  1.
         25    2    1    2    0    0 -0.31104610311E+02  0.88041927771E+02  0.31778541855E+03  0.35402130058E+03  0.12499852476E+03 0.  0.
         25    2    1    2    0    0  0.31104610311E+02 -0.88041927771E+02  0.22308054777E+02  0.15761189999E+03  0.12499993552E+03 0.  0.
          5    1    3    3  501    0  0.43056530674E+02  0.31206140789E+02  0.17788696694E+03  0.18572439544E+03  0.47000000000E+01 0. -1.
         -5    1    3    3    0  501 -0.74161140984E+02  0.56835786983E+02  0.13989845161E+03  0.16829690513E+03  0.47000000000E+01 0. -1.
          5    1    4    4  502    0 -0.20270824658E+02 -0.98764186920E+02  0.27644885220E+02  0.10464989550E+03  0.47000000000E+01 0.  1.
         -5    1    4    4    0  502  0.51375434969E+02  0.10722259149E+02 -0.53368304426E+01  0.52962004481E+02  0.47000000000E+01 0.  1.
<mgrwt>
<rscale>  0 0.38223679E+03</rscale>
<asrwt>0</asrwt>
<pdfrwt beam="1">  1       21 0.65517435E-01 0.38223679E+03</pdfrwt>
<pdfrwt beam="2">  1       21 0.13195364E-01 0.38223679E+03</pdfrwt>
<totfact> 0.10014039E+05</totfact>
</mgrwt>
</event>
<event>
 8    1  0.9705063E-006  0.3061887E+03  0.7546771E-02  0.1082187E+00
         21   -1    0    0  504  503  0.00000000000E+00  0.00000000000E+00  0.28403436545E+02  0.28403436545E+02  0.00000000000E+00 0.  1.
         21   -1    0    0  503  504 -0.00000000000E+00 -0.00000000000E+00 -0.82517763354E+03  0.82517763354E+03  0.00000000000E+00 0.  1.
         25    2    1    2    0    0 -0.30878452888E+02 -0.64305644757E+02 -0.54375162747E+03  0.56248942249E+03  0.12505927893E+03 0.  0.
         25    2    1    2    0    0  0.30878452888E+02  0.64305644757E+02 -0.25302256953E+03  0.29109164759E+03  0.12500092722E+03 0.  0.
          5    1    3    3  501    0 -0.15324215607E+02 -0.10180394193E+03 -0.39586033866E+03  0.40905546311E+03  0.47000000000E+01 0. -1.
         -5    1    3    3    0  501 -0.15554237281E+02  0.37498297168E+02 -0.14789128881E+03  0.15343395938E+03  0.47000000000E+01 0. -1.
          5    1    4    4  502    0 -0.37728530557E+02  0.12401212605E+02 -0.15730602884E+03  0.16230991590E+03  0.47000000000E+01 0.  1.
         -5    1    4    4    0  502  0.68606983445E+02  0.51904432152E+02 -0.95716540689E+02  0.12878173169E+03  0.47000000000E+01 0.  1.
<mgrwt>
<rscale>  0 0.30618870E+03</rscale>
<asrwt>0</asrwt>
<pdfrwt beam="1">  1       21 0.43697592E-02 0.30618870E+03</pdfrwt>
<pdfrwt beam="2">  1       21 0.12695041E+00 0.30618870E+03</pdfrwt>
<totfact> 0.14903751E+05</totfact>
</mgrwt>
</event>
<event>
 8    1  0.9705063E-006  0.3516117E+03  0.7546771E-02  0.1061955E+00
         21   -1    0    0  504  503  0.00000000000E+00  0.00000000000E+00  0.11038300161E+03  0.11038300161E+03  0.00000000000E+00 0. -1.
         21   -1    0    0  503  504 -0.00000000000E+00 -0.00000000000E+00 -0.28000410024E+03  0.28000410024E+03  0.00000000000E+00 0. -1.
         25    2    1    2    0    0  0.93816427617E+02  0.40594140111E+02 -0.16200369292E+03  0.22873237374E+03  0.12499558381E+03 0.  0.
         25    2    1    2    0    0 -0.93816427617E+02 -0.40594140111E+02 -0.76174057036E+01  0.16165472811E+03  0.12499927980E+03 0.  0.
          5    1    3    3  501    0  0.46868001433E+02  0.74741045985E+01 -0.16425760193E+03  0.17104128622E+03  0.47000000000E+01 0. -1.
         -5    1    3    3    0  501  0.46948426183E+02  0.33120035513E+02  0.22539090090E+01  0.57691087520E+02  0.47000000000E+01 0. -1.
          5    1    4    4  502    0 -0.67440550169E+02 -0.74138118403E+02  0.29844349334E+02  0.10467790404E+03  0.47000000000E+01 0.  1.
         -5    1    4    4    0  502 -0.26375877448E+02  0.33543978292E+02 -0.37461755038E+02  0.56976824072E+02  0.47000000000E+01 0.  1.
<mgrwt>
<rscale>  0 0.35161168E+03</rscale>
<asrwt>0</asrwt>
<pdfrwt beam="1">  1       21 0.16982000E-01 0.35161168E+03</pdfrwt>
<pdfrwt beam="2">  1       21 0.43077554E-01 0.35161168E+03</pdfrwt>
<totfact> 0.15514101E+05</totfact>
</mgrwt>
</event>
<event>
 8    1  0.9705063E-006  0.3887022E+03  0.7546771E-02  0.1047763E+00
         21   -1    0    0  504  503  0.00000000000E+00  0.00000000000E+00  0.24112248133E+03  0.24112248133E+03  0.00000000000E+00 0.  1.
         21   -1    0    0  503  504 -0.00000000000E+00 -0.00000000000E+00 -0.15665213881E+03  0.15665213881E+03  0.00000000000E+00 0.  1.
         25    2    1    2    0    0 -0.53081456930E+02 -0.12687461935E+03 -0.15909444594E+02  0.18652915906E+03  0.12500082659E+03 0.  0.
         25    2    1    2    0    0  0.53081456930E+02  0.12687461935E+03  0.10037978711E+03  0.21124546108E+03  0.12503492737E+03 0.  0.
          5    1    3    3  501    0 -0.81476215314E+02 -0.37410615263E+02 -0.21728469131E+02  0.92369606295E+02  0.47000000000E+01 0. -1.
         -5    1    3    3    0  501  0.28394758384E+02 -0.89464004087E+02  0.58190245369E+01  0.94159552768E+02  0.47000000000E+01 0. -1.
          5    1    4    4  502    0 -0.22608556051E+02  0.65249674550E+02  0.89179555682E+02  0.11288821899E+03  0.47000000000E+01 0.  1.
         -5    1    4    4    0  502  0.75690012981E+02  0.61624944800E+02  0.11200231424E+02  0.98357242085E+02  0.47000000000E+01 0.  1.
<mgrwt>
<rscale>  0 0.38870221E+03</rscale>
<asrwt>0</asrwt>
<pdfrwt beam="1">  1       21 0.37095766E-01 0.38870221E+03</pdfrwt>
<pdfrwt beam="2">  1       21 0.24100329E-01 0.38870221E+03</pdfrwt>
<totfact> 0.10764753E+05</totfact>
</mgrwt>
</event>
<event>
 8    1  0.9705063E-006  0.2793379E+03  0.7546771E-02  0.1096051E+00
         21   -1    0    0  504  503  0.00000000000E+00  0.00000000000E+00  0.17663648127E+04  0.17663648127E+04  0.00000000000E+00 0. -1.
         21   -1    0    0  503  504 -0.00000000000E+00 -0.00000000000E+00 -0.11043817382E+02  0.11043817382E+02  0.00000000000E+00 0. -1.
         25    2    1    2    0    0 -0.19044199539E+02 -0.16802934842E+02  0.51569453195E+03  0.53123722008E+03  0.12500845395E+03 0.  0.
         25    2    1    2    0    0  0.19044199539E+02  0.16802934842E+02  0.12396264634E+04  0.12461714100E+04  0.12499757705E+03 0.  0.
          5    1    3    3  501    0  0.50883914765E+02  0.64926474366E+01  0.16515484237E+03  0.17300155841E+03  0.47000000000E+01 0. -1.
         -5    1    3    3    0  501 -0.69928114305E+02 -0.23295582278E+02  0.35053968957E+03  0.35823566167E+03  0.47000000000E+01 0. -1.
          5    1    4    4  502    0  0.21553717773E+02  0.30735384780E+02  0.12239416297E+04  0.12245262061E+04  0.47000000000E+01 0. -1.
         -5    1    4    4    0  502 -0.25095182343E+01 -0.13932449939E+02  0.15684833696E+02  0.21645203883E+02  0.47000000000E+01 0. -1.
<mgrwt>
<rscale>  0 0.27933786E+03</rscale>
<asrwt>0</asrwt>
<pdfrwt beam="1">  1       21 0.27174821E+00 0.27933786E+03</pdfrwt>
<pdfrwt beam="2">  1       21 0.16990502E-02 0.27933786E+03</pdfrwt>
<totfact> 0.75204866E+04</totfact>
</mgrwt>
</event>
<event>
 8    1  0.9705063E-006  0.4484782E+03  0.7546771E-02  0.1028177E+00
         21   -1    0    0  504  503  0.00000000000E+00  0.00000000000E+00  0.52925788724E+03  0.52925788724E+03  0.00000000000E+00 0.  1.
         21   -1    0    0  503  504 -0.00000000000E+00 -0.00000000000E+00 -0.95006937526E+02  0.95006937526E+02  0.00000000000E+00 0.  1.
         25    2    1    2    0    0  0.28082004088E+02  0.13098665412E+03  0.39707742235E+03  0.43730963641E+03  0.12499254479E+03 0.  0.
         25    2    1    2    0    0 -0.28082004088E+02 -0.13098665412E+03  0.37173527367E+02  0.18695518835E+03  0.12499707517E+03 0.  0.
          5    1    3    3  501    0  0.25298559129E+02  0.21714703415E+02  0.10082976756E+02  0.35146861292E+02  0.47000000000E+01 0. -1.
         -5    1    3    3    0  501  0.27834449593E+01  0.10927195071E+03  0.38699444559E+03  0.40216277512E+03  0.47000000000E+01 0. -1.
          5    1    4    4  502    0 -0.68343209517E+02 -0.11920424778E+03  0.12482574488E+02  0.13805198890E+03  0.47000000000E+01 0.  1.
         -5    1    4    4    0  502  0.40261205428E+02 -0.11782406348E+02  0.24690952878E+02  0.48903199445E+02  0.47000000000E+01 0.  1.
<mgrwt>
<rscale>  0 0.44847819E+03</rscale>
<asrwt>0</asrwt>
<pdfrwt beam="1">  1       21 0.81424289E-01 0.44847819E+03</pdfrwt>
<pdfrwt beam="2">  1       21 0.14616452E-01 0.44847819E+03</pdfrwt>
<totfact> 0.49950630E+04</totfact>
</mgrwt>
</event>
<event>
 8    1  0.9705063E-006  0.3459582E+03  0.7546771E-02  0.1064286E+00
         21   -1    0    0  504  503  0.00000000000E+00  0.00000000000E+00  0.81384167030E+03  0.81384167030E+03  0.00000000000E+00 0.  1.
         21   -1    0    0  503  504 -0.00000000000E+00 -0.00000000000E+00 -0.36766090779E+02  0.36766090779E+02  0.00000000000E+00 0.  1.
         25    2    1    2    0    0 -0.11859281148E+03  0.75626636046E+00  0.42590116271E+03  0.45943637335E+03  0.12500061554E+03 0.  0.
         25    2    1    2    0    0  0.11859281148E+03 -0.75626636046E+00  0.35117441681E+03  0.39117138773E+03  0.12500702653E+03 0.  0.
          5    1    3    3  501    0 -0.85716542163E+02 -0.25968799204E+02  0.39916671757E+03  0.40911839674E+03  0.47000000000E+01 0.  1.
         -5    1    3    3    0  501 -0.32876269316E+02  0.26725065564E+02  0.26734445139E+02  0.50317976613E+02  0.47000000000E+01 0.  1.
          5    1    4    4  502    0  0.58285204315E+02 -0.14235613593E+02  0.36356581570E+02  0.70311512286E+02  0.47000000000E+01 0.  1.
         -5    1    4    4    0  502  0.60307607164E+02  0.13479347233E+02  0.31481783524E+03  0.32085987545E+03  0.47000000000E+01 0.  1.
<mgrwt>
<rscale>  0 0.34595824E+03</rscale>
<asrwt>0</asrwt>
<pdfrwt beam="1">  1       21 0.12520640E+00 0.34595824E+03</pdfrwt>
<pdfrwt beam="2">  1       21 0.56563223E-02 0.34595824E+03</pdfrwt>
<totfact> 0.98113139E+04</totfact>
</mgrwt>
</event>
<event>
 8    1  0.9705063E-006  0.3066699E+03  0.7546771E-02  0.1081953E+00
         21   -1    0    0  504  503  0.00000000000E+00  0.00000000000E+00  0.30057520009E+02  0.30057520009E+02  0.00000000000E+00 0. -1.
         21   -1    0    0  503  504 -0.00000000000E+00 -0.00000000000E+00 -0.78222065862E+03  0.78222065862E+03  0.00000000000E+00 0. -1.
         25    2    1    2    0    0 -0.45246710625E+02  0.28499309754E+02 -0.18825467551E+03  0.23220902659E+03  0.12498693412E+03 0.  0.
         25    2    1    2    0    0  0.45246710625E+02 -0.28499309754E+02 -0.56390846310E+03  0.58006915204E+03  0.12501196305E+03 0.  0.
          5    1    3    3  501    0 -0.40215179117E+02 -0.36494032552E+02 -0.32903184209E+02  0.63669337788E+02  0.47000000000E+01 0. -1.
         -5    1    3    3    0  501 -0.50315315077E+01  0.64993342306E+02 -0.15535149130E+03  0.16853968880E+03  0.47000000000E+01 0. -1.
          5    1    4    4  502    0  0.70098318621E+02 -0.55402800922E+02 -0.48183438633E+03  0.49007112797E+03  0.47000000000E+01 0.  1.
         -5    1    4    4    0  502 -0.24851607996E+02  0.26903491168E+02 -0.82074076776E+02  0.89998024065E+02  0.47000000000E+01 0.  1.
<mgrwt>
<rscale>  0 0.30666994E+03</rscale>
<asrwt>0</asrwt>
<pdfrwt beam="1">  1       21 0.46242345E-02 0.30666994E+03</pdfrwt>
<pdfrwt beam="2">  1       21 0.12034162E+00 0.30666994E+03</pdfrwt>
<totfact> 0.15496237E+05</totfact>
</mgrwt>
</event>
<event>
 8    1  0.9705063E-006  0.3038798E+03  0.7546771E-02  0.1083317E+00
         21   -1    0    0  504  503  0.00000000000E+00  0.00000000000E+00  0.88431705388E+03  0.88431705388E+03  0.00000000000E+00 0.  1.
         21   -1    0    0  503  504 -0.00000000000E+00 -0.00000000000E+00 -0.26105724006E+02  0.26105724006E+02  0.00000000000E+00 0.  1.
         25    2    1    2    0    0 -0.30015123109E+02 -0.59068698631E+02  0.26309730020E+03  0.29872359368E+03  0.12500230908E+03 0.  0.
         25    2    1    2    0    0  0.30015123109E+02  0.59068698631E+02  0.59511402967E+03  0.61169918420E+03  0.12500065948E+03 0.  0.
          5    1    3    3  501    0  0.25548334615E+02 -0.13512883607E+02  0.36956784959E+01  0.29513784314E+02  0.47000000000E+01 0. -1.
         -5    1    3    3    0  501 -0.55563457723E+02 -0.45555815024E+02  0.25940162171E+03  0.26920980937E+03  0.47000000000E+01 0. -1.
          5    1    4    4  502    0  0.77998044272E+02  0.30796154903E+02  0.40087256177E+03  0.40957660926E+03  0.47000000000E+01 0. -1.
         -5    1    4    4    0  502 -0.47982921164E+02  0.28272543729E+02  0.19424146790E+03  0.20212257495E+03  0.47000000000E+01 0. -1.
<mgrwt>
<rscale>  0 0.30387982E+03</rscale>
<asrwt>0</asrwt>
<pdfrwt beam="1">  1       21 0.13604875E+00 0.30387982E+03</pdfrwt>
<pdfrwt beam="2">  1       21 0.40162659E-02 0.30387982E+03</pdfrwt>
<totfact> 0.14405008E+05</totfact>
</mgrwt>
</event>
<event>
 8    1  0.9705063E-006  0.3485466E+03  0.7546771E-02  0.1063213E+00
         21   -1    0    0  504  503  0.00000000000E+00  0.00000000000E+00  0.73846337325E+02  0.73846337325E+02  0.00000000000E+00 0.  1.
         21   -1    0    0  503  504 -0.00000000000E+00 -0.00000000000E+00 -0.41127545279E+03  0.41127545279E+03  0.00000000000E+00 0.  1.
         25    2    1    2    0    0 -0.74176254220E+02 -0.79857664104E+02 -0.24323612581E+03  0.29439617247E+03  0.12500372098E+03 0.  0.
         25    2    1    2    0    0  0.74176254220E+02  0.79857664104E+02 -0.94192989653E+02  0.19072561765E+03  0.12499831487E+03 0.  0.
          5    1    3    3  501    0 -0.78166372450E+02 -0.58792701380E+02 -0.25231024496E+03  0.27064573381E+03  0.47000000000E+01 0.  1.
         -5    1    3    3    0  501  0.39901182303E+01 -0.21064962724E+02  0.90741191507E+01  0.23750438657E+02  0.47000000000E+01 0.  1.
          5    1    4    4  502    0  0.10225380320E+03  0.39993831712E+02 -0.38241746526E+02  0.11636093855E+03  0.47000000000E+01 0. -1.
         -5    1    4    4    0  502 -0.28077548977E+02  0.39863832392E+02 -0.55951243126E+02  0.74364679095E+02  0.47000000000E+01 0. -1.
<mgrwt>
<rscale>  0 0.34854662E+03</rscale>
<asrwt>0</asrwt>
<pdfrwt beam="1">  1       21 0.11360975E-01 0.34854662E+03</pdfrwt>
<pdfrwt beam="2">  1       21 0.63273145E-01 0.34854662E+03</pdfrwt>
<totfact> 0.14301814E+05</totfact>
</mgrwt>
</event>
<event>
 8    1  0.9705063E-006  0.3178604E+03  0.7546771E-02  0.1076638E+00
         21   -1    0    0  504  503  0.00000000000E+00  0.00000000000E+00  0.35883999051E+03  0.35883999051E+03  0.00000000000E+00 0. -1.
         21   -1    0    0  503  504 -0.00000000000E+00 -0.00000000000E+00 -0.70390181166E+02  0.70390181166E+02  0.00000000000E+00 0. -1.
         25    2    1    2    0    0 -0.97669472309E+02 -0.87522443085E+01  0.13827191150E+03  0.21061361472E+03  0.12499218213E+03 0.  0.
         25    2    1    2    0    0  0.97669472309E+02  0.87522443085E+01  0.15017789784E+03  0.21861655696E+03  0.12499548141E+03 0.  0.
          5    1    3    3  501    0 -0.22371796347E+00  0.39187539802E+02  0.75228037537E+02  0.84953286912E+02  0.47000000000E+01 0.  1.
         -5    1    3    3    0  501 -0.97445754346E+02 -0.47939784111E+02  0.63043873960E+02  0.12566032781E+03  0.47000000000E+01 0.  1.
          5    1    4    4  502    0  0.11700722885E+03  0.36218400884E+02  0.13199896991E+03  0.18013406735E+03  0.47000000000E+01 0.  1.
         -5    1    4    4    0  502 -0.19337756538E+02 -0.27466156575E+02  0.18178927938E+02  0.38482489601E+02  0.47000000000E+01 0.  1.
<mgrwt>
<rscale>  0 0.31786042E+03</rscale>
<asrwt>0</asrwt>
<pdfrwt beam="1">  1       21 0.55206151E-01 0.31786042E+03</pdfrwt>
<pdfrwt beam="2">  1       21 0.10829259E-01 0.31786042E+03</pdfrwt>
<totfact> 0.21102870E+05</totfact>
</mgrwt>
</event>
<event>
 8    1  0.9705063E-006  0.3242430E+03  0.7546771E-02  0.1073713E+00
         21   -1    0    0  504  503  0.00000000000E+00  0.00000000000E+00  0.13600379983E+03  0.13600379983E+03  0.00000000000E+00 0.  1.
         21   -1    0    0  503  504 -0.00000000000E+00 -0.00000000000E+00 -0.19325474426E+03  0.19325474426E+03  0.00000000000E+00 0.  1.
         25    2    1    2    0    0 -0.39821961282E+02  0.95015675152E+02 -0.35479726811E+02  0.16581757290E+03  0.12499155708E+03 0.  0.
         25    2    1    2    0    0  0.39821961282E+02 -0.95015675152E+02 -0.21771217622E+02  0.16344097120E+03  0.12500079209E+03 0.  0.
          5    1    3    3  501    0  0.64664130286E+01  0.84045515183E+02 -0.67660962717E+02  0.10819223168E+03  0.47000000000E+01 0.  1.
         -5    1    3    3    0  501 -0.46288374310E+02  0.10970159969E+02  0.32181235906E+02  0.57625341218E+02  0.47000000000E+01 0.  1.
          5    1    4    4  502    0  0.79632832288E+02 -0.85787588623E+02 -0.31219950593E+02  0.12123396247E+03  0.47000000000E+01 0. -1.
         -5    1    4    4    0  502 -0.39810871006E+02 -0.92280865287E+01  0.94487329708E+01  0.42207008731E+02  0.47000000000E+01 0. -1.
<mgrwt>
<rscale>  0 0.32424299E+03</rscale>
<asrwt>0</asrwt>
<pdfrwt beam="1">  1       21 0.20923662E-01 0.32424299E+03</pdfrwt>
<pdfrwt beam="2">  1       21 0.29731499E-01 0.32424299E+03</pdfrwt>
<totfact> 0.22264691E+05</totfact>
</mgrwt>
</event>
<event>
 8    1  0.9705063E-006  0.2650130E+03  0.7546771E-02  0.1104168E+00
         21   -1    0    0  504  503  0.00000000000E+00  0.00000000000E+00  0.81573374164E+02  0.81573374164E+02  0.00000000000E+00 0. -1.
         21   -1    0    0  503  504 -0.00000000000E+00 -0.00000000000E+00 -0.21524154109E+03  0.21524154109E+03  0.00000000000E+00 0. -1.
         25    2    1    2    0    0 -0.43596971799E+02  0.44785834543E+01 -0.62278743608E+02  0.14633897115E+03  0.12496279010E+03 0.  0.
         25    2    1    2    0    0  0.43596971799E+02 -0.44785834543E+01 -0.71389423320E+02  0.15047594411E+03  0.12500322529E+03 0.  0.
          5    1    3    3  501    0 -0.33719110033E+01  0.31825224334E+02  0.28585661991E+02  0.43167635552E+02  0.47000000000E+01 0.  1.
         -5    1    3    3    0  501 -0.40225060796E+02 -0.27346640879E+02 -0.90864405599E+02  0.10317133559E+03  0.47000000000E+01 0.  1.
          5    1    4    4  502    0  0.67469342600E+01 -0.27404750229E+02  0.29164085383E+02  0.40855542259E+02  0.47000000000E+01 0. -1.
         -5    1    4    4    0  502  0.36850037539E+02  0.22926166775E+02 -0.10055350870E+03  0.10962040185E+03  0.47000000000E+01 0. -1.
<mgrwt>
<rscale>  0 0.26501305E+03</rscale>
<asrwt>0</asrwt>
<pdfrwt beam="1">  1       21 0.12549750E-01 0.26501305E+03</pdfrwt>
<pdfrwt beam="2">  1       21 0.33114082E-01 0.26501305E+03</pdfrwt>
<totfact> 0.46871221E+05</totfact>
</mgrwt>
</event>
<event>
 8    1  0.9705063E-006  0.3421708E+03  0.7546771E-02  0.1065875E+00
         21   -1    0    0  504  503  0.00000000000E+00  0.00000000000E+00  0.73468126255E+03  0.73468126255E+03  0.00000000000E+00 0. -1.
         21   -1    0    0  503  504 -0.00000000000E+00 -0.00000000000E+00 -0.39840689234E+02  0.39840689234E+02  0.00000000000E+00 0. -1.
         25    2    1    2    0    0  0.10196658749E+03 -0.42330861816E+02  0.26104815864E+03  0.30977566057E+03  0.12500292766E+03 0.  0.
         25    2    1    2    0    0 -0.10196658749E+03  0.42330861816E+02  0.43379241467E+03  0.46474629121E+03  0.12499667732E+03 0.  0.
          5    1    3    3  501    0  0.49488262749E+02 -0.35482573018E+02  0.24752702829E+03  0.25495062438E+03  0.47000000000E+01 0.  1.
         -5    1    3    3    0  501  0.52478324746E+02 -0.68482887979E+01  0.13521130356E+02  0.54825036194E+02  0.47000000000E+01 0.  1.
          5    1    4    4  502    0 -0.11985393564E+03  0.64135572700E+02  0.32624610848E+03  0.35346421441E+03  0.47000000000E+01 0.  1.
         -5    1    4    4    0  502  0.17887348147E+02 -0.21804710884E+02  0.10754630619E+03  0.11128207680E+03  0.47000000000E+01 0.  1.
<mgrwt>
<rscale>  0 0.34217076E+03</rscale>
<asrwt>0</asrwt>
<pdfrwt beam="1">  1       21 0.11302788E+00 0.34217076E+03</pdfrwt>
<pdfrwt beam="2">  1       21 0.61293374E-02 0.34217076E+03</pdfrwt>
<totfact> 0.11052016E+05</totfact>
</mgrwt>
</event>
<event>
 8    1  0.9705063E-006  0.3330329E+03  0.7546771E-02  0.1069803E+00
         21   -1    0    0  504  503  0.00000000000E+00  0.00000000000E+00  0.92525089970E+03  0.92525089970E+03  0.00000000000E+00 0. -1.
         21   -1    0    0  503  504 -0.00000000000E+00 -0.00000000000E+00 -0.29967788625E+02  0.29967788625E+02  0.00000000000E+00 0. -1.
         25    2    1    2    0    0  0.87584517604E+02 -0.34636648925E+01  0.25694455695E+03  0.29887777337E+03  0.12499749346E+03 0.  0.
         25    2    1    2    0    0 -0.87584517604E+02  0.34636648925E+01  0.63833855413E+03  0.65634091495E+03  0.12499696900E+03 0.  0.
          5    1    3    3  501    0  0.10747718734E+03  0.21451798460E+02  0.14162820295E+03  0.17914285731E+03  0.47000000000E+01 0.  1.
         -5    1    3    3    0  501 -0.19892669740E+02 -0.24915463352E+02  0.11531635400E+03  0.11973491606E+03  0.47000000000E+01 0.  1.
          5    1    4    4  502    0  0.48496657355E+01 -0.45539572262E+01 -0.27187524659E+01  0.85871647902E+01  0.47000000000E+01 0.  1.
         -5    1    4    4    0  502 -0.92434183340E+02  0.80176221187E+01  0.64105730659E+03  0.64775375016E+03  0.47000000000E+01 0.  1.
<mgrwt>
<rscale>  0 0.33303287E+03</rscale>
<asrwt>0</asrwt>
<pdfrwt beam="1">  1       21 0.14234627E+00 0.33303287E+03</pdfrwt>
<pdfrwt beam="2">  1       21 0.46104297E-02 0.33303287E+03</pdfrwt>
<totfact> 0.10029765E+05</totfact>
</mgrwt>
</event>
<event>
 8    1  0.9705063E-006  0.2595760E+03  0.7546771E-02  0.1107398E+00
         21   -1    0    0  504  503  0.00000000000E+00  0.00000000000E+00  0.10314104410E+03  0.10314104410E+03  0.00000000000E+00 0. -1.
         21   -1    0    0  503  504 -0.00000000000E+00 -0.00000000000E+00 -0.16331929786E+03  0.16331929786E+03  0.00000000000E+00 0. -1.
         25    2    1    2    0    0  0.93217700767E+01  0.33655522300E+02 -0.30641820283E+02  0.13335361922E+03  0.12499870811E+03 0.  0.
         25    2    1    2    0    0 -0.93217700767E+01 -0.33655522300E+02 -0.29536433480E+02  0.13310672274E+03  0.12500163662E+03 0.  0.
          5    1    3    3  501    0 -0.20557802512E+02  0.69558326384E+02  0.72203091212E+01  0.73042500487E+02  0.47000000000E+01 0.  1.
         -5    1    3    3    0  501  0.29879572589E+02 -0.35902804085E+02 -0.37862129404E+02  0.60311118729E+02  0.47000000000E+01 0.  1.
          5    1    4    4  502    0  0.20821343053E+02 -0.75213028837E+02 -0.15954618641E+02  0.79794535460E+02  0.47000000000E+01 0. -1.
         -5    1    4    4    0  502 -0.30143113130E+02  0.41557506537E+02 -0.13581814838E+02  0.53312187284E+02  0.47000000000E+01 0. -1.
<mgrwt>
<rscale>  0 0.25957598E+03</rscale>
<asrwt>0</asrwt>
<pdfrwt beam="1">  1       21 0.15867853E-01 0.25957598E+03</pdfrwt>
<pdfrwt beam="2">  1       21 0.25126046E-01 0.25957598E+03</pdfrwt>
<totfact> 0.52445676E+05</totfact>
</mgrwt>
</event>
<event>
 8    1  0.9705063E-006  0.2805670E+03  0.7546771E-02  0.1095380E+00
         21   -1    0    0  504  503  0.00000000000E+00  0.00000000000E+00  0.44002761096E+03  0.44002761096E+03  0.00000000000E+00 0.  1.
         21   -1    0    0  503  504 -0.00000000000E+00 -0.00000000000E+00 -0.44723251460E+02  0.44723251460E+02  0.00000000000E+00 0.  1.
         25    2    1    2    0    0 -0.44958355615E+01  0.63494992692E+02  0.19444885014E+03  0.23976344355E+03  0.12499730760E+03 0.  0.
         25    2    1    2    0    0  0.44958355615E+01 -0.63494992692E+02  0.20085550937E+03  0.24498741888E+03  0.12499629247E+03 0.  0.
          5    1    3    3  501    0  0.16220646190E+02 -0.16034311002E+02 -0.51555939749E+01  0.23851176939E+02  0.47000000000E+01 0. -1.
         -5    1    3    3    0  501 -0.20716481752E+02  0.79529303694E+02  0.19960444411E+03  0.21591226661E+03  0.47000000000E+01 0. -1.
          5    1    4    4  502    0 -0.23705643513E+01 -0.24421637771E+02 -0.12492145973E+02  0.27931696651E+02  0.47000000000E+01 0.  1.
         -5    1    4    4    0  502  0.68663999127E+01 -0.39073354921E+02  0.21334765534E+03  0.21705572223E+03  0.47000000000E+01 0.  1.
<mgrwt>
<rscale>  0 0.28056704E+03</rscale>
<asrwt>0</asrwt>
<pdfrwt beam="1">  1       21 0.67696553E-01 0.28056704E+03</pdfrwt>
<pdfrwt beam="2">  1       21 0.68805005E-02 0.28056704E+03</pdfrwt>
<totfact> 0.30403098E+05</totfact>
</mgrwt>
</event>
<event>
 8    1  0.9705063E-006  0.4248055E+03  0.7546771E-02  0.1035514E+00
         21   -1    0    0  504  503  0.00000000000E+00  0.00000000000E+00  0.18367837722E+03  0.18367837722E+03  0.00000000000E+00 0. -1.
         21   -1    0    0  503  504 -0.00000000000E+00 -0.00000000000E+00 -0.24561915773E+03  0.24561915773E+03  0.00000000000E+00 0. -1.
         25    2    1    2    0    0 -0.14188227275E+02 -0.17100835036E+03 -0.24081604043E+02  0.21364916746E+03  0.12498352458E+03 0.  0.
         25    2    1    2    0    0  0.14188227275E+02  0.17100835036E+03 -0.37859176471E+02  0.21564836748E+03  0.12500295784E+03 0.  0.
          5    1    3    3  501    0 -0.52339291887E+02 -0.80828245686E+02  0.30915863237E+02  0.10124469060E+03  0.47000000000E+01 0. -1.
         -5    1    3    3    0  501  0.38151064612E+02 -0.90180104679E+02 -0.54997467280E+02  0.11240447686E+03  0.47000000000E+01 0. -1.
          5    1    4    4  502    0  0.33439304294E+02  0.10124753059E+03 -0.78524343899E+02  0.13250438524E+03  0.47000000000E+01 0. -1.
         -5    1    4    4    0  502 -0.19251077019E+02  0.69760819772E+02  0.40665167428E+02  0.83143982245E+02  0.47000000000E+01 0. -1.
<mgrwt>
<rscale>  0 0.42480550E+03</rscale>
<asrwt>0</asrwt>
<pdfrwt beam="1">  1       21 0.28258212E-01 0.42480550E+03</pdfrwt>
<pdfrwt beam="2">  1       21 0.37787563E-01 0.42480550E+03</pdfrwt>
<totfact> 0.75427966E+04</totfact>
</mgrwt>
</event>
<event>
 8    1  0.9705063E-006  0.3349683E+03  0.7546771E-02  0.1068959E+00
         21   -1    0    0  504  503  0.00000000000E+00  0.00000000000E+00  0.56234228229E+02  0.56234228229E+02  0.00000000000E+00 0.  1.
         21   -1    0    0  503  504 -0.00000000000E+00 -0.00000000000E+00 -0.49882334376E+03  0.49882334376E+03  0.00000000000E+00 0.  1.
         25    2    1    2    0    0 -0.65827070904E+02  0.48165384080E+02 -0.34721812686E+03  0.37793541512E+03  0.12498657085E+03 0.  0.
         25    2    1    2    0    0  0.65827070904E+02 -0.48165384080E+02 -0.95370988675E+02  0.17712215688E+03  0.12499410181E+03 0.  0.
          5    1    3    3  501    0 -0.40943204686E+02  0.77028126170E+02 -0.12546834475E+03  0.15288581938E+03  0.47000000000E+01 0.  1.
         -5    1    3    3    0  501 -0.24883866218E+02 -0.28862742090E+02 -0.22174978211E+03  0.22504959574E+03  0.47000000000E+01 0.  1.
          5    1    4    4  502    0  0.42192342983E+02 -0.78109380226E+02 -0.10491833005E+03  0.13751805360E+03  0.47000000000E+01 0. -1.
         -5    1    4    4    0  502  0.23634727921E+02  0.29943996147E+02  0.95473413713E+01  0.39604103277E+02  0.47000000000E+01 0. -1.
<mgrwt>
<rscale>  0 0.33496833E+03</rscale>
<asrwt>0</asrwt>
<pdfrwt beam="1">  1       21 0.86514196E-02 0.33496833E+03</pdfrwt>
<pdfrwt beam="2">  1       21 0.76742054E-01 0.33496833E+03</pdfrwt>
<totfact> 0.15166721E+05</totfact>
</mgrwt>
</event>
<event>
 8    1  0.9705063E-006  0.2616166E+03  0.7546771E-02  0.1106176E+00
         21   -1    0    0  504  503  0.00000000000E+00  0.00000000000E+00  0.10703275388E+03  0.10703275388E+03  0.00000000000E+00 0.  1.
         21   -1    0    0  503  504 -0.00000000000E+00 -0.00000000000E+00 -0.15986513330E+03  0.15986513330E+03  0.00000000000E+00 0.  1.
         25    2    1    2    0    0  0.23768388445E+01 -0.38494937341E+02 -0.27248676465E+02  0.13361772746E+03  0.12499478853E+03 0.  0.
         25    2    1    2    0    0 -0.23768388445E+01  0.38494937341E+02 -0.25583702963E+02  0.13328015972E+03  0.12498626146E+03 0.  0.
          5    1    3    3  501    0  0.60488400919E+02 -0.38815708307E+02 -0.93461948604E+01  0.72628831847E+02  0.47000000000E+01 0. -1.
         -5    1    3    3    0  501 -0.58111562074E+02  0.32077096583E+00 -0.17902481604E+02  0.60988895615E+02  0.47000000000E+01 0. -1.
          5    1    4    4  502    0 -0.41815078049E+02  0.60716397909E+02 -0.41906213934E+02  0.84930574552E+02  0.47000000000E+01 0.  1.
         -5    1    4    4    0  502  0.39438239205E+02 -0.22221460569E+02  0.16322510971E+02  0.48349585167E+02  0.47000000000E+01 0.  1.
<mgrwt>
<rscale>  0 0.26161656E+03</rscale>
<asrwt>0</asrwt>
<pdfrwt beam="1">  1       21 0.16466578E-01 0.26161656E+03</pdfrwt>
<pdfrwt beam="2">  1       21 0.24594636E-01 0.26161656E+03</pdfrwt>
<totfact> 0.51018152E+05</totfact>
</mgrwt>
</event>
<event>
 8    1  0.9705063E-006  0.3605465E+03  0.7546771E-02  0.1058368E+00
         21   -1    0    0  504  503  0.00000000000E+00  0.00000000000E+00  0.21986112072E+03  0.21986112072E+03  0.00000000000E+00 0.  1.
         21   -1    0    0  503  504 -0.00000000000E+00 -0.00000000000E+00 -0.14781354576E+03  0.14781354576E+03  0.00000000000E+00 0.  1.
         25    2    1    2    0    0  0.71431938472E+02  0.95147364442E+02 -0.17139852709E+02  0.17341813269E+03  0.12499812559E+03 0.  0.
         25    2    1    2    0    0 -0.71431938472E+02 -0.95147364442E+02  0.89187427671E+02  0.19425653378E+03  0.12500264345E+03 0.  0.
          5    1    3    3  501    0  0.44653512650E+02  0.14954457661E+02  0.47376566039E+02  0.66964177032E+02  0.47000000000E+01 0. -1.
         -5    1    3    3    0  501  0.26778425822E+02  0.80192906781E+02 -0.64516418747E+02  0.10645395566E+03  0.47000000000E+01 0. -1.
          5    1    4    4  502    0 -0.45131258684E+02 -0.30757343447E+02 -0.25174609162E+02  0.60321601709E+02  0.47000000000E+01 0. -1.
         -5    1    4    4    0  502 -0.26300679788E+02 -0.64390020995E+02  0.11436203683E+03  0.13393493207E+03  0.47000000000E+01 0. -1.
<mgrwt>
<rscale>  0 0.36054654E+03</rscale>
<asrwt>0</asrwt>
<pdfrwt beam="1">  1       21 0.33824788E-01 0.36054654E+03</pdfrwt>
<pdfrwt beam="2">  1       21 0.22740545E-01 0.36054654E+03</pdfrwt>
<totfact> 0.14589301E+05</totfact>
</mgrwt>
</event>
<event>
 8    1  0.9705063E-006  0.3672420E+03  0.7546771E-02  0.1055753E+00
         21   -1    0    0  504  503  0.00000000000E+00  0.00000000000E+00  0.44228770492E+03  0.44228770492E+03  0.00000000000E+00 0. -1.
         21   -1    0    0  503  504 -0.00000000000E+00 -0.00000000000E+00 -0.76232428025E+02  0.76232428025E+02  0.00000000000E+00 0. -1.
         25    2    1    2    0    0 -0.47072541246E+02  0.11647053323E+03  0.11520970759E+03  0.21138292930E+03  0.12501302662E+03 0.  0.
         25    2    1    2    0    0  0.47072541246E+02 -0.11647053323E+03  0.25084556931E+03  0.30713720365E+03  0.12501421109E+03 0.  0.
          5    1    3    3  501    0 -0.81216897164E+01  0.11156688237E+03  0.27671608326E+02  0.11532969692E+03  0.47000000000E+01 0. -1.
         -5    1    3    3    0  501 -0.38950851530E+02  0.49036508650E+01  0.87538099265E+02  0.96053232375E+02  0.47000000000E+01 0. -1.
          5    1    4    4  502    0 -0.23235130330E+02  0.10388467715E+02  0.73870239963E+02  0.78273200364E+02  0.47000000000E+01 0. -1.
         -5    1    4    4    0  502  0.70307671577E+02 -0.12685900095E+03  0.17697532934E+03  0.22886400329E+03  0.47000000000E+01 0. -1.
<mgrwt>
<rscale>  0 0.36724197E+03</rscale>
<asrwt>0</asrwt>
<pdfrwt beam="1">  1       21 0.68044261E-01 0.36724197E+03</pdfrwt>
<pdfrwt beam="2">  1       21 0.11728066E-01 0.36724197E+03</pdfrwt>
<totfact> 0.11447597E+05</totfact>
</mgrwt>
</event>
<event>
 8    1  0.9705063E-006  0.3264848E+03  0.7546771E-02  0.1072703E+00
         21   -1    0    0  504  503  0.00000000000E+00  0.00000000000E+00  0.30847333212E+02  0.30847333212E+02  0.00000000000E+00 0.  1.
         21   -1    0    0  503  504 -0.00000000000E+00 -0.00000000000E+00 -0.86386992356E+03  0.86386992356E+03  0.00000000000E+00 0.  1.
         25    2    1    2    0    0 -0.38825000416E+02  0.30176511732E+02 -0.16228679564E+03  0.21066515508E+03  0.12499920403E+03 0.  0.
         25    2    1    2    0    0  0.38825000416E+02 -0.30176511732E+02 -0.67073579471E+03  0.68405210170E+03  0.12499107571E+03 0.  0.
          5    1    3    3  501    0 -0.50203154210E+02 -0.14001926844E+02 -0.12208473615E+02  0.53735904905E+02  0.47000000000E+01 0. -1.
         -5    1    3    3    0  501  0.11378153795E+02  0.44178438575E+02 -0.15007832202E+03  0.15692925017E+03  0.47000000000E+01 0. -1.
          5    1    4    4  502    0  0.57579191447E+02  0.28238468311E+02 -0.46143942225E+03  0.46589827729E+03  0.47000000000E+01 0. -1.
         -5    1    4    4    0  502 -0.18754191031E+02 -0.58414980042E+02 -0.20929637246E+03  0.21815382440E+03  0.47000000000E+01 0. -1.
<mgrwt>
<rscale>  0 0.32648481E+03</rscale>
<asrwt>0</asrwt>
<pdfrwt beam="1">  1       21 0.47457440E-02 0.32648481E+03</pdfrwt>
<pdfrwt beam="2">  1       21 0.13290305E+00 0.32648481E+03</pdfrwt>
<totfact> 0.11444822E+05</totfact>
</mgrwt>
</event>
<event>
 8    1  0.9705063E-006  0.2878329E+03  0.7546771E-02  0.1091486E+00
         21   -1    0    0  504  503  0.00000000000E+00  0.00000000000E+00  0.33754277232E+02  0.33754277232E+02  0.00000000000E+00 0.  1.
         21   -1    0    0  503  504 -0.00000000000E+00 -0.00000000000E+00 -0.61360949436E+03  0.61360949436E+03  0.00000000000E+00 0.  1.
         25    2    1    2    0    0 -0.50166098977E+02 -0.44196334237E+02 -0.34575358836E+03  0.37368641655E+03  0.12500416236E+03 0.  0.
         25    2    1    2    0    0  0.50166098977E+02  0.44196334237E+02 -0.23410162877E+03  0.27367735504E+03  0.12500307445E+03 0.  0.
          5    1    3    3  501    0 -0.10363742136E+02  0.66859542378E+01  0.70658501498E+01  0.14970817395E+02  0.47000000000E+01 0. -1.
         -5    1    3    3    0  501 -0.39802356841E+02 -0.50882288474E+02 -0.35281943851E+03  0.35871559916E+03  0.47000000000E+01 0. -1.
          5    1    4    4  502    0  0.75168443441E+02  0.52789544400E+02 -0.22840485710E+03  0.24622733324E+03  0.47000000000E+01 0. -1.
         -5    1    4    4    0  502 -0.25002344464E+02 -0.85932101639E+01 -0.56967716780E+01  0.27450021806E+02  0.47000000000E+01 0. -1.
<mgrwt>
<rscale>  0 0.28783290E+03</rscale>
<asrwt>0</asrwt>
<pdfrwt beam="1">  1       21 0.51929659E-02 0.28783290E+03</pdfrwt>
<pdfrwt beam="2">  1       21 0.94401458E-01 0.28783290E+03</pdfrwt>
<totfact> 0.23072608E+05</totfact>
</mgrwt>
</event>
<event>
 8    1  0.9705063E-006  0.2884138E+03  0.7546771E-02  0.1091180E+00
         21   -1    0    0  504  503  0.00000000000E+00  0.00000000000E+00  0.81605404825E+03  0.81605404825E+03  0.00000000000E+00 0.  1.
         21   -1    0    0  503  504 -0.00000000000E+00 -0.00000000000E+00 -0.25483154263E+02  0.25483154263E+02  0.00000000000E+00 0.  1.
         25    2    1    2    0    0 -0.49778560778E+02 -0.34704413485E+00  0.54671481895E+03  0.56302527629E+03  0.12498937128E+03 0.  0.
         25    2    1    2    0    0  0.49778560778E+02  0.34704413485E+00  0.24385607504E+03  0.27851192622E+03  0.12500032865E+03 0.  0.
          5    1    3    3  501    0 -0.27270477455E+02  0.26940366870E+02  0.51128071117E+03  0.51273727963E+03  0.47000000000E+01 0. -1.
         -5    1    3    3    0  501 -0.22508083323E+02 -0.27287411005E+02  0.35434107779E+02  0.50287996663E+02  0.47000000000E+01 0. -1.
          5    1    4    4  502    0  0.80324160045E+02 -0.34426718447E+02  0.17045384991E+03  0.19160838859E+03  0.47000000000E+01 0. -1.
         -5    1    4    4    0  502 -0.30545599267E+02  0.34773762582E+02  0.73402225131E+02  0.86903537631E+02  0.47000000000E+01 0. -1.
<mgrwt>
<rscale>  0 0.28841381E+03</rscale>
<asrwt>0</asrwt>
<pdfrwt beam="1">  1       21 0.12554676E+00 0.28841381E+03</pdfrwt>
<pdfrwt beam="2">  1       21 0.39204859E-02 0.28841381E+03</pdfrwt>
<totfact> 0.18518076E+05</totfact>
</mgrwt>
</event>
<event>
 8    1  0.9705063E-006  0.2808613E+03  0.7546771E-02  0.1095219E+00
         21   -1    0    0  504  503  0.00000000000E+00  0.00000000000E+00  0.34585520422E+03  0.34585520422E+03  0.00000000000E+00 0.  1.
         21   -1    0    0  503  504 -0.00000000000E+00 -0.00000000000E+00 -0.57020309233E+02  0.57020309233E+02  0.00000000000E+00 0.  1.
         25    2    1    2    0    0  0.56657182664E+02  0.24286389639E+02  0.11973687541E+03  0.18374660278E+03  0.12500411845E+03 0.  0.
         25    2    1    2    0    0 -0.56657182664E+02 -0.24286389639E+02  0.16909801957E+03  0.21912891067E+03  0.12499389665E+03 0.  0.
          5    1    3    3  501    0  0.37029802861E+02  0.40399662149E+02 -0.60502837417E+01  0.55335656995E+02  0.47000000000E+01 0.  1.
         -5    1    3    3    0  501  0.19627379803E+02 -0.16113272510E+02  0.12578715915E+03  0.12841094578E+03  0.47000000000E+01 0.  1.
          5    1    4    4  502    0  0.23881881581E+02  0.32421942998E+02  0.54882956148E+02  0.68233097036E+02  0.47000000000E+01 0.  1.
         -5    1    4    4    0  502 -0.80539064245E+02 -0.56708332637E+02  0.11421506342E+03  0.15089581364E+03  0.47000000000E+01 0.  1.
<mgrwt>
<rscale>  0 0.28086132E+03</rscale>
<asrwt>0</asrwt>
<pdfrwt beam="1">  1       21 0.53208492E-01 0.28086132E+03</pdfrwt>
<pdfrwt beam="2">  1       21 0.87723555E-02 0.28086132E+03</pdfrwt>
<totfact> 0.33477710E+05</totfact>
</mgrwt>
</event>
<event>
 8    1  0.9705063E-006  0.2939180E+03  0.7546771E-02  0.1088321E+00
         21   -1    0    0  504  503  0.00000000000E+00  0.00000000000E+00  0.28395433166E+02  0.28395433166E+02  0.00000000000E+00 0. -1.
         21   -1    0    0  503  504 -0.00000000000E+00 -0.00000000000E+00 -0.76057839840E+03  0.76057839840E+03  0.00000000000E+00 0. -1.
         25    2    1    2    0    0 -0.30501575622E+02  0.36745446036E+02 -0.20298189772E+03  0.24311796734E+03  0.12499648523E+03 0.  0.
         25    2    1    2    0    0  0.30501575622E+02 -0.36745446036E+02 -0.52920106751E+03  0.54585586423E+03  0.12499712292E+03 0.  0.
          5    1    3    3  501    0 -0.54465924024E+02 -0.11568055480E+02 -0.33388430110E+02  0.65094040070E+02  0.47000000000E+01 0.  1.
         -5    1    3    3    0  501  0.23964348403E+02  0.48313501516E+02 -0.16959346761E+03  0.17802392727E+03  0.47000000000E+01 0.  1.
          5    1    4    4  502    0 -0.14701472633E+02 -0.45713479590E+02 -0.74230168188E+02  0.88532837879E+02  0.47000000000E+01 0. -1.
         -5    1    4    4    0  502  0.45203048254E+02  0.89680335539E+01 -0.45497089932E+03  0.45732302635E+03  0.47000000000E+01 0. -1.
<mgrwt>
<rscale>  0 0.29391804E+03</rscale>
<asrwt>0</asrwt>
<pdfrwt beam="1">  1       21 0.43685273E-02 0.29391804E+03</pdfrwt>
<pdfrwt beam="2">  1       21 0.11701208E+00 0.29391804E+03</pdfrwt>
<totfact> 0.18376145E+05</totfact>
</mgrwt>
</event>
<event>
 8    1  0.9705063E-006  0.2770586E+03  0.7546771E-02  0.1097306E+00
         21   -1    0    0  504  503  0.00000000000E+00  0.00000000000E+00  0.10131675328E+03  0.10131675328E+03  0.00000000000E+00 0.  1.
         21   -1    0    0  503  504 -0.00000000000E+00 -0.00000000000E+00 -0.18940960965E+03  0.18940960965E+03  0.00000000000E+00 0.  1.
         25    2    1    2    0    0  0.11198273652E+02  0.32330324299E+02  0.72970710794E+01  0.12980516360E+03  0.12500192818E+03 0.  0.
         25    2    1    2    0    0 -0.11198273652E+02 -0.32330324299E+02 -0.95389927455E+02  0.16092119934E+03  0.12500297170E+03 0.  0.
          5    1    3    3  501    0 -0.29625263180E+02  0.64746379805E+02  0.23314507996E+02  0.75069342606E+02  0.47000000000E+01 0. -1.
         -5    1    3    3    0  501  0.40823536832E+02 -0.32416055506E+02 -0.16017436916E+02  0.54735820989E+02  0.47000000000E+01 0. -1.
          5    1    4    4  502    0  0.34554584699E+02  0.11757285471E+02  0.96716585749E+01  0.38051071798E+02  0.47000000000E+01 0.  1.
         -5    1    4    4    0  502 -0.45752858351E+02 -0.44087609769E+02 -0.10506158603E+03  0.12287012754E+03  0.47000000000E+01 0.  1.
<mgrwt>
<rscale>  0 0.27705860E+03</rscale>
<asrwt>0</asrwt>
<pdfrwt beam="1">  1       21 0.15587193E-01 0.27705860E+03</pdfrwt>
<pdfrwt beam="2">  1       21 0.29139940E-01 0.27705860E+03</pdfrwt>
<totfact> 0.40524616E+05</totfact>
</mgrwt>
</event>
<event>
 8    1  0.9705063E-006  0.3474771E+03  0.7546771E-02  0.1063655E+00
         21   -1    0    0  504  503  0.00000000000E+00  0.00000000000E+00  0.39067765511E+03  0.39067765511E+03  0.00000000000E+00 0.  1.
         21   -1    0    0  503  504 -0.00000000000E+00 -0.00000000000E+00 -0.77263388466E+02  0.77263388466E+02  0.00000000000E+00 0.  1.
         25    2    1    2    0    0  0.10994989157E+03  0.47064285373E+02  0.17811200877E+03  0.24830604942E+03  0.12501192301E+03 0.  0.
         25    2    1    2    0    0 -0.10994989157E+03 -0.47064285373E+02  0.13530225787E+03  0.21963499416E+03  0.12501521531E+03 0.  0.
          5    1    3    3  501    0  0.97131613118E+02  0.87198188830E+02  0.13401237471E+03  0.18713492720E+03  0.47000000000E+01 0. -1.
         -5    1    3    3    0  501  0.12818278450E+02 -0.40133903457E+02  0.44099634067E+02  0.61171122223E+02  0.47000000000E+01 0. -1.
          5    1    4    4  502    0 -0.10244789201E+03 -0.25112745949E+02  0.15587853968E+03  0.18827222238E+03  0.47000000000E+01 0.  1.
         -5    1    4    4    0  502 -0.75019995627E+01 -0.21951539424E+02 -0.20576281812E+02  0.31362771780E+02  0.47000000000E+01 0.  1.
<mgrwt>
<rscale>  0 0.34747708E+03</rscale>
<asrwt>0</asrwt>
<pdfrwt beam="1">  1       21 0.60104254E-01 0.34747708E+03</pdfrwt>
<pdfrwt beam="2">  1       21 0.11886675E-01 0.34747708E+03</pdfrwt>
<totfact> 0.14750711E+05</totfact>
</mgrwt>
</event>
<event>
 8    1  0.9705063E-006  0.2534675E+03  0.7546771E-02  0.1111133E+00
         21   -1    0    0  504  503  0.00000000000E+00  0.00000000000E+00  0.41147389331E+03  0.41147389331E+03  0.00000000000E+00 0. -1.
         21   -1    0    0  503  504 -0.00000000000E+00 -0.00000000000E+00 -0.39033941914E+02  0.39033941914E+02  0.00000000000E+00 0. -1.
         25    2    1    2    0    0  0.11490199979E+02 -0.15801800741E+02  0.17319789372E+03  0.21449059074E+03  0.12500792584E+03 0.  0.
         25    2    1    2    0    0 -0.11490199979E+02  0.15801800741E+02  0.19924205767E+03  0.23601724448E+03  0.12500008219E+03 0.  0.
          5    1    3    3  501    0  0.31460505509E+02 -0.24211665040E+02  0.97431555623E-01  0.39975838000E+02  0.47000000000E+01 0. -1.
         -5    1    3    3    0  501 -0.19970305530E+02  0.84098642995E+01  0.17310046217E+03  0.17451475274E+03  0.47000000000E+01 0. -1.
          5    1    4    4  502    0 -0.42045762936E+02 -0.76485607587E+01  0.11775326684E+02  0.44576843553E+02  0.47000000000E+01 0. -1.
         -5    1    4    4    0  502  0.30555562957E+02  0.23450361500E+02  0.18746673099E+03  0.19144040093E+03  0.47000000000E+01 0. -1.
<mgrwt>
<rscale>  0 0.25346754E+03</rscale>
<asrwt>0</asrwt>
<pdfrwt beam="1">  1       21 0.63303673E-01 0.25346754E+03</pdfrwt>
<pdfrwt beam="2">  1       21 0.60052221E-02 0.25346754E+03</pdfrwt>
<totfact> 0.44841317E+05</totfact>
</mgrwt>
</event>
<event>
 8    1  0.9705063E-006  0.3959110E+03  0.7546771E-02  0.1045205E+00
         21   -1    0    0  504  503  0.00000000000E+00  0.00000000000E+00  0.14486803928E+04  0.14486803928E+04  0.00000000000E+00 0.  1.
         21   -1    0    0  503  504 -0.00000000000E+00 -0.00000000000E+00 -0.27049710112E+02  0.27049710112E+02  0.00000000000E+00 0.  1.
         25    2    1    2    0    0 -0.13944253939E+03 -0.57611561983E+02  0.81588376138E+03  0.83908232372E+03  0.12501807880E+03 0.  0.
         25    2    1    2    0    0  0.13944253939E+03  0.57611561983E+02  0.60574692131E+03  0.63664777919E+03  0.12501099236E+03 0.  0.
          5    1    3    3  501    0 -0.61625012564E+02  0.32290922965E+02  0.19998458671E+03  0.21179299044E+03  0.47000000000E+01 0. -1.
         -5    1    3    3    0  501 -0.77817526829E+02 -0.89902484948E+02  0.61589917468E+03  0.62728933328E+03  0.47000000000E+01 0. -1.
          5    1    4    4  502    0  0.98214912295E+01 -0.31682165918E+02  0.60960066857E+02  0.69558903661E+02  0.47000000000E+01 0. -1.
         -5    1    4    4    0  502  0.12962104816E+03  0.89293727902E+02  0.54478685445E+03  0.56708887553E+03  0.47000000000E+01 0. -1.
<mgrwt>
<rscale>  0 0.39591102E+03</rscale>
<asrwt>0</asrwt>
<pdfrwt beam="1">  1       21 0.22287385E+00 0.39591102E+03</pdfrwt>
<pdfrwt beam="2">  1       21 0.41614950E-02 0.39591102E+03</pdfrwt>
<totfact> 0.31835707E+04</totfact>
</mgrwt>
</event>
<event>
 8    1  0.9705063E-006  0.3222191E+03  0.7546771E-02  0.1074632E+00
         21   -1    0    0  504  503  0.00000000000E+00  0.00000000000E+00  0.91646319819E+02  0.91646319819E+02  0.00000000000E+00 0.  1.
         21   -1    0    0  503  504 -0.00000000000E+00 -0.00000000000E+00 -0.28322244721E+03  0.28322244721E+03  0.00000000000E+00 0.  1.
         25    2    1    2    0    0  0.57881050484E+02  0.32878544306E+02 -0.64282533714E+01  0.14176840154E+03  0.12500297018E+03 0.  0.
         25    2    1    2    0    0 -0.57881050484E+02 -0.32878544306E+02 -0.18514787402E+03  0.23310036549E+03  0.12499932182E+03 0.  0.
          5    1    3    3  501    0  0.49764670659E+02 -0.32641504575E+02  0.29355262715E+02  0.66526774428E+02  0.47000000000E+01 0.  1.
         -5    1    3    3    0  501  0.81163798249E+01  0.65520048881E+02 -0.35783516087E+02  0.75241627111E+02  0.47000000000E+01 0.  1.
          5    1    4    4  502    0  0.77773691927E+01  0.34665915975E+02 -0.99285991216E+02  0.10555572582E+03  0.47000000000E+01 0. -1.
         -5    1    4    4    0  502 -0.65658419677E+02 -0.67544460281E+02 -0.85861882800E+02  0.12754463966E+03  0.47000000000E+01 0. -1.
<mgrwt>
<rscale>  0 0.32221915E+03</rscale>
<asrwt>0</asrwt>
<pdfrwt beam="1">  1       21 0.14099434E-01 0.32221915E+03</pdfrwt>
<pdfrwt beam="2">  1       21 0.43572684E-01 0.32221915E+03</pdfrwt>
<totfact> 0.21500297E+05</totfact>
</mgrwt>
</event>
<event>
 8    1  0.9705063E-006  0.3996044E+03  0.7546771E-02  0.1043917E+00
         21   -1    0    0  504  503  0.00000000000E+00  0.00000000000E+00  0.23026915142E+03  0.23026915142E+03  0.00000000000E+00 0.  1.
         21   -1    0    0  503  504 -0.00000000000E+00 -0.00000000000E+00 -0.17336635277E+03  0.17336635277E+03  0.00000000000E+00 0.  1.
         25    2    1    2    0    0  0.41742814850E+02 -0.14219497182E+03  0.77252417638E+02  0.20869591702E+03  0.12499670854E+03 0.  0.
         25    2    1    2    0    0 -0.41742814850E+02  0.14219497182E+03 -0.20349618988E+02  0.19493958717E+03  0.12500185218E+03 0.  0.
          5    1    3    3  501    0 -0.22292065494E+01 -0.14763934958E+03  0.47744768778E+02  0.15525462908E+03  0.47000000000E+01 0. -1.
         -5    1    3    3    0  501  0.43972021399E+02  0.54443777531E+01  0.29507648860E+02  0.53441287937E+02  0.47000000000E+01 0. -1.
          5    1    4    4  502    0 -0.75816727955E+02  0.46020450862E+02  0.73238733779E+01  0.89116705822E+02  0.47000000000E+01 0. -1.
         -5    1    4    4    0  502  0.34073913105E+02  0.96174520963E+02 -0.27673492366E+02  0.10582288135E+03  0.47000000000E+01 0. -1.
<mgrwt>
<rscale>  0 0.39960442E+03</rscale>
<asrwt>0</asrwt>
<pdfrwt beam="1">  1       21 0.35426024E-01 0.39960442E+03</pdfrwt>
<pdfrwt beam="2">  1       21 0.26671746E-01 0.39960442E+03</pdfrwt>
<totfact> 0.96827202E+04</totfact>
</mgrwt>
</event>
<event>
 8    1  0.9705063E-006  0.7574494E+03  0.7546771E-02  0.9623735E-01
         21   -1    0    0  504  503  0.00000000000E+00  0.00000000000E+00  0.60656928477E+03  0.60656928477E+03  0.00000000000E+00 0.  1.
         21   -1    0    0  503  504 -0.00000000000E+00 -0.00000000000E+00 -0.23646500233E+03  0.23646500233E+03  0.00000000000E+00 0.  1.
         25    2    1    2    0    0 -0.61718692473E+02 -0.25975437509E+03  0.44966779115E+03  0.53768807113E+03  0.12500322820E+03 0.  0.
         25    2    1    2    0    0  0.61718692473E+02  0.25975437509E+03 -0.79563508717E+02  0.30534621597E+03  0.12499770922E+03 0.  0.
          5    1    3    3  501    0 -0.67391831288E+01 -0.18564546819E+03  0.20778270942E+03  0.27875688473E+03  0.47000000000E+01 0.  1.
         -5    1    3    3    0  501 -0.54979509344E+02 -0.74108906900E+02  0.24188508173E+03  0.25893118640E+03  0.47000000000E+01 0.  1.
          5    1    4    4  502    0  0.28250546740E+02  0.25889726905E+03 -0.64552846616E+02  0.26835619858E+03  0.47000000000E+01 0.  1.
         -5    1    4    4    0  502  0.33468145733E+02  0.85710604052E+00 -0.15010662101E+02  0.36990017387E+02  0.47000000000E+01 0.  1.
<mgrwt>
<rscale>  0 0.75744942E+03</rscale>
<asrwt>0</asrwt>
<pdfrwt beam="1">  1       21 0.93318351E-01 0.75744942E+03</pdfrwt>
<pdfrwt beam="2">  1       21 0.36379231E-01 0.75744942E+03</pdfrwt>
<totfact> 0.57656365E+03</totfact>
</mgrwt>
</event>
<event>
 8    1  0.9705063E-006  0.4979574E+03  0.7546771E-02  0.1014313E+00
         21   -1    0    0  504  503  0.00000000000E+00  0.00000000000E+00  0.45140810078E+03  0.45140810078E+03  0.00000000000E+00 0.  1.
         21   -1    0    0  503  504 -0.00000000000E+00 -0.00000000000E+00 -0.13732673512E+03  0.13732673512E+03  0.00000000000E+00 0.  1.
         25    2    1    2    0    0 -0.13667305937E+03  0.34863110509E+02 -0.35317358069E+02  0.19174634244E+03  0.12499752968E+03 0.  0.
         25    2    1    2    0    0  0.13667305937E+03 -0.34863110509E+02  0.34939872373E+03  0.39698849345E+03  0.12500173662E+03 0.  0.
          5    1    3    3  501    0 -0.46713480291E+01  0.54130585595E+02 -0.42811538434E+01  0.54702468569E+02  0.47000000000E+01 0. -1.
         -5    1    3    3    0  501 -0.13200171134E+03 -0.19267475086E+02 -0.31036204226E+02  0.13704387387E+03  0.47000000000E+01 0. -1.
          5    1    4    4  502    0  0.90194964740E+02  0.36919074822E+01  0.79507440067E+02  0.12038390620E+03  0.47000000000E+01 0.  1.
         -5    1    4    4    0  502  0.46478094631E+02 -0.38555017991E+02  0.26989128367E+03  0.27660458726E+03  0.47000000000E+01 0.  1.
<mgrwt>
<rscale>  0 0.49795743E+03</rscale>
<asrwt>0</asrwt>
<pdfrwt beam="1">  1       21 0.69447399E-01 0.49795743E+03</pdfrwt>
<pdfrwt beam="2">  1       21 0.21127190E-01 0.49795743E+03</pdfrwt>
<totfact> 0.35523430E+04</totfact>
</mgrwt>
</event>
<event>
 8    1  0.9705063E-006  0.3364351E+03  0.7546771E-02  0.1068324E+00
         21   -1    0    0  504  503  0.00000000000E+00  0.00000000000E+00  0.62134460941E+03  0.62134460941E+03  0.00000000000E+00 0.  1.
         21   -1    0    0  503  504 -0.00000000000E+00 -0.00000000000E+00 -0.45541791564E+02  0.45541791564E+02  0.00000000000E+00 0.  1.
         25    2    1    2    0    0  0.84766795906E+02 -0.43331038024E+02  0.16886249434E+03  0.23066550232E+03  0.12501617263E+03 0.  0.
         25    2    1    2    0    0 -0.84766795906E+02  0.43331038024E+02  0.40694032350E+03  0.43622089865E+03  0.12500102795E+03 0.  0.
          5    1    3    3  501    0  0.11486686701E+03 -0.43600552435E+02  0.11278780503E+03  0.16684898643E+03  0.47000000000E+01 0. -1.
         -5    1    3    3    0  501 -0.30100071101E+02  0.26951441107E+00  0.56074689317E+02  0.63816515890E+02  0.47000000000E+01 0. -1.
          5    1    4    4  502    0 -0.20747769806E+02  0.42095022124E+02  0.34879313609E+02  0.58661037814E+02  0.47000000000E+01 0. -1.
         -5    1    4    4    0  502 -0.64019026100E+02  0.12360159002E+01  0.37206100989E+03  0.37755986084E+03  0.47000000000E+01 0. -1.
<mgrwt>
<rscale>  0 0.33643512E+03</rscale>
<asrwt>0</asrwt>
<pdfrwt beam="1">  1       21 0.95591472E-01 0.33643512E+03</pdfrwt>
<pdfrwt beam="2">  1       21 0.70064299E-02 0.33643512E+03</pdfrwt>
<totfact> 0.13180093E+05</totfact>
</mgrwt>
</event>
<event>
 8    1  0.9705063E-006  0.2785991E+03  0.7546771E-02  0.1096457E+00
         21   -1    0    0  504  503  0.00000000000E+00  0.00000000000E+00  0.24986694191E+02  0.24986694191E+02  0.00000000000E+00 0. -1.
         21   -1    0    0  503  504 -0.00000000000E+00 -0.00000000000E+00 -0.77658793022E+03  0.77658793022E+03  0.00000000000E+00 0. -1.
         25    2    1    2    0    0  0.37760670004E+01 -0.49285109387E+02 -0.48104266041E+03  0.49946593649E+03  0.12498359850E+03 0.  0.
         25    2    1    2    0    0 -0.37760670004E+01  0.49285109387E+02 -0.27055857562E+03  0.30210868792E+03  0.12499774312E+03 0.  0.
          5    1    3    3  501    0  0.29859209432E+02  0.18777259239E+02 -0.32759046164E+03  0.32951746298E+03  0.47000000000E+01 0.  1.
         -5    1    3    3    0  501 -0.26083142431E+02 -0.68062368626E+02 -0.15345219877E+03  0.16994847351E+03  0.47000000000E+01 0.  1.
          5    1    4    4  502    0  0.34373287353E+02  0.40106126223E+02 -0.25363421420E+03  0.25911856139E+03  0.47000000000E+01 0. -1.
         -5    1    4    4    0  502 -0.38149354354E+02  0.91789831642E+01 -0.16924361426E+02  0.42990126532E+02  0.47000000000E+01 0. -1.
<mgrwt>
<rscale>  0 0.27859910E+03</rscale>
<asrwt>0</asrwt>
<pdfrwt beam="1">  1       21 0.38441073E-02 0.27859910E+03</pdfrwt>
<pdfrwt beam="2">  1       21 0.11947505E+00 0.27859910E+03</pdfrwt>
<totfact> 0.21753192E+05</totfact>
</mgrwt>
</event>
<event>
 8    1  0.9705063E-006  0.2943220E+03  0.7546771E-02  0.1088114E+00
         21   -1    0    0  504  503  0.00000000000E+00  0.00000000000E+00  0.28343293372E+03  0.28343293372E+03  0.00000000000E+00 0. -1.
         21   -1    0    0  503  504 -0.00000000000E+00 -0.00000000000E+00 -0.76407369255E+02  0.76407369255E+02  0.00000000000E+00 0. -1.
         25    2    1    2    0    0 -0.27080931801E+02 -0.32703536578E+01  0.14723428439E+02  0.12885907692E+03  0.12507521849E+03 0.  0.
         25    2    1    2    0    0  0.27080931801E+02  0.32703536578E+01  0.19230213603E+03  0.23098122605E+03  0.12501257212E+03 0.  0.
          5    1    3    3  501    0 -0.46837088088E+02  0.45670449267E+02  0.32199970315E+02  0.73064566276E+02  0.47000000000E+01 0.  1.
         -5    1    3    3    0  501  0.19756156287E+02 -0.48940802925E+02 -0.17476541876E+02  0.55794510645E+02  0.47000000000E+01 0.  1.
          5    1    4    4  502    0  0.49703990793E+02  0.50769008555E+02  0.81436394924E+02  0.10817557649E+03  0.47000000000E+01 0.  1.
         -5    1    4    4    0  502 -0.22623058992E+02 -0.47498654897E+02  0.11086574110E+03  0.12280564956E+03  0.47000000000E+01 0.  1.
<mgrwt>
<rscale>  0 0.29432203E+03</rscale>
<asrwt>0</asrwt>
<pdfrwt beam="1">  1       21 0.43605066E-01 0.29432203E+03</pdfrwt>
<pdfrwt beam="2">  1       21 0.11754980E-01 0.29432203E+03</pdfrwt>
<totfact> 0.30047908E+05</totfact>
</mgrwt>
</event>
<event>
 8    1  0.9705063E-006  0.3265498E+03  0.7546771E-02  0.1072674E+00
         21   -1    0    0  504  503  0.00000000000E+00  0.00000000000E+00  0.21178926845E+03  0.21178926845E+03  0.00000000000E+00 0. -1.
         21   -1    0    0  503  504 -0.00000000000E+00 -0.00000000000E+00 -0.12587365402E+03  0.12587365402E+03  0.00000000000E+00 0. -1.
         25    2    1    2    0    0  0.95908921183E+02  0.42678872172E+02  0.39191681110E+02  0.16787873794E+03  0.12500910164E+03 0.  0.
         25    2    1    2    0    0 -0.95908921183E+02 -0.42678872172E+02  0.46723933313E+02  0.16978418453E+03  0.12499414418E+03 0.  0.
          5    1    3    3  501    0  0.29017458107E+02 -0.16573099318E+02 -0.37197611770E+02  0.50223827188E+02  0.47000000000E+01 0.  1.
         -5    1    3    3    0  501  0.66891463076E+02  0.59251971490E+02  0.76389292880E+02  0.11765491075E+03  0.47000000000E+01 0.  1.
          5    1    4    4  502    0 -0.88171470078E+02  0.81132349003E+01  0.70207671861E+02  0.11309836384E+03  0.47000000000E+01 0.  1.
         -5    1    4    4    0  502 -0.77374511048E+01 -0.50792107073E+02 -0.23483738548E+02  0.56685820684E+02  0.47000000000E+01 0.  1.
<mgrwt>
<rscale>  0 0.32654978E+03</rscale>
<asrwt>0</asrwt>
<pdfrwt beam="1">  1       21 0.32582964E-01 0.32654978E+03</pdfrwt>
<pdfrwt beam="2">  1       21 0.19365178E-01 0.32654978E+03</pdfrwt>
<totfact> 0.21488000E+05</totfact>
</mgrwt>
</event>
<event>
 8    1  0.9705063E-006  0.3626907E+03  0.7546771E-02  0.1057524E+00
         21   -1    0    0  504  503  0.00000000000E+00  0.00000000000E+00  0.53579199361E+02  0.53579199361E+02  0.00000000000E+00 0. -1.
         21   -1    0    0  503  504 -0.00000000000E+00 -0.00000000000E+00 -0.61378542939E+03  0.61378542939E+03  0.00000000000E+00 0. -1.
         25    2    1    2    0    0 -0.98130303604E+02 -0.78153910853E+02 -0.20826565988E+03  0.27337931416E+03  0.12499629618E+03 0.  0.
         25    2    1    2    0    0  0.98130303604E+02  0.78153910853E+02 -0.35194057014E+03  0.39398531458E+03  0.12499869171E+03 0.  0.
          5    1    3    3  501    0 -0.97623813851E+02 -0.32352154746E+01 -0.87708923096E+02  0.13136141306E+03  0.47000000000E+01 0. -1.
         -5    1    3    3    0  501 -0.50648975353E+00 -0.74918695379E+02 -0.12055673679E+03  0.14201790111E+03  0.47000000000E+01 0. -1.
          5    1    4    4  502    0  0.65043981138E+02  0.71131153270E+02 -0.34614954429E+03  0.35934935294E+03  0.47000000000E+01 0. -1.
         -5    1    4    4    0  502  0.33086322467E+02  0.70227575832E+01 -0.57910258502E+01  0.34635961642E+02  0.47000000000E+01 0. -1.
<mgrwt>
<rscale>  0 0.36269068E+03</rscale>
<asrwt>0</asrwt>
<pdfrwt beam="1">  1       21 0.82429535E-02 0.36269068E+03</pdfrwt>
<pdfrwt beam="2">  1       21 0.94428531E-01 0.36269068E+03</pdfrwt>
<totfact> 0.10132568E+05</totfact>
</mgrwt>
</event>
<event>
 8    1  0.9705063E-006  0.3228395E+03  0.7546771E-02  0.1074350E+00
         21   -1    0    0  504  503  0.00000000000E+00  0.00000000000E+00  0.27558508140E+03  0.27558508140E+03  0.00000000000E+00 0.  1.
         21   -1    0    0  503  504 -0.00000000000E+00 -0.00000000000E+00 -0.94549181042E+02  0.94549181042E+02  0.00000000000E+00 0.  1.
         25    2    1    2    0    0 -0.20627763476E+02  0.69127402215E+02  0.76266068706E+01  0.14452404452E+03  0.12499972780E+03 0.  0.
         25    2    1    2    0    0  0.20627763476E+02 -0.69127402215E+02  0.17340929349E+03  0.22561021792E+03  0.12500034000E+03 0.  0.
          5    1    3    3  501    0 -0.54912481409E+02  0.49009206181E+02  0.47740252720E+02  0.87855020543E+02  0.47000000000E+01 0.  1.
         -5    1    3    3    0  501  0.34284717932E+02  0.20118196034E+02 -0.40113645849E+02  0.56669023979E+02  0.47000000000E+01 0.  1.
          5    1    4    4  502    0 -0.11831297344E+02  0.26067308532E+02  0.50582780404E+01  0.29447586449E+02  0.47000000000E+01 0. -1.
         -5    1    4    4    0  502  0.32459060820E+02 -0.95194710747E+02  0.16835101545E+03  0.19616263147E+03  0.47000000000E+01 0. -1.
<mgrwt>
<rscale>  0 0.32283955E+03</rscale>
<asrwt>0</asrwt>
<pdfrwt beam="1">  1       21 0.42397705E-01 0.32283955E+03</pdfrwt>
<pdfrwt beam="2">  1       21 0.14546028E-01 0.32283955E+03</pdfrwt>
<totfact> 0.21481221E+05</totfact>
</mgrwt>
</event>
<event>
 8    1  0.9705063E-006  0.2902044E+03  0.7546771E-02  0.1090242E+00
         21   -1    0    0  504  503  0.00000000000E+00  0.00000000000E+00  0.13490671357E+02  0.13490671357E+02  0.00000000000E+00 0.  1.
         21   -1    0    0  503  504 -0.00000000000E+00 -0.00000000000E+00 -0.15606815117E+04  0.15606815117E+04  0.00000000000E+00 0.  1.
         25    2    1    2    0    0 -0.46586182589E+02 -0.83569188595E+01 -0.46715798264E+03  0.48590054608E+03  0.12499059738E+03 0.  0.
         25    2    1    2    0    0  0.46586182589E+02  0.83569188595E+01 -0.10800328577E+04  0.10882716370E+04  0.12499628650E+03 0.  0.
          5    1    3    3  501    0 -0.30380559270E+02  0.56381687656E+02 -0.27603632489E+03  0.28340786112E+03  0.47000000000E+01 0. -1.
         -5    1    3    3    0  501 -0.16205623318E+02 -0.64738606516E+02 -0.19112165775E+03  0.20249268496E+03  0.47000000000E+01 0. -1.
          5    1    4    4  502    0  0.88825799733E+01  0.41664411018E+02 -0.12972995918E+03  0.13662640916E+03  0.47000000000E+01 0. -1.
         -5    1    4    4    0  502  0.37703602615E+02 -0.33307492158E+02 -0.95030289853E+03  0.95164522782E+03  0.47000000000E+01 0. -1.
<mgrwt>
<rscale>  0 0.29020435E+03</rscale>
<asrwt>0</asrwt>
<pdfrwt beam="1">  1       21 0.20754883E-02 0.29020435E+03</pdfrwt>
<pdfrwt beam="2">  1       21 0.24010481E+00 0.29020435E+03</pdfrwt>
<totfact> 0.83334267E+04</totfact>
</mgrwt>
</event>
<event>
 8    1  0.9705063E-006  0.3048627E+03  0.7546771E-02  0.1082835E+00
         21   -1    0    0  504  503  0.00000000000E+00  0.00000000000E+00  0.10036473144E+03  0.10036473144E+03  0.00000000000E+00 0.  1.
         21   -1    0    0  503  504 -0.00000000000E+00 -0.00000000000E+00 -0.23150871105E+03  0.23150871105E+03  0.00000000000E+00 0.  1.
         25    2    1    2    0    0  0.56501717561E+02  0.64517881707E+02 -0.48160049305E+02  0.15905320273E+03  0.12499411907E+03 0.  0.
         25    2    1    2    0    0 -0.56501717561E+02 -0.64517881707E+02 -0.82983930305E+02  0.17282023977E+03  0.12500200573E+03 0.  0.
          5    1    3    3  501    0 -0.55699600559E+01  0.85562537635E+02 -0.26715904661E+02  0.89932207042E+02  0.47000000000E+01 0.  1.
         -5    1    3    3    0  501  0.62071677617E+02 -0.21044655928E+02 -0.21444144645E+02  0.69120995688E+02  0.47000000000E+01 0.  1.
          5    1    4    4  502    0  0.64129008516E+01 -0.34502963691E+02  0.25606194848E+02  0.43696075514E+02  0.47000000000E+01 0. -1.
         -5    1    4    4    0  502 -0.62914618413E+02 -0.30014918017E+02 -0.10859012515E+03  0.12912416425E+03  0.47000000000E+01 0. -1.
<mgrwt>
<rscale>  0 0.30486266E+03</rscale>
<asrwt>0</asrwt>
<pdfrwt beam="1">  1       21 0.15440728E-01 0.30486266E+03</pdfrwt>
<pdfrwt beam="2">  1       21 0.35616724E-01 0.30486266E+03</pdfrwt>
<totfact> 0.27541138E+05</totfact>
</mgrwt>
</event>
<event>
 8    1  0.9705063E-006  0.2636505E+03  0.7546771E-02  0.1104970E+00
         21   -1    0    0  504  503  0.00000000000E+00  0.00000000000E+00  0.35124319802E+03  0.35124319802E+03  0.00000000000E+00 0. -1.
         21   -1    0    0  503  504 -0.00000000000E+00 -0.00000000000E+00 -0.49475381745E+02  0.49475381745E+02  0.00000000000E+00 0. -1.
         25    2    1    2    0    0  0.35728722157E+02 -0.16870942672E+02  0.17183190798E+03  0.21614005677E+03  0.12501659589E+03 0.  0.
         25    2    1    2    0    0 -0.35728722157E+02  0.16870942672E+02  0.12993590829E+03  0.18457852299E+03  0.12499888236E+03 0.  0.
          5    1    3    3  501    0 -0.18059704126E+02 -0.53568467942E+02  0.41217879294E+02  0.70119449829E+02  0.47000000000E+01 0.  1.
         -5    1    3    3    0  501  0.53788426283E+02  0.36697525270E+02  0.13061402869E+03  0.14602060695E+03  0.47000000000E+01 0.  1.
          5    1    4    4  502    0  0.41546838664E+02  0.30661510976E+02  0.60448981351E+02  0.79639421173E+02  0.47000000000E+01 0. -1.
         -5    1    4    4    0  502 -0.77275560821E+02 -0.13790568305E+02  0.69486926943E+02  0.10493910182E+03  0.47000000000E+01 0. -1.
<mgrwt>
<rscale>  0 0.26365046E+03</rscale>
<asrwt>0</asrwt>
<pdfrwt beam="1">  1       21 0.54037414E-01 0.26365046E+03</pdfrwt>
<pdfrwt beam="2">  1       21 0.76115974E-02 0.26365046E+03</pdfrwt>
<totfact> 0.41709341E+05</totfact>
</mgrwt>
</event>
<event>
 8    1  0.9705063E-006  0.3190815E+03  0.7546771E-02  0.1076073E+00
         21   -1    0    0  504  503  0.00000000000E+00  0.00000000000E+00  0.48950806298E+03  0.48950806298E+03  0.00000000000E+00 0. -1.
         21   -1    0    0  503  504 -0.00000000000E+00 -0.00000000000E+00 -0.51997603014E+02  0.51997603014E+02  0.00000000000E+00 0. -1.
         25    2    1    2    0    0 -0.42625448653E+02  0.63055571658E+02  0.32643693317E+03  0.35774818408E+03  0.12501903007E+03 0.  0.
         25    2    1    2    0    0  0.42625448653E+02 -0.63055571658E+02  0.11107352680E+03  0.18375748192E+03  0.12504619073E+03 0.  0.
          5    1    3    3  501    0  0.22476697517E+02  0.70417286086E+02  0.11907132041E+03  0.14022790541E+03  0.47000000000E+01 0. -1.
         -5    1    3    3    0  501 -0.65102146169E+02 -0.73617144276E+01  0.20736561276E+03  0.21752027867E+03  0.47000000000E+01 0. -1.
          5    1    4    4  502    0 -0.43221173769E+02 -0.13440775681E+02  0.22697245449E+02  0.50852524655E+02  0.47000000000E+01 0.  1.
         -5    1    4    4    0  502  0.85846622421E+02 -0.49614795978E+02  0.88376281348E+02  0.13290495727E+03  0.47000000000E+01 0.  1.
<mgrwt>
<rscale>  0 0.31908147E+03</rscale>
<asrwt>0</asrwt>
<pdfrwt beam="1">  1       21 0.75308929E-01 0.31908147E+03</pdfrwt>
<pdfrwt beam="2">  1       21 0.79996316E-02 0.31908147E+03</pdfrwt>
<totfact> 0.18243053E+05</totfact>
</mgrwt>
</event>
<event>
 8    1  0.9705063E-006  0.3233390E+03  0.7546771E-02  0.1074123E+00
         21   -1    0    0  504  503  0.00000000000E+00  0.00000000000E+00  0.60649882440E+02  0.60649882440E+02  0.00000000000E+00 0. -1.
         21   -1    0    0  503  504 -0.00000000000E+00 -0.00000000000E+00 -0.43094924847E+03  0.43094924847E+03  0.00000000000E+00 0. -1.
         25    2    1    2    0    0  0.54703045247E+02 -0.19376941037E+02 -0.31365734122E+03  0.34259968813E+03  0.12500291837E+03 0.  0.
         25    2    1    2    0    0 -0.54703045247E+02  0.19376941037E+02 -0.56642024803E+02  0.14899944278E+03  0.12499850387E+03 0.  0.
          5    1    3    3  501    0 -0.94170196644E+01  0.30252451527E+02 -0.20202108403E+03  0.20454461487E+03  0.47000000000E+01 0. -1.
         -5    1    3    3    0  501  0.64120064912E+02 -0.49629392564E+02 -0.11163625720E+03  0.13805507325E+03  0.47000000000E+01 0. -1.
          5    1    4    4  502    0 -0.75803475060E+02  0.53984421112E+02 -0.54915401302E+02  0.10815856810E+03  0.47000000000E+01 0. -1.
         -5    1    4    4    0  502  0.21100429812E+02 -0.34607480075E+02 -0.17266235017E+01  0.40840874674E+02  0.47000000000E+01 0. -1.
<mgrwt>
<rscale>  0 0.32333896E+03</rscale>
<asrwt>0</asrwt>
<pdfrwt beam="1">  1       21 0.93307514E-02 0.32333896E+03</pdfrwt>
<pdfrwt beam="2">  1       21 0.66299883E-01 0.32333896E+03</pdfrwt>
<totfact> 0.18461097E+05</totfact>
</mgrwt>
</event>
<event>
 8    1  0.9705063E-006  0.2979683E+03  0.7546771E-02  0.1086261E+00
         21   -1    0    0  504  503  0.00000000000E+00  0.00000000000E+00  0.76511190364E+02  0.76511190364E+02  0.00000000000E+00 0.  1.
         21   -1    0    0  503  504 -0.00000000000E+00 -0.00000000000E+00 -0.29010497019E+03  0.29010497019E+03  0.00000000000E+00 0.  1.
         25    2    1    2    0    0 -0.31388990403E+02 -0.33145827541E+02 -0.24376052915E+02  0.13528901280E+03  0.12500004171E+03 0.  0.
         25    2    1    2    0    0  0.31388990403E+02  0.33145827541E+02 -0.18921772691E+03  0.23132714775E+03  0.12499994603E+03 0.  0.
          5    1    3    3  501    0  0.33977126293E+02 -0.45656399018E+02  0.13347090435E+02  0.58644579506E+02  0.47000000000E+01 0.  1.
         -5    1    3    3    0  501 -0.65366116696E+02  0.12510571476E+02 -0.37723143350E+02  0.76644433293E+02  0.47000000000E+01 0.  1.
          5    1    4    4  502    0 -0.47089059610E+01 -0.16620957489E+02 -0.16356903810E+03  0.16454589101E+03  0.47000000000E+01 0. -1.
         -5    1    4    4    0  502  0.36097896364E+02  0.49766785030E+02 -0.25648688805E+02  0.66781256739E+02  0.47000000000E+01 0. -1.
<mgrwt>
<rscale>  0 0.29796830E+03</rscale>
<asrwt>0</asrwt>
<pdfrwt beam="1">  1       21 0.11770952E-01 0.29796830E+03</pdfrwt>
<pdfrwt beam="2">  1       21 0.44631534E-01 0.29796830E+03</pdfrwt>
<totfact> 0.28544578E+05</totfact>
</mgrwt>
</event>
<event>
 8    1  0.9705063E-006  0.2996010E+03  0.7546771E-02  0.1085440E+00
         21   -1    0    0  504  503  0.00000000000E+00  0.00000000000E+00  0.57058445487E+03  0.57058445487E+03  0.00000000000E+00 0.  1.
         21   -1    0    0  503  504 -0.00000000000E+00 -0.00000000000E+00 -0.39328437092E+02  0.39328437092E+02  0.00000000000E+00 0.  1.
         25    2    1    2    0    0 -0.41455222369E+02 -0.70864197460E+02  0.28317077685E+03  0.32023499007E+03  0.12499796021E+03 0.  0.
         25    2    1    2    0    0  0.41455222369E+02  0.70864197460E+02  0.24808524092E+03  0.28967790189E+03  0.12500692036E+03 0.  0.
          5    1    3    3  501    0  0.63009099127E+01  0.21611957895E+02  0.54770604805E+01  0.23640354931E+02  0.47000000000E+01 0. -1.
         -5    1    3    3    0  501 -0.47756132282E+02 -0.92476155355E+02  0.27769371637E+03  0.29659463514E+03  0.47000000000E+01 0. -1.
          5    1    4    4  502    0  0.69372996074E+02 -0.17135905850E+01  0.14135642633E+03  0.15754135407E+03  0.47000000000E+01 0.  1.
         -5    1    4    4    0  502 -0.27917773705E+02  0.72577788045E+02  0.10672881459E+03  0.13213654782E+03  0.47000000000E+01 0.  1.
<mgrwt>
<rscale>  0 0.29960103E+03</rscale>
<asrwt>0</asrwt>
<pdfrwt beam="1">  1       21 0.87782217E-01 0.29960103E+03</pdfrwt>
<pdfrwt beam="2">  1       21 0.60505292E-02 0.29960103E+03</pdfrwt>
<totfact> 0.20977881E+05</totfact>
</mgrwt>
</event>
<event>
 8    1  0.9705063E-006  0.2528503E+03  0.7546771E-02  0.1111517E+00
         21   -1    0    0  504  503  0.00000000000E+00  0.00000000000E+00  0.20317163604E+03  0.20317163604E+03  0.00000000000E+00 0. -1.
         21   -1    0    0  503  504 -0.00000000000E+00 -0.00000000000E+00 -0.78669067892E+02  0.78669067892E+02  0.00000000000E+00 0. -1.
         25    2    1    2    0    0  0.16064736280E+02 -0.81821632349E+01  0.55575934974E+02  0.13797099231E+03  0.12498914602E+03 0.  0.
         25    2    1    2    0    0 -0.16064736280E+02  0.81821632349E+01  0.68926633175E+02  0.14386971163E+03  0.12499035809E+03 0.  0.
          5    1    3    3  501    0 -0.75340788380E+01 -0.40244616590E+02  0.80732926120E+02  0.90643735958E+02  0.47000000000E+01 0. -1.
         -5    1    3    3    0  501  0.23598815118E+02  0.32062453355E+02 -0.25156991146E+02  0.47327256350E+02  0.47000000000E+01 0. -1.
          5    1    4    4  502    0 -0.50593947513E+02 -0.36486475727E+02  0.59697802928E+02  0.86469232160E+02  0.47000000000E+01 0. -1.
         -5    1    4    4    0  502  0.34529211233E+02  0.44668638962E+02  0.92288302467E+01  0.57400479465E+02  0.47000000000E+01 0. -1.
<mgrwt>
<rscale>  0 0.25285034E+03</rscale>
<asrwt>0</asrwt>
<pdfrwt beam="1">  1       21 0.31257175E-01 0.25285034E+03</pdfrwt>
<pdfrwt beam="2">  1       21 0.12102934E-01 0.25285034E+03</pdfrwt>
<totfact> 0.56211630E+05</totfact>
</mgrwt>
</event>
<event>
 8    1  0.9705063E-006  0.3042982E+03  0.7546771E-02  0.1083111E+00
         21   -1    0    0  504  503  0.00000000000E+00  0.00000000000E+00  0.43291677758E+02  0.43291677758E+02  0.00000000000E+00 0.  1.
         21   -1    0    0  503  504 -0.00000000000E+00 -0.00000000000E+00 -0.53472990470E+03  0.53472990470E+03  0.00000000000E+00 0.  1.
         25    2    1    2    0    0 -0.71218944227E+02  0.49303499431E+02 -0.23824124197E+03  0.28266364348E+03  0.12504748256E+03 0.  0.
         25    2    1    2    0    0  0.71218944227E+02 -0.49303499431E+02 -0.25319698497E+03  0.29535793898E+03  0.12499850338E+03 0.  0.
          5    1    3    3  501    0 -0.10298175528E+03  0.58280584510E+02 -0.17759143452E+03  0.21345415449E+03  0.47000000000E+01 0.  1.
         -5    1    3    3    0  501  0.31762811056E+02 -0.89770850786E+01 -0.60649807448E+02  0.69209488989E+02  0.47000000000E+01 0.  1.
          5    1    4    4  502    0  0.95468563932E+02 -0.28078579777E+02 -0.24065276538E+03  0.26045824392E+03  0.47000000000E+01 0. -1.
         -5    1    4    4    0  502 -0.24249619704E+02 -0.21224919654E+02 -0.12544219590E+02  0.34899695060E+02  0.47000000000E+01 0. -1.
<mgrwt>
<rscale>  0 0.30429824E+03</rscale>
<asrwt>0</asrwt>
<pdfrwt beam="1">  1       21 0.66602579E-02 0.30429824E+03</pdfrwt>
<pdfrwt beam="2">  1       21 0.82266141E-01 0.30429824E+03</pdfrwt>
<totfact> 0.20617595E+05</totfact>
</mgrwt>
</event>
<event>
 8    1  0.9705063E-006  0.3125513E+03  0.7546771E-02  0.1079129E+00
         21   -1    0    0  504  503  0.00000000000E+00  0.00000000000E+00  0.83181101166E+03  0.83181101166E+03  0.00000000000E+00 0. -1.
         21   -1    0    0  503  504 -0.00000000000E+00 -0.00000000000E+00 -0.29360121275E+02  0.29360121275E+02  0.00000000000E+00 0. -1.
         25    2    1    2    0    0 -0.13870245725E+02 -0.46626217432E+02  0.18024952375E+03  0.22467718993E+03  0.12499424385E+03 0.  0.
         25    2    1    2    0    0  0.13870245725E+02  0.46626217432E+02  0.62220136663E+03  0.63649394300E+03  0.12499444376E+03 0.  0.
          5    1    3    3  501    0 -0.37288360405E+02  0.30207804627E+02  0.38579309768E+02  0.61752622813E+02  0.47000000000E+01 0.  1.
         -5    1    3    3    0  501  0.23418114681E+02 -0.76834022058E+02  0.14167021399E+03  0.16292456712E+03  0.47000000000E+01 0.  1.
          5    1    4    4  502    0  0.11894060132E+02  0.23788924624E+02  0.60905653244E+03  0.60965509209E+03  0.47000000000E+01 0.  1.
         -5    1    4    4    0  502  0.19761855921E+01  0.22837292808E+02  0.13144834187E+02  0.26838850909E+02  0.47000000000E+01 0.  1.
<mgrwt>
<rscale>  0 0.31255126E+03</rscale>
<asrwt>0</asrwt>
<pdfrwt beam="1">  1       21 0.12797091E+00 0.31255126E+03</pdfrwt>
<pdfrwt beam="2">  1       21 0.45169424E-02 0.31255126E+03</pdfrwt>
<totfact> 0.13776769E+05</totfact>
</mgrwt>
</event>
<event>
 8    1  0.9705063E-006  0.3753461E+03  0.7546771E-02  0.1052667E+00
         21   -1    0    0  504  503  0.00000000000E+00  0.00000000000E+00  0.73138121791E+02  0.73138121791E+02  0.00000000000E+00 0.  1.
         21   -1    0    0  503  504 -0.00000000000E+00 -0.00000000000E+00 -0.48157062678E+03  0.48157062678E+03  0.00000000000E+00 0.  1.
         25    2    1    2    0    0 -0.86400950975E+02 -0.84068774052E+02 -0.99046042292E+02  0.19991607077E+03  0.12499453492E+03 0.  0.
         25    2    1    2    0    0  0.86400950975E+02  0.84068774052E+02 -0.30938646269E+03  0.35479267780E+03  0.12500071127E+03 0.  0.
          5    1    3    3  501    0 -0.95989459929E+02 -0.29698798369E+02 -0.10350184143E+03  0.14432850107E+03  0.47000000000E+01 0. -1.
         -5    1    3    3    0  501  0.95885089540E+01 -0.54369975682E+02  0.44557991354E+01  0.55587569704E+02  0.47000000000E+01 0. -1.
          5    1    4    4  502    0 -0.21585327010E+02  0.28102595028E+02 -0.15024983187E+03  0.15444346593E+03  0.47000000000E+01 0.  1.
         -5    1    4    4    0  502  0.10798627799E+03  0.55966179024E+02 -0.15913663082E+03  0.20034921187E+03  0.47000000000E+01 0.  1.
<mgrwt>
<rscale>  0 0.37534609E+03</rscale>
<asrwt>0</asrwt>
<pdfrwt beam="1">  1       21 0.11252019E-01 0.37534609E+03</pdfrwt>
<pdfrwt beam="2">  1       21 0.74087788E-01 0.37534609E+03</pdfrwt>
<totfact> 0.10172410E+05</totfact>
</mgrwt>
</event>
<event>
 8    1  0.9705063E-006  0.3492111E+03  0.7546771E-02  0.1062939E+00
         21   -1    0    0  504  503  0.00000000000E+00  0.00000000000E+00  0.16007249839E+03  0.16007249839E+03  0.00000000000E+00 0. -1.
         21   -1    0    0  503  504 -0.00000000000E+00 -0.00000000000E+00 -0.19045808358E+03  0.19045808358E+03  0.00000000000E+00 0. -1.
         25    2    1    2    0    0 -0.98803730549E+02  0.24820938609E+02 -0.82409252755E+02  0.18109183663E+03  0.12499884875E+03 0.  0.
         25    2    1    2    0    0  0.98803730549E+02 -0.24820938609E+02  0.52023667570E+02  0.16943874534E+03  0.12499908109E+03 0.  0.
          5    1    3    3  501    0 -0.11324378873E+03  0.52217744959E+02 -0.45848415283E+02  0.13294741727E+03  0.47000000000E+01 0. -1.
         -5    1    3    3    0  501  0.14440058183E+02 -0.27396806350E+02 -0.36560837471E+02  0.48144419356E+02  0.47000000000E+01 0. -1.
          5    1    4    4  502    0  0.29154569931E+02  0.40500955953E+02 -0.15417551701E+02  0.52441465287E+02  0.47000000000E+01 0. -1.
         -5    1    4    4    0  502  0.69649160618E+02 -0.65321894562E+02  0.67441219270E+02  0.11699728006E+03  0.47000000000E+01 0. -1.
<mgrwt>
<rscale>  0 0.34921112E+03</rscale>
<asrwt>0</asrwt>
<pdfrwt beam="1">  1       21 0.24626538E-01 0.34921112E+03</pdfrwt>
<pdfrwt beam="2">  1       21 0.29301244E-01 0.34921112E+03</pdfrwt>
<totfact> 0.16687005E+05</totfact>
</mgrwt>
</event>
<event>
 8    1  0.9705063E-006  0.4197971E+03  0.7546771E-02  0.1037132E+00
         21   -1    0    0  504  503  0.00000000000E+00  0.00000000000E+00  0.41513285546E+02  0.41513285546E+02  0.00000000000E+00 0.  1.
         21   -1    0    0  503  504 -0.00000000000E+00 -0.00000000000E+00 -0.10612845081E+04  0.10612845081E+04  0.00000000000E+00 0.  1.
         25    2    1    2    0    0  0.51691277536E+02  0.10210134110E+03 -0.83520279780E+03  0.85222394294E+03  0.12500105377E+03 0.  0.
         25    2    1    2    0    0 -0.51691277536E+02 -0.10210134110E+03 -0.18456842473E+03  0.25057385068E+03  0.12500031684E+03 0.  0.
          5    1    3    3  501    0  0.23060972235E+02 -0.27322176556E+02 -0.14719850821E+03  0.15155131339E+03  0.47000000000E+01 0.  1.
         -5    1    3    3    0  501  0.28630305301E+02  0.12942351766E+03 -0.68800428959E+03  0.70067262955E+03  0.47000000000E+01 0.  1.
          5    1    4    4  502    0 -0.63431383845E+01 -0.91591412055E+02 -0.43030379769E+02  0.10150332876E+03  0.47000000000E+01 0. -1.
         -5    1    4    4    0  502 -0.45348139151E+02 -0.10509929046E+02 -0.14153804496E+03  0.14907052192E+03  0.47000000000E+01 0. -1.
<mgrwt>
<rscale>  0 0.41979713E+03</rscale>
<asrwt>0</asrwt>
<pdfrwt beam="1">  1       21 0.63866596E-02 0.41979713E+03</pdfrwt>
<pdfrwt beam="2">  1       21 0.16327453E+00 0.41979713E+03</pdfrwt>
<totfact> 0.38361840E+04</totfact>
</mgrwt>
</event>
<event>
 8    1  0.9705063E-006  0.2651211E+03  0.7546771E-02  0.1104105E+00
         21   -1    0    0  504  503  0.00000000000E+00  0.00000000000E+00  0.94645414868E+02  0.94645414868E+02  0.00000000000E+00 0. -1.
         21   -1    0    0  503  504 -0.00000000000E+00 -0.00000000000E+00 -0.18566458853E+03  0.18566458853E+03  0.00000000000E+00 0. -1.
         25    2    1    2    0    0  0.36440217964E+02 -0.16601855968E+02 -0.65111424459E+02  0.14651681457E+03  0.12499667296E+03 0.  0.
         25    2    1    2    0    0 -0.36440217964E+02  0.16601855968E+02 -0.25907749207E+02  0.13379318883E+03  0.12500357915E+03 0.  0.
          5    1    3    3  501    0  0.70768788836E+02  0.23805739169E+02 -0.21889853384E+02  0.77949922205E+02  0.47000000000E+01 0.  1.
         -5    1    3    3    0  501 -0.34328570872E+02 -0.40407595137E+02 -0.43221571075E+02  0.68566892368E+02  0.47000000000E+01 0.  1.
          5    1    4    4  502    0 -0.42122419253E+02  0.60571418181E+02 -0.43600665023E+02  0.85827168744E+02  0.47000000000E+01 0.  1.
         -5    1    4    4    0  502  0.56822012889E+01 -0.43969562214E+02  0.17692915816E+02  0.47966020085E+02  0.47000000000E+01 0.  1.
<mgrwt>
<rscale>  0 0.26512112E+03</rscale>
<asrwt>0</asrwt>
<pdfrwt beam="1">  1       21 0.14560833E-01 0.26512112E+03</pdfrwt>
<pdfrwt beam="2">  1       21 0.28563782E-01 0.26512112E+03</pdfrwt>
<totfact> 0.47853201E+05</totfact>
</mgrwt>
</event>
<event>
 8    1  0.9705063E-006  0.3344512E+03  0.7546771E-02  0.1069184E+00
         21   -1    0    0  504  503  0.00000000000E+00  0.00000000000E+00  0.94219384991E+03  0.94219384991E+03  0.00000000000E+00 0. -1.
         21   -1    0    0  503  504 -0.00000000000E+00 -0.00000000000E+00 -0.29680091999E+02  0.29680091999E+02  0.00000000000E+00 0. -1.
         25    2    1    2    0    0  0.77190856278E+02  0.33657603548E+02  0.24571598662E+03  0.28825422421E+03  0.12499155623E+03 0.  0.
         25    2    1    2    0    0 -0.77190856278E+02 -0.33657603548E+02  0.66679777130E+03  0.68361971770E+03  0.12500155219E+03 0.  0.
          5    1    3    3  501    0  0.15486551627E+02  0.19993912250E+02 -0.78456084879E+01  0.26892998734E+02  0.47000000000E+01 0.  1.
         -5    1    3    3    0  501  0.61704304652E+02  0.13663691298E+02  0.25356159510E+03  0.26136122548E+03  0.47000000000E+01 0.  1.
          5    1    4    4  502    0 -0.67446691754E+02 -0.61449908559E+02  0.62836722619E+03  0.63497449432E+03  0.47000000000E+01 0.  1.
         -5    1    4    4    0  502 -0.97441645241E+01  0.27792305010E+02  0.38430545106E+02  0.48645223375E+02  0.47000000000E+01 0.  1.
<mgrwt>
<rscale>  0 0.33445119E+03</rscale>
<asrwt>0</asrwt>
<pdfrwt beam="1">  1       21 0.14495288E+00 0.33445119E+03</pdfrwt>
<pdfrwt beam="2">  1       21 0.45661687E-02 0.33445119E+03</pdfrwt>
<totfact> 0.97127103E+04</totfact>
</mgrwt>
</event>
<event>
 8    1  0.9705063E-006  0.3154011E+03  0.7546771E-02  0.1077786E+00
         21   -1    0    0  504  503  0.00000000000E+00  0.00000000000E+00  0.46608775723E+02  0.46608775723E+02  0.00000000000E+00 0. -1.
         21   -1    0    0  503  504 -0.00000000000E+00 -0.00000000000E+00 -0.53357900715E+03  0.53357900715E+03  0.00000000000E+00 0. -1.
         25    2    1    2    0    0  0.54904012416E+02  0.75095019114E+02 -0.28819743873E+03  0.32762130620E+03  0.12499697641E+03 0.  0.
         25    2    1    2    0    0 -0.54904012416E+02 -0.75095019114E+02 -0.19877279269E+03  0.25256647667E+03  0.12500195817E+03 0.  0.
          5    1    3    3  501    0  0.73064627828E+02  0.71884546485E+02 -0.11803341243E+03  0.15639630531E+03  0.47000000000E+01 0. -1.
         -5    1    3    3    0  501 -0.18160615412E+02  0.32104726290E+01 -0.17016402629E+03  0.17122500089E+03  0.47000000000E+01 0. -1.
          5    1    4    4  502    0 -0.69333199154E+02 -0.47736583494E+02 -0.20410302392E+03  0.22083027030E+03  0.47000000000E+01 0. -1.
         -5    1    4    4    0  502  0.14429186738E+02 -0.27358435620E+02  0.53302312256E+01  0.31736206365E+02  0.47000000000E+01 0. -1.
<mgrwt>
<rscale>  0 0.31540111E+03</rscale>
<asrwt>0</asrwt>
<pdfrwt beam="1">  1       21 0.71705805E-02 0.31540111E+03</pdfrwt>
<pdfrwt beam="2">  1       21 0.82089082E-01 0.31540111E+03</pdfrwt>
<totfact> 0.18170018E+05</totfact>
</mgrwt>
</event>
<event>
 8    1  0.9705063E-006  0.2723667E+03  0.7546771E-02  0.1099933E+00
         21   -1    0    0  504  503  0.00000000000E+00  0.00000000000E+00  0.18322865581E+03  0.18322865581E+03  0.00000000000E+00 0. -1.
         21   -1    0    0  503  504 -0.00000000000E+00 -0.00000000000E+00 -0.10121726854E+03  0.10121726854E+03  0.00000000000E+00 0. -1.
         25    2    1    2    0    0 -0.43146971714E+02  0.27245625206E+02  0.59535862775E+02  0.14756940870E+03  0.12501290400E+03 0.  0.
         25    2    1    2    0    0  0.43146971714E+02 -0.27245625206E+02  0.22475524492E+02  0.13687651565E+03  0.12500418423E+03 0.  0.
          5    1    3    3  501    0  0.11824040363E+02  0.45473890076E+02  0.73915857194E+02  0.87711610143E+02  0.47000000000E+01 0.  1.
         -5    1    3    3    0  501 -0.54971012077E+02 -0.18228264871E+02 -0.14379994419E+02  0.59857798560E+02  0.47000000000E+01 0.  1.
          5    1    4    4  502    0  0.32079801516E+01 -0.50291142393E+02  0.59095070822E+02  0.77806217844E+02  0.47000000000E+01 0.  1.
         -5    1    4    4    0  502  0.39938991563E+02  0.23045517187E+02 -0.36619546329E+02  0.59070297806E+02  0.47000000000E+01 0.  1.
<mgrwt>
<rscale>  0 0.27236669E+03</rscale>
<asrwt>0</asrwt>
<pdfrwt beam="1">  1       21 0.28189024E-01 0.27236669E+03</pdfrwt>
<pdfrwt beam="2">  1       21 0.15571888E-01 0.27236669E+03</pdfrwt>
<totfact> 0.43355321E+05</totfact>
</mgrwt>
</event>
<event>
 8    1  0.9705063E-006  0.4650271E+03  0.7546771E-02  0.1023333E+00
         21   -1    0    0  504  503  0.00000000000E+00  0.00000000000E+00  0.30238260738E+03  0.30238260738E+03  0.00000000000E+00 0.  1.
         21   -1    0    0  503  504 -0.00000000000E+00 -0.00000000000E+00 -0.17878855770E+03  0.17878855770E+03  0.00000000000E+00 0.  1.
         25    2    1    2    0    0 -0.17884239966E+03 -0.12995560523E+02 -0.20224485552E+02  0.21951701020E+03  0.12500079777E+03 0.  0.
         25    2    1    2    0    0  0.17884239966E+03  0.12995560523E+02  0.14381853523E+03  0.26165415489E+03  0.12500254872E+03 0.  0.
          5    1    3    3  501    0 -0.13992483647E+02  0.92780126060E+01 -0.47757650933E+02  0.50840479336E+02  0.47000000000E+01 0. -1.
         -5    1    3    3    0  501 -0.16484991601E+03 -0.22273573129E+02  0.27533165381E+02  0.16867653086E+03  0.47000000000E+01 0. -1.
          5    1    4    4  502    0  0.19270169234E+03  0.28850423305E+02  0.13940943651E+03  0.23963173860E+03  0.47000000000E+01 0. -1.
         -5    1    4    4    0  502 -0.13859292685E+02 -0.15854862782E+02  0.44090987166E+01  0.22022416286E+02  0.47000000000E+01 0. -1.
<mgrwt>
<rscale>  0 0.46502710E+03</rscale>
<asrwt>0</asrwt>
<pdfrwt beam="1">  1       21 0.46520401E-01 0.46502710E+03</pdfrwt>
<pdfrwt beam="2">  1       21 0.27505932E-01 0.46502710E+03</pdfrwt>
<totfact> 0.51257025E+04</totfact>
</mgrwt>
</event>
<event>
 8    1  0.9705063E-006  0.5265635E+03  0.7546771E-02  0.1007069E+00
         21   -1    0    0  504  503  0.00000000000E+00  0.00000000000E+00  0.25149089897E+03  0.25149089897E+03  0.00000000000E+00 0.  1.
         21   -1    0    0  503  504 -0.00000000000E+00 -0.00000000000E+00 -0.27562541360E+03  0.27562541360E+03  0.00000000000E+00 0.  1.
         25    2    1    2    0    0 -0.18133137502E+01 -0.85189792435E+02 -0.22775318089E+03  0.27341740815E+03  0.12499991534E+03 0.  0.
         25    2    1    2    0    0  0.18133137502E+01  0.85189792435E+02  0.20361866626E+03  0.25369890442E+03  0.12506791760E+03 0.  0.
          5    1    3    3  501    0  0.18220039159E+02 -0.75164568533E+02 -0.23653371919E+03  0.24890153174E+03  0.47000000000E+01 0. -1.
         -5    1    3    3    0  501 -0.20033352909E+02 -0.10025223902E+02  0.87805383061E+01  0.24515876407E+02  0.47000000000E+01 0. -1.
          5    1    4    4  502    0  0.35740070897E+02  0.22984532923E+02  0.53355825348E+01  0.43083637989E+02  0.47000000000E+01 0. -1.
         -5    1    4    4    0  502 -0.33926757147E+02  0.62205259512E+02  0.19828308373E+03  0.21061526643E+03  0.47000000000E+01 0. -1.
<mgrwt>
<rscale>  0 0.52656351E+03</rscale>
<asrwt>0</asrwt>
<pdfrwt beam="1">  1       21 0.38690908E-01 0.52656351E+03</pdfrwt>
<pdfrwt beam="2">  1       21 0.42403910E-01 0.52656351E+03</pdfrwt>
<totfact> 0.30941307E+04</totfact>
</mgrwt>
</event>
<event>
 8    1  0.9705063E-006  0.2703461E+03  0.7546771E-02  0.1101082E+00
         21   -1    0    0  504  503  0.00000000000E+00  0.00000000000E+00  0.54343046941E+03  0.54343046941E+03  0.00000000000E+00 0.  1.
         21   -1    0    0  503  504 -0.00000000000E+00 -0.00000000000E+00 -0.33622984072E+02  0.33622984072E+02  0.00000000000E+00 0.  1.
         25    2    1    2    0    0 -0.31832006733E+02 -0.39470410384E+02  0.27351841106E+03  0.30497257988E+03  0.12499905336E+03 0.  0.
         25    2    1    2    0    0  0.31832006733E+02  0.39470410384E+02  0.23628907429E+03  0.27208087361E+03  0.12499714080E+03 0.  0.
          5    1    3    3  501    0 -0.34529911204E+02 -0.66250521681E+02  0.26642844786E+03  0.27674474560E+03  0.47000000000E+01 0.  1.
         -5    1    3    3    0  501  0.26979044717E+01  0.26780111298E+02  0.70899631978E+01  0.28227834274E+02  0.47000000000E+01 0.  1.
          5    1    4    4  502    0  0.41456935082E+02  0.44685188995E+02  0.35011330457E+02  0.70450882481E+02  0.47000000000E+01 0.  1.
         -5    1    4    4    0  502 -0.96249283496E+01 -0.52147786118E+01  0.20127774383E+03  0.20162999113E+03  0.47000000000E+01 0.  1.
<mgrwt>
<rscale>  0 0.27034610E+03</rscale>
<asrwt>0</asrwt>
<pdfrwt beam="1">  1       21 0.83604681E-01 0.27034610E+03</pdfrwt>
<pdfrwt beam="2">  1       21 0.51727672E-02 0.27034610E+03</pdfrwt>
<totfact> 0.30962393E+05</totfact>
</mgrwt>
</event>
<event>
 8    1  0.9705063E-006  0.2993837E+03  0.7546771E-02  0.1085549E+00
         21   -1    0    0  504  503  0.00000000000E+00  0.00000000000E+00  0.46486321562E+02  0.46486321562E+02  0.00000000000E+00 0.  1.
         21   -1    0    0  503  504 -0.00000000000E+00 -0.00000000000E+00 -0.48202688011E+03  0.48202688011E+03  0.00000000000E+00 0.  1.
         25    2    1    2    0    0  0.38615731797E+02 -0.63437217327E+02 -0.15498974393E+03  0.21252452864E+03  0.12501759582E+03 0.  0.
         25    2    1    2    0    0 -0.38615731797E+02  0.63437217327E+02 -0.28055081461E+03  0.31598867303E+03  0.12499850647E+03 0.  0.
          5    1    3    3  501    0 -0.21105161827E+02 -0.37329234062E+02  0.12627204578E+01  0.43157664839E+02  0.47000000000E+01 0.  1.
         -5    1    3    3    0  501  0.59720893625E+02 -0.26107983265E+02 -0.15625246439E+03  0.16936686380E+03  0.47000000000E+01 0.  1.
          5    1    4    4  502    0 -0.59143103749E+02 -0.15500759796E+02 -0.14910573471E+03  0.16122279740E+03  0.47000000000E+01 0.  1.
         -5    1    4    4    0  502  0.20527371951E+02  0.78937977123E+02 -0.13144507990E+03  0.15476587564E+03  0.47000000000E+01 0.  1.
<mgrwt>
<rscale>  0 0.29938374E+03</rscale>
<asrwt>0</asrwt>
<pdfrwt beam="1">  1       21 0.71517413E-02 0.29938374E+03</pdfrwt>
<pdfrwt beam="2">  1       21 0.74157987E-01 0.29938374E+03</pdfrwt>
<totfact> 0.23090755E+05</totfact>
</mgrwt>
</event>
<event>
 8    1  0.9705063E-006  0.3217588E+03  0.7546771E-02  0.1074843E+00
         21   -1    0    0  504  503  0.00000000000E+00  0.00000000000E+00  0.12881250843E+03  0.12881250843E+03  0.00000000000E+00 0.  1.
         21   -1    0    0  503  504 -0.00000000000E+00 -0.00000000000E+00 -0.20092913052E+03  0.20092913052E+03  0.00000000000E+00 0.  1.
         25    2    1    2    0    0  0.90886971893E+02 -0.17850774295E+02  0.59543045797E+01  0.15567372953E+03  0.12497905633E+03 0.  0.
         25    2    1    2    0    0 -0.90886971893E+02  0.17850774295E+02 -0.78070926670E+02  0.17406790941E+03  0.12500190275E+03 0.  0.
          5    1    3    3  501    0 -0.98331407491E+01 -0.48866022920E+02  0.21901950983E+01  0.50114526911E+02  0.47000000000E+01 0.  1.
         -5    1    3    3    0  501  0.10072011264E+03  0.31015248625E+02  0.37641094814E+01  0.10555920262E+03  0.47000000000E+01 0.  1.
          5    1    4    4  502    0 -0.73891558940E+02  0.51135647066E+02 -0.29485824523E+01  0.90031111411E+02  0.47000000000E+01 0. -1.
         -5    1    4    4    0  502 -0.16995412953E+02 -0.33284872771E+02 -0.75122344218E+02  0.84036797997E+02  0.47000000000E+01 0. -1.
<mgrwt>
<rscale>  0 0.32175882E+03</rscale>
<asrwt>0</asrwt>
<pdfrwt beam="1">  1       21 0.19817309E-01 0.32175882E+03</pdfrwt>
<pdfrwt beam="2">  1       21 0.30912174E-01 0.32175882E+03</pdfrwt>
<totfact> 0.22861149E+05</totfact>
</mgrwt>
</event>
<event>
 8    1  0.9705063E-006  0.3202566E+03  0.7546771E-02  0.1075531E+00
         21   -1    0    0  504  503  0.00000000000E+00  0.00000000000E+00  0.57724376078E+02  0.57724376078E+02  0.00000000000E+00 0. -1.
         21   -1    0    0  503  504 -0.00000000000E+00 -0.00000000000E+00 -0.44419828740E+03  0.44419828740E+03  0.00000000000E+00 0. -1.
         25    2    1    2    0    0  0.60848780157E+01 -0.76628432289E+02 -0.92792008521E+02  0.17361944233E+03  0.12499764611E+03 0.  0.
         25    2    1    2    0    0 -0.60848780157E+01  0.76628432289E+02 -0.29368190281E+03  0.32830322116E+03  0.12500001044E+03 0.  0.
          5    1    3    3  501    0  0.11463219016E+02 -0.10625548448E+03 -0.43110382277E+02  0.11533528702E+03  0.47000000000E+01 0.  1.
         -5    1    3    3    0  501 -0.53783410001E+01  0.29627052190E+02 -0.49681626244E+02  0.58284155305E+02  0.47000000000E+01 0.  1.
          5    1    4    4  502    0  0.37557562450E+02  0.48392828381E+02 -0.25766969204E+03  0.26489280197E+03  0.47000000000E+01 0. -1.
         -5    1    4    4    0  502 -0.43642440465E+02  0.28235603908E+02 -0.36012210763E+02  0.63410419190E+02  0.47000000000E+01 0. -1.
<mgrwt>
<rscale>  0 0.32025658E+03</rscale>
<asrwt>0</asrwt>
<pdfrwt beam="1">  1       21 0.88806731E-02 0.32025658E+03</pdfrwt>
<pdfrwt beam="2">  1       21 0.68338199E-01 0.32025658E+03</pdfrwt>
<totfact> 0.18858433E+05</totfact>
</mgrwt>
</event>
<event>
 8    1  0.9705063E-006  0.3212255E+03  0.7546771E-02  0.1075087E+00
         21   -1    0    0  504  503  0.00000000000E+00  0.00000000000E+00  0.16009260496E+03  0.16009260496E+03  0.00000000000E+00 0. -1.
         21   -1    0    0  503  504 -0.00000000000E+00 -0.00000000000E+00 -0.16113456492E+03  0.16113456492E+03  0.00000000000E+00 0. -1.
         25    2    1    2    0    0  0.26225179488E+02 -0.12173303912E+02  0.96100249574E+02  0.16030103422E+03  0.12500085694E+03 0.  0.
         25    2    1    2    0    0 -0.26225179488E+02  0.12173303912E+02 -0.97142209535E+02  0.16092613567E+03  0.12499865159E+03 0.  0.
          5    1    3    3  501    0  0.19923635857E+02  0.52917883155E+02  0.20737737634E+02  0.60410242390E+02  0.47000000000E+01 0. -1.
         -5    1    3    3    0  501  0.63015436303E+01 -0.65091187067E+02  0.75362511940E+02  0.99890791827E+02  0.47000000000E+01 0. -1.
          5    1    4    4  502    0  0.19101450401E+02  0.46348281273E+02 -0.24344294851E+01  0.50408779308E+02  0.47000000000E+01 0. -1.
         -5    1    4    4    0  502 -0.45326629889E+02 -0.34174977361E+02 -0.94707780050E+02  0.11051735636E+03  0.47000000000E+01 0. -1.
<mgrwt>
<rscale>  0 0.32122548E+03</rscale>
<asrwt>0</asrwt>
<pdfrwt beam="1">  1       21 0.24629632E-01 0.32122548E+03</pdfrwt>
<pdfrwt beam="2">  1       21 0.24789933E-01 0.32122548E+03</pdfrwt>
<totfact> 0.23243873E+05</totfact>
</mgrwt>
</event>
<event>
 8    1  0.9705063E-006  0.3835379E+03  0.7546771E-02  0.1049634E+00
         21   -1    0    0  504  503  0.00000000000E+00  0.00000000000E+00  0.39184631745E+03  0.39184631745E+03  0.00000000000E+00 0.  1.
         21   -1    0    0  503  504 -0.00000000000E+00 -0.00000000000E+00 -0.93851424300E+02  0.93851424300E+02  0.00000000000E+00 0.  1.
         25    2    1    2    0    0 -0.23871623411E+02  0.60777638187E+02 -0.15564407564E+02  0.14188408419E+03  0.12500026742E+03 0.  0.
         25    2    1    2    0    0  0.23871623411E+02 -0.60777638187E+02  0.31355930071E+03  0.34381365755E+03  0.12499848140E+03 0.  0.
          5    1    3    3  501    0  0.40653684395E+02  0.50896845557E+02  0.18803896837E+02  0.67962397536E+02  0.47000000000E+01 0.  1.
         -5    1    3    3    0  501 -0.64525307807E+02  0.98807926304E+01 -0.34368304402E+02  0.73921686656E+02  0.47000000000E+01 0.  1.
          5    1    4    4  502    0  0.68555185007E+02 -0.39883183786E+02  0.11930853815E+03  0.14334259317E+03  0.47000000000E+01 0.  1.
         -5    1    4    4    0  502 -0.44683561596E+02 -0.20894454402E+02  0.19425076256E+03  0.20047106438E+03  0.47000000000E+01 0.  1.
<mgrwt>
<rscale>  0 0.38353793E+03</rscale>
<asrwt>0</asrwt>
<pdfrwt beam="1">  1       21 0.60284048E-01 0.38353793E+03</pdfrwt>
<pdfrwt beam="2">  1       21 0.14438681E-01 0.38353793E+03</pdfrwt>
<totfact> 0.10191422E+05</totfact>
</mgrwt>
</event>
<event>
 8    1  0.9705063E-006  0.2672993E+03  0.7546771E-02  0.1102835E+00
         21   -1    0    0  504  503  0.00000000000E+00  0.00000000000E+00  0.20014600512E+03  0.20014600512E+03  0.00000000000E+00 0. -1.
         21   -1    0    0  503  504 -0.00000000000E+00 -0.00000000000E+00 -0.89245983167E+02  0.89245983167E+02  0.00000000000E+00 0. -1.
         25    2    1    2    0    0 -0.19441002445E+02  0.42891909531E+02  0.50631387932E+02  0.14285111019E+03  0.12500093503E+03 0.  0.
         25    2    1    2    0    0  0.19441002445E+02 -0.42891909531E+02  0.60268634025E+02  0.14654087810E+03  0.12499700888E+03 0.  0.
          5    1    3    3  501    0 -0.42225387168E+02  0.71301023484E+02  0.62895349986E+02  0.10413805415E+03  0.47000000000E+01 0.  1.
         -5    1    3    3    0  501  0.22784384723E+02 -0.28409113953E+02 -0.12263962054E+02  0.38713056042E+02  0.47000000000E+01 0.  1.
          5    1    4    4  502    0  0.46115869307E+02  0.11194878192E+02 -0.14988076272E+02  0.49987309690E+02  0.47000000000E+01 0. -1.
         -5    1    4    4    0  502 -0.26674866863E+02 -0.54086787723E+02  0.75256710297E+02  0.96553568412E+02  0.47000000000E+01 0. -1.
<mgrwt>
<rscale>  0 0.26729929E+03</rscale>
<asrwt>0</asrwt>
<pdfrwt beam="1">  1       21 0.30791693E-01 0.26729929E+03</pdfrwt>
<pdfrwt beam="2">  1       21 0.13730151E-01 0.26729929E+03</pdfrwt>
<totfact> 0.45956373E+05</totfact>
</mgrwt>
</event>
<event>
 8    1  0.9705063E-006  0.2765922E+03  0.7546771E-02  0.1097565E+00
         21   -1    0    0  504  503  0.00000000000E+00  0.00000000000E+00  0.81400308604E+03  0.81400308604E+03  0.00000000000E+00 0. -1.
         21   -1    0    0  503  504 -0.00000000000E+00 -0.00000000000E+00 -0.23495990639E+02  0.23495990639E+02  0.00000000000E+00 0. -1.
         25    2    1    2    0    0 -0.40567562160E+01 -0.26294154933E+02  0.23512808007E+03  0.26760568140E+03  0.12497898555E+03 0.  0.
         25    2    1    2    0    0  0.40567562160E+01  0.26294154933E+02  0.55537901533E+03  0.56989339527E+03  0.12499916581E+03 0.  0.
          5    1    3    3  501    0  0.60292105735E+02 -0.11056140519E+02  0.11451189673E+03  0.12997092271E+03  0.47000000000E+01 0.  1.
         -5    1    3    3    0  501 -0.64348861951E+02 -0.15238014415E+02  0.12061618333E+03  0.13763475869E+03  0.47000000000E+01 0.  1.
          5    1    4    4  502    0 -0.43927656058E+01  0.16996976144E+02  0.55616030894E+03  0.55645716172E+03  0.47000000000E+01 0. -1.
         -5    1    4    4    0  502  0.84495218218E+01  0.92971787890E+01 -0.78129360983E+00  0.13436233555E+02  0.47000000000E+01 0. -1.
<mgrwt>
<rscale>  0 0.27659218E+03</rscale>
<asrwt>0</asrwt>
<pdfrwt beam="1">  1       21 0.12523122E+00 0.27659218E+03</pdfrwt>
<pdfrwt beam="2">  1       21 0.36147684E-02 0.27659218E+03</pdfrwt>
<totfact> 0.21440449E+05</totfact>
</mgrwt>
</event>
<event>
 8    1  0.9705063E-006  0.3153678E+03  0.7546771E-02  0.1077801E+00
         21   -1    0    0  504  503  0.00000000000E+00  0.00000000000E+00  0.63506335072E+03  0.63506335072E+03  0.00000000000E+00 0.  1.
         21   -1    0    0  503  504 -0.00000000000E+00 -0.00000000000E+00 -0.39152338683E+02  0.39152338683E+02  0.00000000000E+00 0.  1.
         25    2    1    2    0    0  0.47851248937E+02 -0.82389950788E+02  0.27075146593E+03  0.31306228630E+03  0.12499517103E+03 0.  0.
         25    2    1    2    0    0 -0.47851248937E+02  0.82389950788E+02  0.32515954611E+03  0.36115340311E+03  0.12500081654E+03 0.  0.
          5    1    3    3  501    0  0.84893871886E+02 -0.72267629544E+02  0.23603231777E+03  0.26108030335E+03  0.47000000000E+01 0. -1.
         -5    1    3    3    0  501 -0.37042622949E+02 -0.10122321243E+02  0.34719148162E+02  0.51981982950E+02  0.47000000000E+01 0. -1.
          5    1    4    4  502    0 -0.89153849639E+02  0.63450241352E+02  0.25379860395E+03  0.27642388355E+03  0.47000000000E+01 0.  1.
         -5    1    4    4    0  502  0.41302600701E+02  0.18939709436E+02  0.71360942161E+02  0.84729519557E+02  0.47000000000E+01 0.  1.
<mgrwt>
<rscale>  0 0.31536782E+03</rscale>
<asrwt>0</asrwt>
<pdfrwt beam="1">  1       21 0.97702046E-01 0.31536782E+03</pdfrwt>
<pdfrwt beam="2">  1       21 0.60234372E-02 0.31536782E+03</pdfrwt>
<totfact> 0.16358959E+05</totfact>
</mgrwt>
</event>
<event>
 8    1  0.9705063E-006  0.2951108E+03  0.7546771E-02  0.1087711E+00
         21   -1    0    0  504  503  0.00000000000E+00  0.00000000000E+00  0.25225070213E+03  0.25225070213E+03  0.00000000000E+00 0. -1.
         21   -1    0    0  503  504 -0.00000000000E+00 -0.00000000000E+00 -0.86313318616E+02  0.86313318616E+02  0.00000000000E+00 0. -1.
         25    2    1    2    0    0 -0.46355829770E+02 -0.58778070236E+02  0.56246830043E+02  0.15617482743E+03  0.12499258513E+03 0.  0.
         25    2    1    2    0    0  0.46355829770E+02  0.58778070236E+02  0.10969055347E+03  0.18238919332E+03  0.12502030165E+03 0.  0.
          5    1    3    3  501    0 -0.37863124286E+02  0.19547064756E+02 -0.19215982263E+02  0.46979228342E+02  0.47000000000E+01 0.  1.
         -5    1    3    3    0  501 -0.84927054835E+01 -0.78325134992E+02  0.75462812306E+02  0.10919559908E+03  0.47000000000E+01 0.  1.
          5    1    4    4  502    0  0.11005921392E+02  0.20651345470E+02 -0.27018610652E+02  0.36051403536E+02  0.47000000000E+01 0.  1.
         -5    1    4    4    0  502  0.35349908378E+02  0.38126724767E+02  0.13670916412E+03  0.14633778978E+03  0.47000000000E+01 0.  1.
<mgrwt>
<rscale>  0 0.29511079E+03</rscale>
<asrwt>0</asrwt>
<pdfrwt beam="1">  1       21 0.38807800E-01 0.29511079E+03</pdfrwt>
<pdfrwt beam="2">  1       21 0.13278972E-01 0.29511079E+03</pdfrwt>
<totfact> 0.30587172E+05</totfact>
</mgrwt>
</event>
<event>
 8    1  0.9705063E-006  0.2706958E+03  0.7546771E-02  0.1100882E+00
         21   -1    0    0  504  503  0.00000000000E+00  0.00000000000E+00  0.48195969345E+03  0.48195969345E+03  0.00000000000E+00 0.  1.
         21   -1    0    0  503  504 -0.00000000000E+00 -0.00000000000E+00 -0.38009515521E+02  0.38009515521E+02  0.00000000000E+00 0.  1.
         25    2    1    2    0    0 -0.44886989508E+02  0.20291407267E+02  0.25338253427E+03  0.28680079508E+03  0.12500161738E+03 0.  0.
         25    2    1    2    0    0  0.44886989508E+02 -0.20291407267E+02  0.19056764366E+03  0.23316841389E+03  0.12499959757E+03 0.  0.
          5    1    3    3  501    0 -0.68947687865E+02  0.52255991933E+02  0.21213465897E+03  0.22914553430E+03  0.47000000000E+01 0. -1.
         -5    1    3    3    0  501  0.24060698357E+02 -0.31964584666E+02  0.41247875305E+02  0.57655260779E+02  0.47000000000E+01 0. -1.
          5    1    4    4  502    0 -0.27853143717E+02  0.12367880723E+02  0.51294679943E+01  0.31259615008E+02  0.47000000000E+01 0. -1.
         -5    1    4    4    0  502  0.72740133225E+02 -0.32659287990E+02  0.18543817566E+03  0.20190879888E+03  0.47000000000E+01 0. -1.
<mgrwt>
<rscale>  0 0.27069580E+03</rscale>
<asrwt>0</asrwt>
<pdfrwt beam="1">  1       21 0.74147641E-01 0.27069580E+03</pdfrwt>
<pdfrwt beam="2">  1       21 0.58476181E-02 0.27069580E+03</pdfrwt>
<totfact> 0.32957120E+05</totfact>
</mgrwt>
</event>
<event>
 8    1  0.9705063E-006  0.4113077E+03  0.7546771E-02  0.1039933E+00
         21   -1    0    0  504  503  0.00000000000E+00  0.00000000000E+00  0.98450105274E+02  0.98450105274E+02  0.00000000000E+00 0.  1.
         21   -1    0    0  503  504 -0.00000000000E+00 -0.00000000000E+00 -0.42959332433E+03  0.42959332433E+03  0.00000000000E+00 0.  1.
         25    2    1    2    0    0 -0.11667906481E+03  0.81496223907E+02 -0.62760939983E+02  0.19954809406E+03  0.12499947032E+03 0.  0.
         25    2    1    2    0    0  0.11667906481E+03 -0.81496223907E+02 -0.26838227907E+03  0.32849533554E+03  0.12499799629E+03 0.  0.
          5    1    3    3  501    0 -0.14044964924E+03  0.66965488795E+02 -0.34214585857E+02  0.15938384029E+03  0.47000000000E+01 0. -1.
         -5    1    3    3    0  501  0.23770584430E+02  0.14530735112E+02 -0.28546354126E+02  0.40164253771E+02  0.47000000000E+01 0. -1.
          5    1    4    4  502    0 -0.54729801754E+01 -0.51629497846E+02 -0.33321788184E+02  0.61870753411E+02  0.47000000000E+01 0. -1.
         -5    1    4    4    0  502  0.12215204498E+03 -0.29866726061E+02 -0.23506049089E+03  0.26662458213E+03  0.47000000000E+01 0. -1.
<mgrwt>
<rscale>  0 0.41130771E+03</rscale>
<asrwt>0</asrwt>
<pdfrwt beam="1">  1       21 0.15146170E-01 0.41130771E+03</pdfrwt>
<pdfrwt beam="2">  1       21 0.66091282E-01 0.41130771E+03</pdfrwt>
<totfact> 0.75706682E+04</totfact>
</mgrwt>
</event>
<event>
 8    1  0.9705063E-006  0.3393910E+03  0.7546771E-02  0.1067056E+00
         21   -1    0    0  504  503  0.00000000000E+00  0.00000000000E+00  0.16474440829E+03  0.16474440829E+03  0.00000000000E+00 0.  1.
         21   -1    0    0  503  504 -0.00000000000E+00 -0.00000000000E+00 -0.17479538065E+03  0.17479538065E+03  0.00000000000E+00 0.  1.
         25    2    1    2    0    0 -0.33598897192E+02 -0.96242808969E+02  0.47726531188E+02  0.16821005303E+03  0.12500094396E+03 0.  0.
         25    2    1    2    0    0  0.33598897192E+02  0.96242808969E+02 -0.57777503552E+02  0.17132973592E+03  0.12499629723E+03 0.  0.
          5    1    3    3  501    0 -0.40308773761E+02 -0.14416112560E+02 -0.32013962168E+02  0.53661954094E+02  0.47000000000E+01 0. -1.
         -5    1    3    3    0  501  0.67098765698E+01 -0.81826696409E+02  0.79740493356E+02  0.11454809893E+03  0.47000000000E+01 0. -1.
          5    1    4    4  502    0  0.71151678140E+02  0.91024616661E+02 -0.64705885607E+02  0.13250276892E+03  0.47000000000E+01 0. -1.
         -5    1    4    4    0  502 -0.37552780948E+02  0.52181923081E+01  0.69283820549E+01  0.38826966992E+02  0.47000000000E+01 0. -1.
<mgrwt>
<rscale>  0 0.33939099E+03</rscale>
<asrwt>0</asrwt>
<pdfrwt beam="1">  1       21 0.25345294E-01 0.33939099E+03</pdfrwt>
<pdfrwt beam="2">  1       21 0.26891597E-01 0.33939099E+03</pdfrwt>
<totfact> 0.18713004E+05</totfact>
</mgrwt>
</event>
<event>
 8    1  0.9705063E-006  0.3007878E+03  0.7546771E-02  0.1084847E+00
         21   -1    0    0  504  503  0.00000000000E+00  0.00000000000E+00  0.11621918448E+04  0.11621918448E+04  0.00000000000E+00 0. -1.
         21   -1    0    0  503  504 -0.00000000000E+00 -0.00000000000E+00 -0.19461787765E+02  0.19461787765E+02  0.00000000000E+00 0. -1.
         25    2    1    2    0    0 -0.35024069244E+02 -0.26692120137E+02  0.29206001456E+03  0.32072170422E+03  0.12499681896E+03 0.  0.
         25    2    1    2    0    0  0.35024069244E+02  0.26692120137E+02  0.85067004250E+03  0.86093192837E+03  0.12500043748E+03 0.  0.
          5    1    3    3  501    0  0.29196274729E+02 -0.46183619893E+02  0.71379273543E+02  0.90013553957E+02  0.47000000000E+01 0. -1.
         -5    1    3    3    0  501 -0.64220343974E+02  0.19491499756E+02  0.22068074102E+03  0.23070815026E+03  0.47000000000E+01 0. -1.
          5    1    4    4  502    0 -0.14479982374E+01  0.32456927538E+02  0.52659242613E+02  0.62053482389E+02  0.47000000000E+01 0.  1.
         -5    1    4    4    0  502  0.36472067482E+02 -0.57648074016E+01  0.79801079989E+03  0.79887844598E+03  0.47000000000E+01 0.  1.
<mgrwt>
<rscale>  0 0.30078784E+03</rscale>
<asrwt>0</asrwt>
<pdfrwt beam="1">  1       21 0.17879869E+00 0.30078784E+03</pdfrwt>
<pdfrwt beam="2">  1       21 0.29941221E-02 0.30078784E+03</pdfrwt>
<totfact> 0.11228086E+05</totfact>
</mgrwt>
</event>
<event>
 8    1  0.9705063E-006  0.7780864E+03  0.7546771E-02  0.9592289E-01
         21   -1    0    0  504  503  0.00000000000E+00  0.00000000000E+00  0.14749665154E+03  0.14749665154E+03  0.00000000000E+00 0.  1.
         21   -1    0    0  503  504 -0.00000000000E+00 -0.00000000000E+00 -0.10261562471E+04  0.10261562471E+04  0.00000000000E+00 0.  1.
         25    2    1    2    0    0  0.19076064864E+03 -0.53416985278E+02  0.29216694963E+02  0.23604571396E+03  0.12498385666E+03 0.  0.
         25    2    1    2    0    0 -0.19076064864E+03  0.53416985278E+02 -0.90787629055E+03  0.93760718472E+03  0.12499949802E+03 0.  0.
          5    1    3    3  501    0  0.15770630889E+03  0.95052884358E+01 -0.24768400606E+01  0.15808179879E+03  0.47000000000E+01 0. -1.
         -5    1    3    3    0  501  0.33054339752E+02 -0.62922273714E+02  0.31693535024E+02  0.77963915166E+02  0.47000000000E+01 0. -1.
          5    1    4    4  502    0 -0.19969221085E+03  0.50708860905E+02 -0.90273819230E+03  0.92596258104E+03  0.47000000000E+01 0.  1.
         -5    1    4    4    0  502  0.89315622120E+01  0.27081243724E+01 -0.51380982480E+01  0.11644603676E+02  0.47000000000E+01 0.  1.
<mgrwt>
<rscale>  0 0.77808640E+03</rscale>
<asrwt>0</asrwt>
<pdfrwt beam="1">  1       21 0.22691793E-01 0.77808640E+03</pdfrwt>
<pdfrwt beam="2">  1       21 0.15787019E+00 0.77808640E+03</pdfrwt>
<totfact> 0.37658303E+03</totfact>
</mgrwt>
</event>
<event>
 8    1  0.9705063E-006  0.4873769E+03  0.7546771E-02  0.1017127E+00
         21   -1    0    0  504  503  0.00000000000E+00  0.00000000000E+00  0.71049361348E+03  0.71049361348E+03  0.00000000000E+00 0.  1.
         21   -1    0    0  503  504 -0.00000000000E+00 -0.00000000000E+00 -0.83581407238E+02  0.83581407238E+02  0.00000000000E+00 0.  1.
         25    2    1    2    0    0  0.16784731878E+03  0.11670601283E+03  0.24121534928E+03  0.34000397030E+03  0.12499935695E+03 0.  0.
         25    2    1    2    0    0 -0.16784731878E+03 -0.11670601283E+03  0.38569685696E+03  0.45407105041E+03  0.12500174999E+03 0.  0.
          5    1    3    3  501    0  0.15604058391E+03  0.61006487604E+02  0.22509457173E+03  0.28064231965E+03  0.47000000000E+01 0.  1.
         -5    1    3    3    0  501  0.11806734875E+02  0.55699525230E+02  0.16120777549E+02  0.59361650651E+02  0.47000000000E+01 0.  1.
          5    1    4    4  502    0 -0.61051195591E+02 -0.73887987048E+01  0.33657915249E+02  0.70262280694E+02  0.47000000000E+01 0.  1.
         -5    1    4    4    0  502 -0.10679612319E+03 -0.10931721413E+03  0.35203894171E+03  0.38380876972E+03  0.47000000000E+01 0.  1.
<mgrwt>
<rscale>  0 0.48737688E+03</rscale>
<asrwt>0</asrwt>
<pdfrwt beam="1">  1       21 0.10930671E+00 0.48737688E+03</pdfrwt>
<pdfrwt beam="2">  1       21 0.12858679E-01 0.48737688E+03</pdfrwt>
<totfact> 0.30927978E+04</totfact>
</mgrwt>
</event>
<event>
 8    1  0.9705063E-006  0.2822807E+03  0.7546771E-02  0.1094450E+00
         21   -1    0    0  504  503  0.00000000000E+00  0.00000000000E+00  0.24613641193E+03  0.24613641193E+03  0.00000000000E+00 0. -1.
         21   -1    0    0  503  504 -0.00000000000E+00 -0.00000000000E+00 -0.80933185837E+02  0.80933185837E+02  0.00000000000E+00 0. -1.
         25    2    1    2    0    0  0.52875231321E+01  0.42866098045E+02  0.25509426319E+02  0.13470207532E+03  0.12501383124E+03 0.  0.
         25    2    1    2    0    0 -0.52875231321E+01 -0.42866098045E+02  0.13969379977E+03  0.19236752245E+03  0.12500178293E+03 0.  0.
          5    1    3    3  501    0  0.35184027555E+02  0.70594547770E+02  0.43144727426E+02  0.90028126019E+02  0.47000000000E+01 0.  1.
         -5    1    3    3    0  501 -0.29896504423E+02 -0.27728449725E+02 -0.17635301107E+02  0.44673949299E+02  0.47000000000E+01 0.  1.
          5    1    4    4  502    0  0.39849290317E+01  0.35730922983E+02  0.94253549265E+02  0.10098712822E+03  0.47000000000E+01 0.  1.
         -5    1    4    4    0  502 -0.92724521638E+01 -0.78597021028E+02  0.45440250507E+02  0.91380394231E+02  0.47000000000E+01 0.  1.
<mgrwt>
<rscale>  0 0.28228074E+03</rscale>
<asrwt>0</asrwt>
<pdfrwt beam="1">  1       21 0.37867140E-01 0.28228074E+03</pdfrwt>
<pdfrwt beam="2">  1       21 0.12451259E-01 0.28228074E+03</pdfrwt>
<totfact> 0.36220882E+05</totfact>
</mgrwt>
</event>
<event>
 8    1  0.9705063E-006  0.3142445E+03  0.7546771E-02  0.1078329E+00
         21   -1    0    0  504  503  0.00000000000E+00  0.00000000000E+00  0.11051666703E+03  0.11051666703E+03  0.00000000000E+00 0.  1.
         21   -1    0    0  503  504 -0.00000000000E+00 -0.00000000000E+00 -0.22338172849E+03  0.22338172849E+03  0.00000000000E+00 0.  1.
         25    2    1    2    0    0  0.78674069050E+02 -0.47035867795E+02 -0.29015071595E+02  0.15767304730E+03  0.12496772969E+03 0.  0.
         25    2    1    2    0    0 -0.78674069050E+02  0.47035867795E+02 -0.83849989863E+02  0.17622534822E+03  0.12499028185E+03 0.  0.
          5    1    3    3  501    0 -0.19011642376E+02 -0.53441580085E+02 -0.12690779555E+02  0.58314585770E+02  0.47000000000E+01 0.  1.
         -5    1    3    3    0  501  0.97685711426E+02  0.64057122904E+01 -0.16324292040E+02  0.99358461529E+02  0.47000000000E+01 0.  1.
          5    1    4    4  502    0 -0.15048916209E+02  0.11981409591E+02  0.33041175063E+02  0.38520556907E+02  0.47000000000E+01 0. -1.
         -5    1    4    4    0  502 -0.63625152841E+02  0.35054458204E+02 -0.11689116493E+03  0.13770479132E+03  0.47000000000E+01 0. -1.
<mgrwt>
<rscale>  0 0.31424452E+03</rscale>
<asrwt>0</asrwt>
<pdfrwt beam="1">  1       21 0.17002564E-01 0.31424452E+03</pdfrwt>
<pdfrwt beam="2">  1       21 0.34366420E-01 0.31424452E+03</pdfrwt>
<totfact> 0.24706694E+05</totfact>
</mgrwt>
</event>
<event>
 8    1  0.9705063E-006  0.2810002E+03  0.7546771E-02  0.1095144E+00
         21   -1    0    0  504  503  0.00000000000E+00  0.00000000000E+00  0.19869708551E+03  0.19869708551E+03  0.00000000000E+00 0. -1.
         21   -1    0    0  503  504 -0.00000000000E+00 -0.00000000000E+00 -0.99348637638E+02  0.99348637638E+02  0.00000000000E+00 0. -1.
         25    2    1    2    0    0  0.63622750283E+02 -0.81065042066E+01  0.51151593727E+02  0.14951495219E+03  0.12499866248E+03 0.  0.
         25    2    1    2    0    0 -0.63622750283E+02  0.81065042066E+01  0.48196854143E+02  0.14853077096E+03  0.12499953363E+03 0.  0.
          5    1    3    3  501    0 -0.95485567052E+01 -0.42839449517E+02  0.52217786369E+02  0.68375292200E+02  0.47000000000E+01 0.  1.
         -5    1    3    3    0  501  0.73171306988E+02  0.34732945311E+02 -0.10661926425E+01  0.81139659988E+02  0.47000000000E+01 0.  1.
          5    1    4    4  502    0  0.13083931624E+02  0.41114330598E+02 -0.12526642861E+02  0.45172826219E+02  0.47000000000E+01 0. -1.
         -5    1    4    4    0  502 -0.76706681907E+02 -0.33007826391E+02  0.60723497004E+02  0.10335794474E+03  0.47000000000E+01 0. -1.
<mgrwt>
<rscale>  0 0.28100025E+03</rscale>
<asrwt>0</asrwt>
<pdfrwt beam="1">  1       21 0.30568782E-01 0.28100025E+03</pdfrwt>
<pdfrwt beam="2">  1       21 0.15284406E-01 0.28100025E+03</pdfrwt>
<totfact> 0.38215293E+05</totfact>
</mgrwt>
</event>
<event>
 8    1  0.9705063E-006  0.3114163E+03  0.7546771E-02  0.1079669E+00
         21   -1    0    0  504  503  0.00000000000E+00  0.00000000000E+00  0.89722600859E+03  0.89722600859E+03  0.00000000000E+00 0. -1.
         21   -1    0    0  503  504 -0.00000000000E+00 -0.00000000000E+00 -0.27022215982E+02  0.27022215982E+02  0.00000000000E+00 0. -1.
         25    2    1    2    0    0  0.61322135060E+02 -0.61724274297E+02  0.53132878708E+03  0.55272714732E+03  0.12500691627E+03 0.  0.
         25    2    1    2    0    0 -0.61322135060E+02  0.61724274297E+02  0.33887500553E+03  0.37152107725E+03  0.12498540390E+03 0.  0.
          5    1    3    3  501    0 -0.21090601738E+02  0.14593102400E+02  0.22343977324E+03  0.22495598322E+03  0.47000000000E+01 0. -1.
         -5    1    3    3    0  501  0.82412736798E+02 -0.76317376697E+02  0.30788901384E+03  0.32777116410E+03  0.47000000000E+01 0. -1.
          5    1    4    4  502    0 -0.67956515602E+02 -0.12910895785E+00  0.79233635284E+02  0.10449001695E+03  0.47000000000E+01 0.  1.
         -5    1    4    4    0  502  0.66343805420E+01  0.61853383255E+02  0.25964137024E+03  0.26703106030E+03  0.47000000000E+01 0.  1.
<mgrwt>
<rscale>  0 0.31141635E+03</rscale>
<asrwt>0</asrwt>
<pdfrwt beam="1">  1       21 0.13803475E+00 0.31141635E+03</pdfrwt>
<pdfrwt beam="2">  1       21 0.41572647E-02 0.31141635E+03</pdfrwt>
<totfact> 0.13054247E+05</totfact>
</mgrwt>
</event>
<event>
 8    1  0.9705063E-006  0.2671271E+03  0.7546771E-02  0.1102935E+00
         21   -1    0    0  504  503  0.00000000000E+00  0.00000000000E+00  0.13431174731E+03  0.13431174731E+03  0.00000000000E+00 0.  1.
         21   -1    0    0  503  504 -0.00000000000E+00 -0.00000000000E+00 -0.13281953104E+03  0.13281953104E+03  0.00000000000E+00 0.  1.
         25    2    1    2    0    0 -0.26058226893E+02  0.25416033242E+02  0.30583086900E+02  0.13373716857E+03  0.12500119647E+03 0.  0.
         25    2    1    2    0    0  0.26058226893E+02 -0.25416033242E+02 -0.29090870629E+02  0.13339410977E+03  0.12499081499E+03 0.  0.
          5    1    3    3  501    0  0.78695231451E+01  0.65975168088E+02 -0.94117741443E+01  0.67270526171E+02  0.47000000000E+01 0.  1.
         -5    1    3    3    0  501 -0.33927750038E+02 -0.40559134846E+02  0.39994861044E+02  0.66466642401E+02  0.47000000000E+01 0.  1.
          5    1    4    4  502    0 -0.49928050485E+02 -0.14329120566E+02 -0.33329451690E+01  0.52262151170E+02  0.47000000000E+01 0.  1.
         -5    1    4    4    0  502  0.75986277378E+02 -0.11086912675E+02 -0.25757925460E+02  0.81131958601E+02  0.47000000000E+01 0.  1.
<mgrwt>
<rscale>  0 0.26712711E+03</rscale>
<asrwt>0</asrwt>
<pdfrwt beam="1">  1       21 0.20663346E-01 0.26712711E+03</pdfrwt>
<pdfrwt beam="2">  1       21 0.20433774E-01 0.26712711E+03</pdfrwt>
<totfact> 0.47461289E+05</totfact>
</mgrwt>
</event>
<event>
 8    1  0.9705063E-006  0.3100875E+03  0.7546771E-02  0.1080304E+00
         21   -1    0    0  504  503  0.00000000000E+00  0.00000000000E+00  0.75494847777E+03  0.75494847777E+03  0.00000000000E+00 0.  1.
         21   -1    0    0  503  504 -0.00000000000E+00 -0.00000000000E+00 -0.31841331966E+02  0.31841331966E+02  0.00000000000E+00 0.  1.
         25    2    1    2    0    0 -0.54699919339E+01 -0.70279434019E+00  0.12921096809E+03  0.17986060738E+03  0.12499579625E+03 0.  0.
         25    2    1    2    0    0  0.54699919339E+01  0.70279434019E+00  0.59389617771E+03  0.60692920236E+03  0.12497988655E+03 0.  0.
          5    1    3    3  501    0  0.44396098903E+02  0.51179530938E+01  0.42830781733E+01  0.45140245905E+02  0.47000000000E+01 0. -1.
         -5    1    3    3    0  501 -0.49866090837E+02 -0.58207474339E+01  0.12492788992E+03  0.13472036147E+03  0.47000000000E+01 0. -1.
          5    1    4    4  502    0  0.11646421697E+02 -0.36253664044E+02  0.57019699035E+02  0.68726293170E+02  0.47000000000E+01 0. -1.
         -5    1    4    4    0  502 -0.61764297631E+01  0.36956458384E+02  0.53687647868E+03  0.53820290919E+03  0.47000000000E+01 0. -1.
<mgrwt>
<rscale>  0 0.31008750E+03</rscale>
<asrwt>0</asrwt>
<pdfrwt beam="1">  1       21 0.11614591E+00 0.31008750E+03</pdfrwt>
<pdfrwt beam="2">  1       21 0.48986670E-02 0.31008750E+03</pdfrwt>
<totfact> 0.15330305E+05</totfact>
</mgrwt>
</event>
<event>
 8    1  0.9705063E-006  0.3306470E+03  0.7546771E-02  0.1070851E+00
         21   -1    0    0  504  503  0.00000000000E+00  0.00000000000E+00  0.94367272741E+03  0.94367272741E+03  0.00000000000E+00 0.  1.
         21   -1    0    0  503  504 -0.00000000000E+00 -0.00000000000E+00 -0.28963288118E+02  0.28963288118E+02  0.00000000000E+00 0.  1.
         25    2    1    2    0    0  0.36803376132E+02  0.73416229711E+02  0.25007646294E+03  0.29138318370E+03  0.12498596381E+03 0.  0.
         25    2    1    2    0    0 -0.36803376132E+02 -0.73416229711E+02  0.66463297636E+03  0.68125283183E+03  0.12499598528E+03 0.  0.
          5    1    3    3  501    0 -0.28265291464E+02  0.64393176351E+02  0.18840601036E+03  0.20115745724E+03  0.47000000000E+01 0. -1.
         -5    1    3    3    0  501  0.65068667596E+02  0.90230533601E+01  0.61670452573E+02  0.90225726460E+02  0.47000000000E+01 0. -1.
          5    1    4    4  502    0 -0.48267830045E+02 -0.82884730138E+02  0.65683491469E+03  0.66381763841E+03  0.47000000000E+01 0. -1.
         -5    1    4    4    0  502  0.11464453913E+02  0.94685004272E+01  0.77980616685E+01  0.17435193422E+02  0.47000000000E+01 0. -1.
<mgrwt>
<rscale>  0 0.33064703E+03</rscale>
<asrwt>0</asrwt>
<pdfrwt beam="1">  1       21 0.14518040E+00 0.33064703E+03</pdfrwt>
<pdfrwt beam="2">  1       21 0.44558912E-02 0.33064703E+03</pdfrwt>
<totfact> 0.10095832E+05</totfact>
</mgrwt>
</event>
<event>
 8    1  0.9705063E-006  0.2550739E+03  0.7546771E-02  0.1110140E+00
         21   -1    0    0  504  503  0.00000000000E+00  0.00000000000E+00  0.23933742462E+03  0.23933742462E+03  0.00000000000E+00 0. -1.
         21   -1    0    0  503  504 -0.00000000000E+00 -0.00000000000E+00 -0.67961275237E+02  0.67961275237E+02  0.00000000000E+00 0. -1.
         25    2    1    2    0    0 -0.18171753757E+02 -0.13087076907E+02  0.99920314993E+02  0.16158886321E+03  0.12500162859E+03 0.  0.
         25    2    1    2    0    0  0.18171753757E+02  0.13087076907E+02  0.71455834389E+02  0.14570983664E+03  0.12499574397E+03 0.  0.
          5    1    3    3  501    0 -0.46399322003E+02 -0.44242204901E+02  0.10047847836E+03  0.11928237251E+03  0.47000000000E+01 0. -1.
         -5    1    3    3    0  501  0.28227568247E+02  0.31155127994E+02 -0.55816336894E+00  0.42306490705E+02  0.47000000000E+01 0. -1.
          5    1    4    4  502    0  0.21398751516E+02 -0.48631172433E+02  0.63952808281E+02  0.83276342293E+02  0.47000000000E+01 0. -1.
         -5    1    4    4    0  502 -0.32269977596E+01  0.61718249340E+02  0.75030261078E+01  0.62433494351E+02  0.47000000000E+01 0. -1.
<mgrwt>
<rscale>  0 0.25507392E+03</rscale>
<asrwt>0</asrwt>
<pdfrwt beam="1">  1       21 0.36821142E-01 0.25507392E+03</pdfrwt>
<pdfrwt beam="2">  1       21 0.10455581E-01 0.25507392E+03</pdfrwt>
<totfact> 0.52711680E+05</totfact>
</mgrwt>
</event>
<event>
 8    1  0.9705063E-006  0.4194032E+03  0.7546771E-02  0.1037261E+00
         21   -1    0    0  504  503  0.00000000000E+00  0.00000000000E+00  0.19510273541E+03  0.19510273541E+03  0.00000000000E+00 0. -1.
         21   -1    0    0  503  504 -0.00000000000E+00 -0.00000000000E+00 -0.22539281091E+03  0.22539281091E+03  0.00000000000E+00 0. -1.
         25    2    1    2    0    0  0.44521818887E+02 -0.15610215202E+03 -0.59924509089E+02  0.21348630321E+03  0.12504151569E+03 0.  0.
         25    2    1    2    0    0 -0.44521818887E+02  0.15610215202E+03  0.29634433591E+02  0.20700924311E+03  0.12499821141E+03 0.  0.
          5    1    3    3  501    0  0.52698134076E+02 -0.13933343211E+03 -0.92674343981E+02  0.17550362580E+03  0.47000000000E+01 0.  1.
         -5    1    3    3    0  501 -0.81763151893E+01 -0.16768719914E+02  0.32749834892E+02  0.37982677408E+02  0.47000000000E+01 0.  1.
          5    1    4    4  502    0  0.36593925386E+02  0.59940188068E+02  0.39534266807E+02  0.80727874819E+02  0.47000000000E+01 0.  1.
         -5    1    4    4    0  502 -0.81115744273E+02  0.96161963953E+02 -0.98998332155E+01  0.12628136829E+03  0.47000000000E+01 0.  1.
<mgrwt>
<rscale>  0 0.41940317E+03</rscale>
<asrwt>0</asrwt>
<pdfrwt beam="1">  1       21 0.30015805E-01 0.41940317E+03</pdfrwt>
<pdfrwt beam="2">  1       21 0.34675817E-01 0.41940317E+03</pdfrwt>
<totfact> 0.79789165E+04</totfact>
</mgrwt>
</event>
<event>
 8    1  0.9705063E-006  0.2766365E+03  0.7546771E-02  0.1097540E+00
         21   -1    0    0  504  503  0.00000000000E+00  0.00000000000E+00  0.10255862578E+04  0.10255862578E+04  0.00000000000E+00 0. -1.
         21   -1    0    0  503  504 -0.00000000000E+00 -0.00000000000E+00 -0.18654629227E+02  0.18654629227E+02  0.00000000000E+00 0. -1.
         25    2    1    2    0    0  0.16857110621E+02  0.23199559013E+02  0.30788247753E+03  0.33352518212E+03  0.12500018168E+03 0.  0.
         25    2    1    2    0    0 -0.16857110621E+02 -0.23199559013E+02  0.69904915106E+03  0.71071570492E+03  0.12499886366E+03 0.  0.
          5    1    3    3  501    0  0.49364238977E+02 -0.36437383076E+01  0.27604604852E+03  0.28048817412E+03  0.47000000000E+01 0. -1.
         -5    1    3    3    0  501 -0.32507128356E+02  0.26843297321E+02  0.31836429011E+02  0.53037007996E+02  0.47000000000E+01 0. -1.
          5    1    4    4  502    0 -0.27626121002E+02 -0.72023758635E+02  0.38548050886E+03  0.39315129032E+03  0.47000000000E+01 0. -1.
         -5    1    4    4    0  502  0.10769010381E+02  0.48824199622E+02  0.31356864220E+03  0.31756441461E+03  0.47000000000E+01 0. -1.
<mgrwt>
<rscale>  0 0.27663645E+03</rscale>
<asrwt>0</asrwt>
<pdfrwt beam="1">  1       21 0.15778246E+00 0.27663645E+03</pdfrwt>
<pdfrwt beam="2">  1       21 0.28699437E-02 0.27663645E+03</pdfrwt>
<totfact> 0.17222190E+05</totfact>
</mgrwt>
</event>
<event>
 8    1  0.9705063E-006  0.3463437E+03  0.7546771E-02  0.1064126E+00
         21   -1    0    0  504  503  0.00000000000E+00  0.00000000000E+00  0.51327973144E+03  0.51327973144E+03  0.00000000000E+00 0.  1.
         21   -1    0    0  503  504 -0.00000000000E+00 -0.00000000000E+00 -0.58425252120E+02  0.58425252120E+02  0.00000000000E+00 0.  1.
         25    2    1    2    0    0  0.39442574736E+01  0.11778441070E+03  0.19168054123E+03  0.25739988649E+03  0.12499818841E+03 0.  0.
         25    2    1    2    0    0 -0.39442574736E+01 -0.11778441070E+03  0.26317393809E+03  0.31430509707E+03  0.12505377958E+03 0.  0.
          5    1    3    3  501    0  0.41217004877E+02  0.85419516969E+02  0.50055908378E+02  0.10734532749E+03  0.47000000000E+01 0. -1.
         -5    1    3    3    0  501 -0.37272747404E+02  0.32364893727E+02  0.14162463286E+03  0.15005455900E+03  0.47000000000E+01 0. -1.
          5    1    4    4  502    0 -0.93947524635E+01 -0.13050864140E+03  0.26851933797E+03  0.29873983953E+03  0.47000000000E+01 0. -1.
         -5    1    4    4    0  502  0.54504949900E+01  0.12724230705E+02 -0.53453998824E+01  0.15565257549E+02  0.47000000000E+01 0. -1.
<mgrwt>
<rscale>  0 0.34634375E+03</rscale>
<asrwt>0</asrwt>
<pdfrwt beam="1">  1       21 0.78966110E-01 0.34634375E+03</pdfrwt>
<pdfrwt beam="2">  1       21 0.89885007E-02 0.34634375E+03</pdfrwt>
<totfact> 0.13243484E+05</totfact>
</mgrwt>
</event>
<event>
 8    1  0.9705063E-006  0.3022761E+03  0.7546771E-02  0.1084108E+00
         21   -1    0    0  504  503  0.00000000000E+00  0.00000000000E+00  0.60988717276E+02  0.60988717276E+02  0.00000000000E+00 0. -1.
         21   -1    0    0  503  504 -0.00000000000E+00 -0.00000000000E+00 -0.37453996496E+03  0.37453996496E+03  0.00000000000E+00 0. -1.
         25    2    1    2    0    0 -0.65297944338E+02  0.14352168463E+02 -0.23230597676E+03  0.27214046657E+03  0.12499824172E+03 0.  0.
         25    2    1    2    0    0  0.65297944338E+02 -0.14352168463E+02 -0.81245270924E+02  0.16338821567E+03  0.12500043479E+03 0.  0.
          5    1    3    3  501    0 -0.56203999368E+02 -0.17419834949E+02 -0.28373549436E+02  0.65494186782E+02  0.47000000000E+01 0.  1.
         -5    1    3    3    0  501 -0.90939449696E+01  0.31772003413E+02 -0.20393242732E+03  0.20664627979E+03  0.47000000000E+01 0.  1.
          5    1    4    4  502    0  0.86924341644E+02 -0.46035684965E+02 -0.38423623813E+02  0.10570520483E+03  0.47000000000E+01 0.  1.
         -5    1    4    4    0  502 -0.21626397307E+02  0.31683516501E+02 -0.42821647111E+02  0.57683010841E+02  0.47000000000E+01 0.  1.
<mgrwt>
<rscale>  0 0.30227611E+03</rscale>
<asrwt>0</asrwt>
<pdfrwt beam="1">  1       21 0.93828796E-02 0.30227611E+03</pdfrwt>
<pdfrwt beam="2">  1       21 0.57621533E-01 0.30227611E+03</pdfrwt>
<totfact> 0.24947429E+05</totfact>
</mgrwt>
</event>
<event>
 8    1  0.9705063E-006  0.3083562E+03  0.7546771E-02  0.1081136E+00
         21   -1    0    0  504  503  0.00000000000E+00  0.00000000000E+00  0.14921609412E+04  0.14921609412E+04  0.00000000000E+00 0. -1.
         21   -1    0    0  503  504 -0.00000000000E+00 -0.00000000000E+00 -0.15930511223E+02  0.15930511223E+02  0.00000000000E+00 0. -1.
         25    2    1    2    0    0  0.48335584270E+02 -0.26199626816E+02  0.10881501128E+04  0.10966852369E+04  0.12500036693E+03 0.  0.
         25    2    1    2    0    0 -0.48335584270E+02  0.26199626816E+02  0.38808031713E+03  0.41140621546E+03  0.12500396963E+03 0.  0.
          5    1    3    3  501    0 -0.26625399092E+02 -0.30453798389E+02  0.14710170292E+03  0.15263468386E+03  0.47000000000E+01 0. -1.
         -5    1    3    3    0  501  0.74960983362E+02  0.42541715726E+01  0.94104840988E+03  0.94405055306E+03  0.47000000000E+01 0. -1.
          5    1    4    4  502    0 -0.55236362535E+02  0.54848332996E+02  0.12992633619E+03  0.15153329078E+03  0.47000000000E+01 0. -1.
         -5    1    4    4    0  502  0.69007782648E+01 -0.28648706179E+02  0.25815398094E+03  0.25987292468E+03  0.47000000000E+01 0. -1.
<mgrwt>
<rscale>  0 0.30835620E+03</rscale>
<asrwt>0</asrwt>
<pdfrwt beam="1">  1       21 0.22956311E+00 0.30835620E+03</pdfrwt>
<pdfrwt beam="2">  1       21 0.24508491E-02 0.30835620E+03</pdfrwt>
<totfact> 0.72904358E+04</totfact>
</mgrwt>
</event>
<event>
 8    1  0.9705063E-006  0.2511174E+03  0.7546771E-02  0.1112601E+00
         21   -1    0    0  504  503  0.00000000000E+00  0.00000000000E+00  0.14075630994E+02  0.14075630994E+02  0.00000000000E+00 0. -1.
         21   -1    0    0  503  504 -0.00000000000E+00 -0.00000000000E+00 -0.11200201053E+04  0.11200201053E+04  0.00000000000E+00 0. -1.
         25    2    1    2    0    0 -0.56924720623E+01  0.96025366682E+01 -0.56925195016E+03  0.58292153251E+03  0.12500046939E+03 0.  0.
         25    2    1    2    0    0  0.56924720623E+01 -0.96025366682E+01 -0.53669252409E+03  0.55117420374E+03  0.12501809669E+03 0.  0.
          5    1    3    3  501    0 -0.21294258879E+02 -0.45931213665E+02 -0.41617284721E+03  0.41926727824E+03  0.47000000000E+01 0.  1.
         -5    1    3    3    0  501  0.15601786817E+02  0.55533750333E+02 -0.15307910296E+03  0.16365425427E+03  0.47000000000E+01 0.  1.
          5    1    4    4  502    0  0.17193986483E+01 -0.17066744850E+02 -0.54048915559E+03  0.54078170034E+03  0.47000000000E+01 0. -1.
         -5    1    4    4    0  502  0.39730734141E+01  0.74642081815E+01  0.37966314984E+01  0.10392503397E+02  0.47000000000E+01 0. -1.
<mgrwt>
<rscale>  0 0.25111742E+03</rscale>
<asrwt>0</asrwt>
<pdfrwt beam="1">  1       21 0.21654819E-02 0.25111742E+03</pdfrwt>
<pdfrwt beam="2">  1       21 0.17231077E+00 0.25111742E+03</pdfrwt>
<totfact> 0.21705566E+05</totfact>
</mgrwt>
</event>
<event>
 8    1  0.9705063E-006  0.3551692E+03  0.7546771E-02  0.1060513E+00
         21   -1    0    0  504  503  0.00000000000E+00  0.00000000000E+00  0.14808816688E+03  0.14808816688E+03  0.00000000000E+00 0. -1.
         21   -1    0    0  503  504 -0.00000000000E+00 -0.00000000000E+00 -0.21295621210E+03  0.21295621210E+03  0.00000000000E+00 0. -1.
         25    2    1    2    0    0  0.11806088126E+03 -0.40023295347E+02 -0.12863897782E+02  0.17700740286E+03  0.12500361973E+03 0.  0.
         25    2    1    2    0    0 -0.11806088126E+03  0.40023295347E+02 -0.52004147432E+02  0.18403697612E+03  0.12499976551E+03 0.  0.
          5    1    3    3  501    0  0.37916339135E+02 -0.68449392350E+02  0.27084445422E+02  0.82937478081E+02  0.47000000000E+01 0.  1.
         -5    1    3    3    0  501  0.80144542123E+02  0.28426097003E+02 -0.39948343204E+02  0.94069924778E+02  0.47000000000E+01 0.  1.
          5    1    4    4  502    0 -0.49396779576E+02  0.81519423359E+02 -0.36578722054E+02  0.10220347902E+03  0.47000000000E+01 0.  1.
         -5    1    4    4    0  502 -0.68664101682E+02 -0.41496128012E+02 -0.15425425378E+02  0.81833497101E+02  0.47000000000E+01 0.  1.
<mgrwt>
<rscale>  0 0.35516923E+03</rscale>
<asrwt>0</asrwt>
<pdfrwt beam="1">  1       21 0.22782795E-01 0.35516923E+03</pdfrwt>
<pdfrwt beam="2">  1       21 0.32762494E-01 0.35516923E+03</pdfrwt>
<totfact> 0.15513368E+05</totfact>
</mgrwt>
</event>
<event>
 8    1  0.9705063E-006  0.2508117E+03  0.7546771E-02  0.1112793E+00
         21   -1    0    0  504  503  0.00000000000E+00  0.00000000000E+00  0.18268889890E+03  0.18268889890E+03  0.00000000000E+00 0.  1.
         21   -1    0    0  503  504 -0.00000000000E+00 -0.00000000000E+00 -0.86084181154E+02  0.86084181154E+02  0.00000000000E+00 0.  1.
         25    2    1    2    0    0 -0.76204180946E+01 -0.59072438743E+01  0.51886609075E+02  0.13566072636E+03  0.12497458211E+03 0.  0.
         25    2    1    2    0    0  0.76204180946E+01  0.59072438743E+01  0.44718108667E+02  0.13311235369E+03  0.12500489254E+03 0.  0.
          5    1    3    3  501    0 -0.57245276907E+02 -0.14693243299E+01  0.62080689911E+02  0.84588904130E+02  0.47000000000E+01 0.  1.
         -5    1    3    3    0  501  0.49624858813E+02 -0.44379195445E+01 -0.10194080836E+02  0.51071822233E+02  0.47000000000E+01 0.  1.
          5    1    4    4  502    0 -0.20771540611E+02 -0.36629316714E+01  0.82145260558E+02  0.84940024723E+02  0.47000000000E+01 0. -1.
         -5    1    4    4    0  502  0.28391958706E+02  0.95701755457E+01 -0.37427151891E+02  0.48172328964E+02  0.47000000000E+01 0. -1.
<mgrwt>
<rscale>  0 0.25081168E+03</rscale>
<asrwt>0</asrwt>
<pdfrwt beam="1">  1       21 0.28105984E-01 0.25081168E+03</pdfrwt>
<pdfrwt beam="2">  1       21 0.13243720E-01 0.25081168E+03</pdfrwt>
<totfact> 0.58839851E+05</totfact>
</mgrwt>
</event>
<event>
 8    1  0.9705063E-006  0.2814929E+03  0.7546771E-02  0.1094876E+00
         21   -1    0    0  504  503  0.00000000000E+00  0.00000000000E+00  0.35988229413E+02  0.35988229413E+02  0.00000000000E+00 0. -1.
         21   -1    0    0  503  504 -0.00000000000E+00 -0.00000000000E+00 -0.55044570289E+03  0.55044570289E+03  0.00000000000E+00 0. -1.
         25    2    1    2    0    0 -0.17713868628E+02 -0.54553098498E+02 -0.19505908335E+03  0.23867493524E+03  0.12501142755E+03 0.  0.
         25    2    1    2    0    0  0.17713868628E+02  0.54553098498E+02 -0.31939839013E+03  0.34775899706E+03  0.12502466447E+03 0.  0.
          5    1    3    3  501    0 -0.65968067368E+02 -0.20958602463E+02 -0.14715266899E+03  0.16268695990E+03  0.47000000000E+01 0.  1.
         -5    1    3    3    0  501  0.48254198740E+02 -0.33594496035E+02 -0.47906414356E+02  0.75987975340E+02  0.47000000000E+01 0.  1.
          5    1    4    4  502    0  0.51349280196E+02 -0.41414833597E+01 -0.22890261478E+03  0.23467508925E+03  0.47000000000E+01 0. -1.
         -5    1    4    4    0  502 -0.33635411567E+02  0.58694581858E+02 -0.90495775351E+02  0.11308390782E+03  0.47000000000E+01 0. -1.
<mgrwt>
<rscale>  0 0.28149292E+03</rscale>
<asrwt>0</asrwt>
<pdfrwt beam="1">  1       21 0.55366509E-02 0.28149292E+03</pdfrwt>
<pdfrwt beam="2">  1       21 0.84683951E-01 0.28149292E+03</pdfrwt>
<totfact> 0.26684036E+05</totfact>
</mgrwt>
</event>
<event>
 8    1  0.9705063E-006  0.3221710E+03  0.7546771E-02  0.1074654E+00
         21   -1    0    0  504  503  0.00000000000E+00  0.00000000000E+00  0.87252174786E+02  0.87252174786E+02  0.00000000000E+00 0. -1.
         21   -1    0    0  503  504 -0.00000000000E+00 -0.00000000000E+00 -0.29739711709E+03  0.29739711709E+03  0.00000000000E+00 0. -1.
         25    2    1    2    0    0 -0.11459200933E+02 -0.10064835630E+03 -0.95382397876E+02  0.18704103604E+03  0.12500056971E+03 0.  0.
         25    2    1    2    0    0  0.11459200933E+02  0.10064835630E+03 -0.11476254443E+03  0.19760825584E+03  0.12496870112E+03 0.  0.
          5    1    3    3  501    0  0.58743861297E+01  0.19346853480E+02  0.12881075520E+02  0.24429925471E+02  0.47000000000E+01 0. -1.
         -5    1    3    3    0  501 -0.17333587063E+02 -0.11999520978E+03 -0.10826347340E+03  0.16261111057E+03  0.47000000000E+01 0. -1.
          5    1    4    4  502    0  0.29856547914E+02  0.12552739569E+03 -0.98076422430E+02  0.16214072640E+03  0.47000000000E+01 0. -1.
         -5    1    4    4    0  502 -0.18397346981E+02 -0.24879039388E+02 -0.16686122001E+02  0.35467529435E+02  0.47000000000E+01 0. -1.
<mgrwt>
<rscale>  0 0.32217104E+03</rscale>
<asrwt>0</asrwt>
<pdfrwt beam="1">  1       21 0.13423412E-01 0.32217104E+03</pdfrwt>
<pdfrwt beam="2">  1       21 0.45753402E-01 0.32217104E+03</pdfrwt>
<totfact> 0.21254010E+05</totfact>
</mgrwt>
</event>
<event>
 8    1  0.9705063E-006  0.3768259E+03  0.7546771E-02  0.1052113E+00
         21   -1    0    0  504  503  0.00000000000E+00  0.00000000000E+00  0.59499502328E+02  0.59499502328E+02  0.00000000000E+00 0. -1.
         21   -1    0    0  503  504 -0.00000000000E+00 -0.00000000000E+00 -0.59663433943E+03  0.59663433943E+03  0.00000000000E+00 0. -1.
         25    2    1    2    0    0  0.81210663575E+02  0.11438536303E+03 -0.29312871567E+03  0.34817870344E+03  0.12499912970E+03 0.  0.
         25    2    1    2    0    0 -0.81210663575E+02 -0.11438536303E+03 -0.24400612143E+03  0.30795513832E+03  0.12497278410E+03 0.  0.
          5    1    3    3  501    0 -0.51821384182E+01 -0.71463066113E+01  0.75462062082E+01  0.12528347254E+02  0.47000000000E+01 0. -1.
         -5    1    3    3    0  501  0.86392801993E+02  0.12153166964E+03 -0.30067492188E+03  0.33565035618E+03  0.47000000000E+01 0. -1.
          5    1    4    4  502    0 -0.11868888492E+02 -0.45067428339E+02 -0.19047042338E+03  0.19614539452E+03  0.47000000000E+01 0.  1.
         -5    1    4    4    0  502 -0.69341775083E+02 -0.69317934688E+02 -0.53535698054E+02  0.11180974379E+03  0.47000000000E+01 0.  1.
<mgrwt>
<rscale>  0 0.37682593E+03</rscale>
<asrwt>0</asrwt>
<pdfrwt beam="1">  1       21 0.91537703E-02 0.37682593E+03</pdfrwt>
<pdfrwt beam="2">  1       21 0.91789891E-01 0.37682593E+03</pdfrwt>
<totfact> 0.89677428E+04</totfact>
</mgrwt>
</event>
<event>
 8    1  0.9705063E-006  0.3235528E+03  0.7546771E-02  0.1074026E+00
         21   -1    0    0  504  503  0.00000000000E+00  0.00000000000E+00  0.82526415859E+02  0.82526415859E+02  0.00000000000E+00 0.  1.
         21   -1    0    0  503  504 -0.00000000000E+00 -0.00000000000E+00 -0.31713006550E+03  0.31713006550E+03  0.00000000000E+00 0.  1.
         25    2    1    2    0    0  0.20533340707E+01 -0.85415002349E+02 -0.18768447403E+03  0.24114282521E+03  0.12499784618E+03 0.  0.
         25    2    1    2    0    0 -0.20533340707E+01  0.85415002349E+02 -0.46919175612E+02  0.15851365616E+03  0.12500092536E+03 0.  0.
          5    1    3    3  501    0 -0.41764085011E+02 -0.86355217149E+02 -0.16655692333E+03  0.19226221947E+03  0.47000000000E+01 0. -1.
         -5    1    3    3    0  501  0.43817419082E+02  0.94021480005E+00 -0.21127550706E+02  0.48880605742E+02  0.47000000000E+01 0. -1.
          5    1    4    4  502    0 -0.40969023488E+02  0.91977945914E+02 -0.59221792129E+02  0.11690899915E+03  0.47000000000E+01 0.  1.
         -5    1    4    4    0  502  0.38915689417E+02 -0.65629435653E+01  0.12302616517E+02  0.41604657002E+02  0.47000000000E+01 0.  1.
<mgrwt>
<rscale>  0 0.32355283E+03</rscale>
<asrwt>0</asrwt>
<pdfrwt beam="1">  1       21 0.12696371E-01 0.32355283E+03</pdfrwt>
<pdfrwt beam="2">  1       21 0.48789242E-01 0.32355283E+03</pdfrwt>
<totfact> 0.20556812E+05</totfact>
</mgrwt>
</event>
<event>
 8    1  0.9705063E-006  0.4538816E+03  0.7546771E-02  0.1026571E+00
         21   -1    0    0  504  503  0.00000000000E+00  0.00000000000E+00  0.60129340369E+02  0.60129340369E+02  0.00000000000E+00 0.  1.
         21   -1    0    0  503  504 -0.00000000000E+00 -0.00000000000E+00 -0.85652231204E+03  0.85652231204E+03  0.00000000000E+00 0.  1.
         25    2    1    2    0    0  0.33337932249E+02 -0.13115340155E+03 -0.13056937784E+03  0.22581246400E+03  0.12502109423E+03 0.  0.
         25    2    1    2    0    0 -0.33337932249E+02  0.13115340155E+03 -0.66582359383E+03  0.69083918841E+03  0.12500037471E+03 0.  0.
          5    1    3    3  501    0  0.23213801079E+02 -0.40820752540E+02  0.18877505191E+02  0.50829760974E+02  0.47000000000E+01 0. -1.
         -5    1    3    3    0  501  0.10124131170E+02 -0.90332649013E+02 -0.14944688303E+03  0.17498270302E+03  0.47000000000E+01 0. -1.
          5    1    4    4  502    0  0.12347782349E+02  0.12578794882E+03 -0.36071291920E+03  0.38224465447E+03  0.47000000000E+01 0. -1.
         -5    1    4    4    0  502 -0.45685714598E+02  0.53654527307E+01 -0.30511067463E+03  0.30859453394E+03  0.47000000000E+01 0. -1.
<mgrwt>
<rscale>  0 0.45388158E+03</rscale>
<asrwt>0</asrwt>
<pdfrwt beam="1">  1       21 0.92506685E-02 0.45388158E+03</pdfrwt>
<pdfrwt beam="2">  1       21 0.13177265E+00 0.45388158E+03</pdfrwt>
<totfact> 0.35207833E+04</totfact>
</mgrwt>
</event>
<event>
 8    1  0.9705063E-006  0.3130081E+03  0.7546771E-02  0.1078913E+00
         21   -1    0    0  504  503  0.00000000000E+00  0.00000000000E+00  0.25198230153E+03  0.25198230153E+03  0.00000000000E+00 0. -1.
         21   -1    0    0  503  504 -0.00000000000E+00 -0.00000000000E+00 -0.97203315605E+02  0.97203315605E+02  0.00000000000E+00 0. -1.
         25    2    1    2    0    0  0.93172095709E+02 -0.79811857311E+01  0.65392902476E+02  0.16925199807E+03  0.12500107364E+03 0.  0.
         25    2    1    2    0    0 -0.93172095709E+02  0.79811857311E+01  0.89386083448E+02  0.17993361907E+03  0.12506596904E+03 0.  0.
          5    1    3    3  501    0  0.59074044476E+02  0.17075615621E+02 -0.27151489816E+02  0.67384069177E+02  0.47000000000E+01 0.  1.
         -5    1    3    3    0  501  0.34098051233E+02 -0.25056801352E+02  0.92544392292E+02  0.10186792889E+03  0.47000000000E+01 0.  1.
          5    1    4    4  502    0 -0.59441239557E+02  0.59657326935E+02  0.19477848010E+02  0.86566357092E+02  0.47000000000E+01 0.  1.
         -5    1    4    4    0  502 -0.33730856152E+02 -0.51676141204E+02  0.69908235438E+02  0.93367261974E+02  0.47000000000E+01 0.  1.
<mgrwt>
<rscale>  0 0.31300808E+03</rscale>
<asrwt>0</asrwt>
<pdfrwt beam="1">  1       21 0.38766508E-01 0.31300808E+03</pdfrwt>
<pdfrwt beam="2">  1       21 0.14954356E-01 0.31300808E+03</pdfrwt>
<totfact> 0.24573325E+05</totfact>
</mgrwt>
</event>
<event>
 8    1  0.9705063E-006  0.2590948E+03  0.7546771E-02  0.1107688E+00
         21   -1    0    0  504  503  0.00000000000E+00  0.00000000000E+00  0.12533160325E+04  0.12533160325E+04  0.00000000000E+00 0. -1.
         21   -1    0    0  503  504 -0.00000000000E+00 -0.00000000000E+00 -0.13390499978E+02  0.13390499978E+02  0.00000000000E+00 0. -1.
         25    2    1    2    0    0  0.13229719791E+02 -0.31372753876E+02  0.62031916579E+03  0.63370137514E+03  0.12498916047E+03 0.  0.
         25    2    1    2    0    0 -0.13229719791E+02  0.31372753876E+02  0.61960636676E+03  0.63300515736E+03  0.12499681737E+03 0.  0.
          5    1    3    3  501    0  0.24939413584E+02  0.44437705422E+02  0.29677592816E+03  0.30115565003E+03  0.47000000000E+01 0. -1.
         -5    1    3    3    0  501 -0.11709693792E+02 -0.75810459299E+02  0.32354323763E+03  0.33254572510E+03  0.47000000000E+01 0. -1.
          5    1    4    4  502    0 -0.51975053630E+02 -0.18014667604E+02  0.16336288011E+03  0.17243971424E+03  0.47000000000E+01 0.  1.
         -5    1    4    4    0  502  0.38745333838E+02  0.49387421480E+02  0.45624348665E+03  0.46056544313E+03  0.47000000000E+01 0.  1.
<mgrwt>
<rscale>  0 0.25909480E+03</rscale>
<asrwt>0</asrwt>
<pdfrwt beam="1">  1       21 0.19281776E+00 0.25909480E+03</pdfrwt>
<pdfrwt beam="2">  1       21 0.20600779E-02 0.25909480E+03</pdfrwt>
<totfact> 0.17007241E+05</totfact>
</mgrwt>
</event>
<event>
 8    1  0.9705063E-006  0.3687541E+03  0.7546771E-02  0.1055170E+00
         21   -1    0    0  504  503  0.00000000000E+00  0.00000000000E+00  0.42091773563E+03  0.42091773563E+03  0.00000000000E+00 0. -1.
         21   -1    0    0  503  504 -0.00000000000E+00 -0.00000000000E+00 -0.80763741265E+02  0.80763741265E+02  0.00000000000E+00 0. -1.
         25    2    1    2    0    0 -0.12251138006E+03 -0.43637215977E+02  0.22200073728E+03  0.28604633695E+03  0.12499973867E+03 0.  0.
         25    2    1    2    0    0  0.12251138006E+03  0.43637215977E+02  0.11815325709E+03  0.21563513995E+03  0.12500030623E+03 0.  0.
          5    1    3    3  501    0  0.22417886900E+02 -0.25394988954E+02  0.44372157958E+02  0.56021830735E+02  0.47000000000E+01 0. -1.
         -5    1    3    3    0  501 -0.14492926696E+03 -0.18242227023E+02  0.17762857932E+03  0.23002450621E+03  0.47000000000E+01 0. -1.
          5    1    4    4  502    0  0.10848215120E+03  0.76501413504E+02  0.12073860689E+03  0.17950137769E+03  0.47000000000E+01 0. -1.
         -5    1    4    4    0  502  0.14029228855E+02 -0.32864197527E+02 -0.25853498050E+01  0.36133762258E+02  0.47000000000E+01 0. -1.
<mgrwt>
<rscale>  0 0.36875407E+03</rscale>
<asrwt>0</asrwt>
<pdfrwt beam="1">  1       21 0.64756573E-01 0.36875407E+03</pdfrwt>
<pdfrwt beam="2">  1       21 0.12425191E-01 0.36875407E+03</pdfrwt>
<totfact> 0.11502421E+05</totfact>
</mgrwt>
</event>
<event>
 8    1  0.9705063E-006  0.4170443E+03  0.7546771E-02  0.1038033E+00
         21   -1    0    0  504  503  0.00000000000E+00  0.00000000000E+00  0.53281956413E+03  0.53281956413E+03  0.00000000000E+00 0. -1.
         21   -1    0    0  503  504 -0.00000000000E+00 -0.00000000000E+00 -0.81606383758E+02  0.81606383758E+02  0.00000000000E+00 0. -1.
         25    2    1    2    0    0 -0.15075042854E+03 -0.71609452056E+02  0.22731476011E+03  0.30846531120E+03  0.12500097086E+03 0.  0.
         25    2    1    2    0    0  0.15075042854E+03  0.71609452056E+02  0.22389842026E+03  0.30596063669E+03  0.12501121262E+03 0.  0.
          5    1    3    3  501    0 -0.15505034407E+03 -0.27181138970E+02  0.14193482506E+03  0.21200709440E+03  0.47000000000E+01 0. -1.
         -5    1    3    3    0  501  0.42999155249E+01 -0.44428313087E+02  0.85379935058E+02  0.96458216798E+02  0.47000000000E+01 0. -1.
          5    1    4    4  502    0 -0.16914452566E+02  0.29480625576E+02  0.25385172765E+02  0.42681412655E+02  0.47000000000E+01 0.  1.
         -5    1    4    4    0  502  0.16766488111E+03  0.42128826481E+02  0.19851324749E+03  0.26327922403E+03  0.47000000000E+01 0.  1.
<mgrwt>
<rscale>  0 0.41704426E+03</rscale>
<asrwt>0</asrwt>
<pdfrwt beam="1">  1       21 0.81972238E-01 0.41704426E+03</pdfrwt>
<pdfrwt beam="2">  1       21 0.12554829E-01 0.41704426E+03</pdfrwt>
<totfact> 0.65502340E+04</totfact>
</mgrwt>
</event>
<event>
 8    1  0.9705063E-006  0.2658609E+03  0.7546771E-02  0.1103672E+00
         21   -1    0    0  504  503  0.00000000000E+00  0.00000000000E+00  0.80815645842E+02  0.80815645842E+02  0.00000000000E+00 0. -1.
         21   -1    0    0  503  504 -0.00000000000E+00 -0.00000000000E+00 -0.21865209151E+03  0.21865209151E+03  0.00000000000E+00 0. -1.
         25    2    1    2    0    0 -0.34920120909E+02  0.24259831214E+02 -0.51564256794E+02  0.14174610050E+03  0.12500052070E+03 0.  0.
         25    2    1    2    0    0  0.34920120909E+02 -0.24259831214E+02 -0.86272188875E+02  0.15772163685E+03  0.12500107961E+03 0.  0.
          5    1    3    3  501    0 -0.51268102456E+02  0.18579178928E+02  0.27092192171E+02  0.61071115069E+02  0.47000000000E+01 0. -1.
         -5    1    3    3    0  501  0.16347981547E+02  0.56806522860E+01 -0.78656448965E+02  0.80674985435E+02  0.47000000000E+01 0. -1.
          5    1    4    4  502    0 -0.32726441104E+02  0.15840412472E+02 -0.67381370465E+02  0.76709045754E+02  0.47000000000E+01 0. -1.
         -5    1    4    4    0  502  0.67646562014E+02 -0.40100243687E+02 -0.18890818410E+02  0.81012591097E+02  0.47000000000E+01 0. -1.
<mgrwt>
<rscale>  0 0.26586094E+03</rscale>
<asrwt>0</asrwt>
<pdfrwt beam="1">  1       21 0.12433176E-01 0.26586094E+03</pdfrwt>
<pdfrwt beam="2">  1       21 0.33638783E-01 0.26586094E+03</pdfrwt>
<totfact> 0.46194363E+05</totfact>
</mgrwt>
</event>
<event>
 8    1  0.9705063E-006  0.3556621E+03  0.7546771E-02  0.1060315E+00
         21   -1    0    0  504  503  0.00000000000E+00  0.00000000000E+00  0.38021070099E+02  0.38021070099E+02  0.00000000000E+00 0.  1.
         21   -1    0    0  503  504 -0.00000000000E+00 -0.00000000000E+00 -0.83174617401E+03  0.83174617401E+03  0.00000000000E+00 0.  1.
         25    2    1    2    0    0  0.48427017677E+02  0.35530008065E+01 -0.11123308136E+03  0.17422580185E+03  0.12499612708E+03 0.  0.
         25    2    1    2    0    0 -0.48427017677E+02 -0.35530008065E+01 -0.68249202256E+03  0.69554144227E+03  0.12499894879E+03 0.  0.
          5    1    3    3  501    0  0.75305164646E+02 -0.23321168322E+02 -0.30113807277E+02  0.84520270367E+02  0.47000000000E+01 0. -1.
         -5    1    3    3    0  501 -0.26878146969E+02  0.26874169128E+02 -0.81119274079E+02  0.89705531479E+02  0.47000000000E+01 0. -1.
          5    1    4    4  502    0 -0.15154190124E+02 -0.10794800558E+02 -0.64258260469E+03  0.64286909325E+03  0.47000000000E+01 0.  1.
         -5    1    4    4    0  502 -0.33272827553E+02  0.72417997512E+01 -0.39909417867E+02  0.52672349022E+02  0.47000000000E+01 0.  1.
<mgrwt>
<rscale>  0 0.35566208E+03</rscale>
<asrwt>0</asrwt>
<pdfrwt beam="1">  1       21 0.58493960E-02 0.35566208E+03</pdfrwt>
<pdfrwt beam="2">  1       21 0.12796094E+00 0.35566208E+03</pdfrwt>
<totfact> 0.87334643E+04</totfact>
</mgrwt>
</event>
<event>
 8    1  0.9705063E-006  0.3007692E+03  0.7546771E-02  0.1084857E+00
         21   -1    0    0  504  503  0.00000000000E+00  0.00000000000E+00  0.14035879653E+03  0.14035879653E+03  0.00000000000E+00 0.  1.
         21   -1    0    0  503  504 -0.00000000000E+00 -0.00000000000E+00 -0.16112653662E+03  0.16112653662E+03  0.00000000000E+00 0.  1.
         25    2    1    2    0    0  0.47027888245E+02 -0.35878439849E+02  0.48856662547E+02  0.14666682903E+03  0.12500120216E+03 0.  0.
         25    2    1    2    0    0 -0.47027888245E+02  0.35878439849E+02 -0.69624402632E+02  0.15481850412E+03  0.12498930778E+03 0.  0.
          5    1    3    3  501    0 -0.27085155224E+00 -0.95626475638E+01  0.82221525202E+02  0.82909509681E+02  0.47000000000E+01 0.  1.
         -5    1    3    3    0  501  0.47298739797E+02 -0.26315792285E+02 -0.33364862655E+02  0.63757319344E+02  0.47000000000E+01 0.  1.
          5    1    4    4  502    0 -0.52915347956E+02  0.57641554041E+02 -0.93253209658E+02  0.12182296135E+03  0.47000000000E+01 0. -1.
         -5    1    4    4    0  502  0.58874597118E+01 -0.21763114192E+02  0.23628807026E+02  0.32995542769E+02  0.47000000000E+01 0. -1.
<mgrwt>
<rscale>  0 0.30076919E+03</rscale>
<asrwt>0</asrwt>
<pdfrwt beam="1">  1       21 0.21593661E-01 0.30076919E+03</pdfrwt>
<pdfrwt beam="2">  1       21 0.24788698E-01 0.30076919E+03</pdfrwt>
<totfact> 0.30024470E+05</totfact>
</mgrwt>
</event>
<event>
 8    1  0.9705063E-006  0.3359686E+03  0.7546771E-02  0.1068526E+00
         21   -1    0    0  504  503  0.00000000000E+00  0.00000000000E+00  0.45458348157E+02  0.45458348157E+02  0.00000000000E+00 0.  1.
         21   -1    0    0  503  504 -0.00000000000E+00 -0.00000000000E+00 -0.62076012332E+03  0.62076012332E+03  0.00000000000E+00 0.  1.
         25    2    1    2    0    0  0.55311660659E+02  0.88303733365E+02 -0.37026709809E+03  0.40444986088E+03  0.12500014761E+03 0.  0.
         25    2    1    2    0    0 -0.55311660659E+02 -0.88303733365E+02 -0.20503467707E+03  0.26176861060E+03  0.12500663008E+03 0.  0.
          5    1    3    3  501    0 -0.32662972830E+02  0.58229148607E+02 -0.19214727276E+03  0.20347031226E+03  0.47000000000E+01 0.  1.
         -5    1    3    3    0  501  0.87974633489E+02  0.30074584758E+02 -0.17811982533E+03  0.20097954861E+03  0.47000000000E+01 0.  1.
          5    1    4    4  502    0  0.23584255162E+02  0.12523007297E+02 -0.11008309618E+02  0.29262872107E+02  0.47000000000E+01 0. -1.
         -5    1    4    4    0  502 -0.78895915821E+02 -0.10082674066E+03 -0.19402636745E+03  0.23250573849E+03  0.47000000000E+01 0. -1.
<mgrwt>
<rscale>  0 0.33596863E+03</rscale>
<asrwt>0</asrwt>
<pdfrwt beam="1">  1       21 0.69935925E-02 0.33596863E+03</pdfrwt>
<pdfrwt beam="2">  1       21 0.95501551E-01 0.33596863E+03</pdfrwt>
<totfact> 0.13253607E+05</totfact>
</mgrwt>
</event>
<event>
 8    1  0.9705063E-006  0.2692790E+03  0.7546771E-02  0.1101693E+00
         21   -1    0    0  504  503  0.00000000000E+00  0.00000000000E+00  0.13478258037E+02  0.13478258037E+02  0.00000000000E+00 0.  1.
         21   -1    0    0  503  504 -0.00000000000E+00 -0.00000000000E+00 -0.13449661220E+04  0.13449661220E+04  0.00000000000E+00 0.  1.
         25    2    1    2    0    0 -0.15424535803E+02 -0.47586749726E+02 -0.66259225643E+03  0.67613308209E+03  0.12500012542E+03 0.  0.
         25    2    1    2    0    0  0.15424535803E+02  0.47586749726E+02 -0.66889560755E+03  0.68231129797E+03  0.12499983393E+03 0.  0.
          5    1    3    3  501    0 -0.46885821560E+02  0.14689908967E+02 -0.44136688918E+03  0.44411810879E+03  0.47000000000E+01 0. -1.
         -5    1    3    3    0  501  0.31461285757E+02 -0.62276658694E+02 -0.22122536726E+03  0.23201497330E+03  0.47000000000E+01 0. -1.
          5    1    4    4  502    0  0.58333202805E+02  0.47777992034E+02 -0.24915770070E+03  0.26035965296E+03  0.47000000000E+01 0.  1.
         -5    1    4    4    0  502 -0.42908667002E+02 -0.19124230774E+00 -0.41973790685E+03  0.42195164500E+03  0.47000000000E+01 0.  1.
<mgrwt>
<rscale>  0 0.26927904E+03</rscale>
<asrwt>0</asrwt>
<pdfrwt beam="1">  1       21 0.20735778E-02 0.26927904E+03</pdfrwt>
<pdfrwt beam="2">  1       21 0.20691790E+00 0.26927904E+03</pdfrwt>
<totfact> 0.13558170E+05</totfact>
</mgrwt>
</event>
<event>
 8    1  0.9705063E-006  0.3203966E+03  0.7546771E-02  0.1075467E+00
         21   -1    0    0  504  503  0.00000000000E+00  0.00000000000E+00  0.84888369275E+03  0.84888369275E+03  0.00000000000E+00 0.  1.
         21   -1    0    0  503  504 -0.00000000000E+00 -0.00000000000E+00 -0.30232046334E+02  0.30232046334E+02  0.00000000000E+00 0.  1.
         25    2    1    2    0    0 -0.66555061965E+02 -0.52249134666E+02  0.55658062093E+03  0.57668450497E+03  0.12499392916E+03 0.  0.
         25    2    1    2    0    0  0.66555061965E+02  0.52249134666E+02  0.26207102549E+03  0.30243123412E+03  0.12499552242E+03 0.  0.
          5    1    3    3  501    0  0.14591892740E+02 -0.55341053225E+02  0.12573781391E+03  0.13823039952E+03  0.47000000000E+01 0. -1.
         -5    1    3    3    0  501 -0.81146954704E+02  0.30919185593E+01  0.43084280703E+03  0.43845410545E+03  0.47000000000E+01 0. -1.
          5    1    4    4  502    0  0.69394160660E+02  0.82016795197E+02  0.24527492218E+03  0.26781370704E+03  0.47000000000E+01 0. -1.
         -5    1    4    4    0  502 -0.28390986953E+01 -0.29767660531E+02  0.16796103312E+02  0.34617527083E+02  0.47000000000E+01 0. -1.
<mgrwt>
<rscale>  0 0.32039657E+03</rscale>
<asrwt>0</asrwt>
<pdfrwt beam="1">  1       21 0.13059747E+00 0.32039657E+03</pdfrwt>
<pdfrwt beam="2">  1       21 0.46510847E-02 0.32039657E+03</pdfrwt>
<totfact> 0.12413350E+05</totfact>
</mgrwt>
</event>
<event>
 8    1  0.9705063E-006  0.3096401E+03  0.7546771E-02  0.1080519E+00
         21   -1    0    0  504  503  0.00000000000E+00  0.00000000000E+00  0.88212106850E+03  0.88212106850E+03  0.00000000000E+00 0.  1.
         21   -1    0    0  503  504 -0.00000000000E+00 -0.00000000000E+00 -0.27172282061E+02  0.27172282061E+02  0.00000000000E+00 0.  1.
         25    2    1    2    0    0  0.78593878280E+01  0.89094960013E+02  0.37325894237E+03  0.40367492169E+03  0.12502608714E+03 0.  0.
         25    2    1    2    0    0 -0.78593878280E+01 -0.89094960013E+02  0.48168984407E+03  0.50561842887E+03  0.12500083144E+03 0.  0.
          5    1    3    3  501    0 -0.51964839315E+01 -0.31519518995E+02  0.81444691260E+02  0.87611707308E+02  0.47000000000E+01 0. -1.
         -5    1    3    3    0  501  0.13055871759E+02  0.12061447901E+03  0.29181425111E+03  0.31606321438E+03  0.47000000000E+01 0. -1.
          5    1    4    4  502    0 -0.20092018711E+02  0.28521283286E+02  0.12030882900E+03  0.12535332924E+03  0.47000000000E+01 0.  1.
         -5    1    4    4    0  502  0.12232630883E+02 -0.11761624330E+03  0.36138101507E+03  0.38026509963E+03  0.47000000000E+01 0.  1.
<mgrwt>
<rscale>  0 0.30964007E+03</rscale>
<asrwt>0</asrwt>
<pdfrwt beam="1">  1       21 0.13571091E+00 0.30964007E+03</pdfrwt>
<pdfrwt beam="2">  1       21 0.41803518E-02 0.30964007E+03</pdfrwt>
<totfact> 0.13524040E+05</totfact>
</mgrwt>
</event>
<event>
 8    1  0.9705063E-006  0.2623391E+03  0.7546771E-02  0.1105746E+00
         21   -1    0    0  504  503  0.00000000000E+00  0.00000000000E+00  0.58647012762E+03  0.58647012762E+03  0.00000000000E+00 0. -1.
         21   -1    0    0  503  504 -0.00000000000E+00 -0.00000000000E+00 -0.29337290836E+02  0.29337290836E+02  0.00000000000E+00 0. -1.
         25    2    1    2    0    0 -0.37476016809E+02 -0.10725577618E+02  0.29700926209E+03  0.32459028009E+03  0.12499943325E+03 0.  0.
         25    2    1    2    0    0  0.37476016809E+02  0.10725577618E+02  0.26012357470E+03  0.29121713837E+03  0.12499463074E+03 0.  0.
          5    1    3    3  501    0 -0.45037027444E+02  0.22686786138E+01  0.30399633831E+03  0.30735865768E+03  0.47000000000E+01 0. -1.
         -5    1    3    3    0  501  0.75610106347E+01 -0.12994256232E+02 -0.69870762241E+01  0.17231622414E+02  0.47000000000E+01 0. -1.
          5    1    4    4  502    0  0.96509311780E+01  0.51093342997E+02  0.22434623093E+03  0.23034103305E+03  0.47000000000E+01 0.  1.
         -5    1    4    4    0  502  0.27825085631E+02 -0.40367765379E+02  0.35777343768E+02  0.60876105322E+02  0.47000000000E+01 0.  1.
<mgrwt>
<rscale>  0 0.26233905E+03</rscale>
<asrwt>0</asrwt>
<pdfrwt beam="1">  1       21 0.90226165E-01 0.26233905E+03</pdfrwt>
<pdfrwt beam="2">  1       21 0.45134298E-02 0.26233905E+03</pdfrwt>
<totfact> 0.32795894E+05</totfact>
</mgrwt>
</event>
<event>
 8    1  0.9705063E-006  0.2627401E+03  0.7546771E-02  0.1105508E+00
         21   -1    0    0  504  503  0.00000000000E+00  0.00000000000E+00  0.18586241798E+03  0.18586241798E+03  0.00000000000E+00 0.  1.
         21   -1    0    0  503  504 -0.00000000000E+00 -0.00000000000E+00 -0.92854143949E+02  0.92854143949E+02  0.00000000000E+00 0.  1.
         25    2    1    2    0    0  0.30508716861E+02 -0.26474871852E+02  0.45062538024E+02  0.13887909908E+03  0.12500028474E+03 0.  0.
         25    2    1    2    0    0 -0.30508716861E+02  0.26474871852E+02  0.47945736007E+02  0.13983746285E+03  0.12499608702E+03 0.  0.
          5    1    3    3  501    0  0.75909853173E+02 -0.29177113564E+02  0.11740307990E+02  0.82301485991E+02  0.47000000000E+01 0.  1.
         -5    1    3    3    0  501 -0.45401136312E+02  0.27022417119E+01  0.33322230034E+02  0.56577613091E+02  0.47000000000E+01 0.  1.
          5    1    4    4  502    0 -0.75759167246E+02 -0.49120973733E+01  0.29163371854E+02  0.81462705457E+02  0.47000000000E+01 0.  1.
         -5    1    4    4    0  502  0.45250450385E+02  0.31386969226E+02  0.18782364152E+02  0.58374757390E+02  0.47000000000E+01 0.  1.
<mgrwt>
<rscale>  0 0.26274014E+03</rscale>
<asrwt>0</asrwt>
<pdfrwt beam="1">  1       21 0.28594218E-01 0.26274014E+03</pdfrwt>
<pdfrwt beam="2">  1       21 0.14285253E-01 0.26274014E+03</pdfrwt>
<totfact> 0.49471992E+05</totfact>
</mgrwt>
</event>
<event>
 8    1  0.9705063E-006  0.3988104E+03  0.7546771E-02  0.1044192E+00
         21   -1    0    0  504  503  0.00000000000E+00  0.00000000000E+00  0.29729024290E+02  0.29729024290E+02  0.00000000000E+00 0.  1.
         21   -1    0    0  503  504 -0.00000000000E+00 -0.00000000000E+00 -0.13374952329E+04  0.13374952329E+04  0.00000000000E+00 0.  1.
         25    2    1    2    0    0  0.47645378235E+02 -0.73124765697E+02 -0.10945177965E+04  0.11050844374E+04  0.12500037400E+03 0.  0.
         25    2    1    2    0    0 -0.47645378235E+02  0.73124765697E+02 -0.21324841203E+03  0.26213981971E+03  0.12500034568E+03 0.  0.
          5    1    3    3  501    0  0.31390595635E+01 -0.69756169915E+02 -0.97350295064E+03  0.97601529795E+03  0.47000000000E+01 0.  1.
         -5    1    3    3    0  501  0.44506318671E+02 -0.33685957820E+01 -0.12101484591E+03  0.12906913950E+03  0.47000000000E+01 0.  1.
          5    1    4    4  502    0  0.27975615021E+02 -0.74081428884E+01 -0.10393556527E+02  0.31106777945E+02  0.47000000000E+01 0. -1.
         -5    1    4    4    0  502 -0.75620993256E+02  0.80532908585E+02 -0.20285485550E+03  0.23103304176E+03  0.47000000000E+01 0. -1.
<mgrwt>
<rscale>  0 0.39881037E+03</rscale>
<asrwt>0</asrwt>
<pdfrwt beam="1">  1       21 0.45736946E-02 0.39881037E+03</pdfrwt>
<pdfrwt beam="2">  1       21 0.20576856E+00 0.39881037E+03</pdfrwt>
<totfact> 0.34861661E+04</totfact>
</mgrwt>
</event>
<event>
 8    1  0.9705063E-006  0.2880111E+03  0.7546771E-02  0.1091392E+00
         21   -1    0    0  504  503  0.00000000000E+00  0.00000000000E+00  0.11333364221E+02  0.11333364221E+02  0.00000000000E+00 0.  1.
         21   -1    0    0  503  504 -0.00000000000E+00 -0.00000000000E+00 -0.18297829304E+04  0.18297829304E+04  0.00000000000E+00 0.  1.
         25    2    1    2    0    0  0.34044322148E+02 -0.62579902514E+02 -0.86933302042E+03  0.88115621907E+03  0.12498448679E+03 0.  0.
         25    2    1    2    0    0 -0.34044322148E+02  0.62579902514E+02 -0.94911654580E+03  0.95996007559E+03  0.12500347658E+03 0.  0.
          5    1    3    3  501    0  0.74446532497E+02 -0.67927557759E+02 -0.54736865388E+03  0.55658869245E+03  0.47000000000E+01 0.  1.
         -5    1    3    3    0  501 -0.40402210349E+02  0.53476552446E+01 -0.32196436654E+03  0.32456752662E+03  0.47000000000E+01 0.  1.
          5    1    4    4  502    0  0.20692723100E+02  0.52330828510E+02 -0.17624311423E+03  0.18506871620E+03  0.47000000000E+01 0. -1.
         -5    1    4    4    0  502 -0.54737045248E+02  0.10249074004E+02 -0.77287343157E+03  0.77489135940E+03  0.47000000000E+01 0. -1.
<mgrwt>
<rscale>  0 0.28801109E+03</rscale>
<asrwt>0</asrwt>
<pdfrwt beam="1">  1       21 0.17435960E-02 0.28801109E+03</pdfrwt>
<pdfrwt beam="2">  1       21 0.28150482E+00 0.28801109E+03</pdfrwt>
<totfact> 0.62849560E+04</totfact>
</mgrwt>
</event>
<event>
 8    1  0.9705063E-006  0.2552546E+03  0.7546771E-02  0.1110028E+00
         21   -1    0    0  504  503  0.00000000000E+00  0.00000000000E+00  0.15873281921E+03  0.15873281921E+03  0.00000000000E+00 0. -1.
         21   -1    0    0  503  504 -0.00000000000E+00 -0.00000000000E+00 -0.10261729780E+03  0.10261729780E+03  0.00000000000E+00 0. -1.
         25    2    1    2    0    0  0.13897687700E+02  0.19655657424E+02  0.37429698099E+02  0.13268856611E+03  0.12500313070E+03 0.  0.
         25    2    1    2    0    0 -0.13897687700E+02 -0.19655657424E+02  0.18685823307E+02  0.12866155090E+03  0.12500057638E+03 0.  0.
          5    1    3    3  501    0  0.48649888469E+02 -0.19098074706E+02  0.56447213116E+02  0.77070915228E+02  0.47000000000E+01 0.  1.
         -5    1    3    3    0  501 -0.34752200769E+02  0.38753732130E+02 -0.19017515017E+02  0.55617650883E+02  0.47000000000E+01 0.  1.
          5    1    4    4  502    0 -0.55002102356E+02 -0.50156448614E+02  0.20085132496E+02  0.77242495742E+02  0.47000000000E+01 0.  1.
         -5    1    4    4    0  502  0.41104414656E+02  0.30500791190E+02 -0.13993091895E+01  0.51419055161E+02  0.47000000000E+01 0.  1.
<mgrwt>
<rscale>  0 0.25525464E+03</rscale>
<asrwt>0</asrwt>
<pdfrwt beam="1">  1       21 0.24420434E-01 0.25525464E+03</pdfrwt>
<pdfrwt beam="2">  1       21 0.15787277E-01 0.25525464E+03</pdfrwt>
<totfact> 0.55956584E+05</totfact>
</mgrwt>
</event>
<event>
 8    1  0.9705063E-006  0.3601836E+03  0.7546771E-02  0.1058511E+00
         21   -1    0    0  504  503  0.00000000000E+00  0.00000000000E+00  0.43417336808E+02  0.43417336808E+02  0.00000000000E+00 0.  1.
         21   -1    0    0  503  504 -0.00000000000E+00 -0.00000000000E+00 -0.74700695124E+03  0.74700695124E+03  0.00000000000E+00 0.  1.
         25    2    1    2    0    0  0.12854431153E+02  0.76734816084E+02 -0.57938367889E+03  0.59779597802E+03  0.12498446132E+03 0.  0.
         25    2    1    2    0    0 -0.12854431153E+02 -0.76734816084E+02 -0.12420593554E+03  0.19262831003E+03  0.12500033200E+03 0.  0.
          5    1    3    3  501    0 -0.20560124798E+02  0.74236175642E+02 -0.54162328657E+03  0.54709377904E+03  0.47000000000E+01 0.  1.
         -5    1    3    3    0  501  0.33414555951E+02  0.24986404414E+01 -0.37760392316E+02  0.50702198979E+02  0.47000000000E+01 0.  1.
          5    1    4    4  502    0 -0.22320551044E+02 -0.19891105293E+02 -0.13096523499E+03  0.13441668738E+03  0.47000000000E+01 0. -1.
         -5    1    4    4    0  502  0.94661198912E+01 -0.56843710791E+02  0.67592994546E+01  0.58211622648E+02  0.47000000000E+01 0. -1.
<mgrwt>
<rscale>  0 0.36018358E+03</rscale>
<asrwt>0</asrwt>
<pdfrwt beam="1">  1       21 0.66795901E-02 0.36018358E+03</pdfrwt>
<pdfrwt beam="2">  1       21 0.11492415E+00 0.36018358E+03</pdfrwt>
<totfact> 0.90889443E+04</totfact>
</mgrwt>
</event>
<event>
 8    1  0.9705063E-006  0.2689186E+03  0.7546771E-02  0.1101900E+00
         21   -1    0    0  504  503  0.00000000000E+00  0.00000000000E+00  0.26510790564E+04  0.26510790564E+04  0.00000000000E+00 0. -1.
         21   -1    0    0  503  504 -0.00000000000E+00 -0.00000000000E+00 -0.68196031169E+01  0.68196031169E+01  0.00000000000E+00 0. -1.
         25    2    1    2    0    0  0.13922881219E+02 -0.40360312412E+02  0.10734111534E+04  0.10815077205E+04  0.12499857523E+03 0.  0.
         25    2    1    2    0    0 -0.13922881219E+02  0.40360312412E+02  0.15708482999E+04  0.15763909390E+04  0.12498483885E+03 0.  0.
          5    1    3    3  501    0  0.31531865732E+02 -0.20041604462E+02  0.87997455925E+02  0.95716073443E+02  0.47000000000E+01 0.  1.
         -5    1    3    3    0  501 -0.17608984514E+02 -0.20318707950E+02  0.98541369748E+03  0.98579164706E+03  0.47000000000E+01 0.  1.
          5    1    4    4  502    0  0.14143555148E+02 -0.32332839087E+02  0.94818029616E+03  0.94884846876E+03  0.47000000000E+01 0.  1.
         -5    1    4    4    0  502 -0.28066436367E+02  0.72693151500E+02  0.62266800372E+03  0.62754247026E+03  0.47000000000E+01 0.  1.
<mgrwt>
<rscale>  0 0.26891863E+03</rscale>
<asrwt>0</asrwt>
<pdfrwt beam="1">  1       21 0.40785749E+00 0.26891863E+03</pdfrwt>
<pdfrwt beam="2">  1       21 0.10491718E-02 0.26891863E+03</pdfrwt>
<totfact> 0.25043307E+04</totfact>
</mgrwt>
</event>
<event>
 8    1  0.9705063E-006  0.3528938E+03  0.7546771E-02  0.1061434E+00
         21   -1    0    0  504  503  0.00000000000E+00  0.00000000000E+00  0.55917366890E+03  0.55917366890E+03  0.00000000000E+00 0.  1.
         21   -1    0    0  503  504 -0.00000000000E+00 -0.00000000000E+00 -0.55677704003E+02  0.55677704003E+02  0.00000000000E+00 0.  1.
         25    2    1    2    0    0 -0.51981444452E+02  0.10143838365E+03  0.33921686010E+03  0.37904511373E+03  0.12496120927E+03 0.  0.
         25    2    1    2    0    0  0.51981444452E+02 -0.10143838365E+03  0.16427910480E+03  0.23580625917E+03  0.12500060539E+03 0.  0.
          5    1    3    3  501    0 -0.12059614797E+02  0.10861224941E+03  0.31028952359E+03  0.32900415420E+03  0.47000000000E+01 0. -1.
         -5    1    3    3    0  501 -0.39921829655E+02 -0.71738657626E+01  0.28927336510E+02  0.50040959529E+02  0.47000000000E+01 0. -1.
          5    1    4    4  502    0  0.54280263031E+02  0.34619645560E+01  0.96292495297E+02  0.11069176484E+03  0.47000000000E+01 0.  1.
         -5    1    4    4    0  502 -0.22988185790E+01 -0.10490034821E+03  0.67986609502E+02  0.12511449433E+03  0.47000000000E+01 0.  1.
<mgrwt>
<rscale>  0 0.35289379E+03</rscale>
<asrwt>0</asrwt>
<pdfrwt beam="1">  1       21 0.86026714E-01 0.35289379E+03</pdfrwt>
<pdfrwt beam="2">  1       21 0.85658010E-02 0.35289379E+03</pdfrwt>
<totfact> 0.11817580E+05</totfact>
</mgrwt>
</event>
<event>
 8    1  0.9705063E-006  0.3851374E+03  0.7546771E-02  0.1049051E+00
         21   -1    0    0  504  503  0.00000000000E+00  0.00000000000E+00  0.58121472739E+02  0.58121472739E+02  0.00000000000E+00 0. -1.
         21   -1    0    0  503  504 -0.00000000000E+00 -0.00000000000E+00 -0.63802066774E+03  0.63802066774E+03  0.00000000000E+00 0. -1.
         25    2    1    2    0    0  0.28256018272E+02 -0.61060921865E+02 -0.52513683467E+03  0.54398537501E+03  0.12499821741E+03 0.  0.
         25    2    1    2    0    0 -0.28256018272E+02  0.61060921865E+02 -0.54762360328E+02  0.15215676546E+03  0.12500370562E+03 0.  0.
          5    1    3    3  501    0  0.48430645085E+02 -0.67785863796E+02 -0.18265587715E+03  0.20081262453E+03  0.47000000000E+01 0.  1.
         -5    1    3    3    0  501 -0.20174626813E+02  0.67249419310E+01 -0.34248095752E+03  0.34317275048E+03  0.47000000000E+01 0.  1.
          5    1    4    4  502    0  0.26518681518E+01  0.82803346300E+02  0.29290057098E+01  0.83030690938E+02  0.47000000000E+01 0. -1.
         -5    1    4    4    0  502 -0.30907886424E+02 -0.21742424435E+02 -0.57691366038E+02  0.69126074522E+02  0.47000000000E+01 0. -1.
<mgrwt>
<rscale>  0 0.38513738E+03</rscale>
<asrwt>0</asrwt>
<pdfrwt beam="1">  1       21 0.89417649E-02 0.38513738E+03</pdfrwt>
<pdfrwt beam="2">  1       21 0.98157027E-01 0.38513738E+03</pdfrwt>
<totfact> 0.79514103E+04</totfact>
</mgrwt>
</event>
<event>
 8    1  0.9705063E-006  0.2718604E+03  0.7546771E-02  0.1100220E+00
         21   -1    0    0  504  503  0.00000000000E+00  0.00000000000E+00  0.21461502045E+03  0.21461502045E+03  0.00000000000E+00 0.  1.
         21   -1    0    0  503  504 -0.00000000000E+00 -0.00000000000E+00 -0.86093764384E+02  0.86093764384E+02  0.00000000000E+00 0.  1.
         25    2    1    2    0    0 -0.43702790471E+02 -0.30198827113E+02  0.70318561616E+02  0.15294678587E+03  0.12500446450E+03 0.  0.
         25    2    1    2    0    0  0.43702790471E+02  0.30198827113E+02  0.58202694450E+02  0.14776199897E+03  0.12499660653E+03 0.  0.
          5    1    3    3  501    0  0.41322317838E+02 -0.21730543132E+02  0.41520512661E+02  0.62656152355E+02  0.47000000000E+01 0.  1.
         -5    1    3    3    0  501 -0.85025108310E+02 -0.84682839813E+01  0.28798048955E+02  0.90290633514E+02  0.47000000000E+01 0.  1.
          5    1    4    4  502    0  0.26768669189E+02  0.70497541855E+02  0.69186394699E+02  0.10244663132E+03  0.47000000000E+01 0.  1.
         -5    1    4    4    0  502  0.16934121283E+02 -0.40298714742E+02 -0.10983700249E+02  0.45315367644E+02  0.47000000000E+01 0.  1.
<mgrwt>
<rscale>  0 0.27186037E+03</rscale>
<asrwt>0</asrwt>
<pdfrwt beam="1">  1       21 0.33017695E-01 0.27186037E+03</pdfrwt>
<pdfrwt beam="2">  1       21 0.13245195E-01 0.27186037E+03</pdfrwt>
<totfact> 0.42700485E+05</totfact>
</mgrwt>
</event>
<event>
 8    1  0.9705063E-006  0.4763942E+03  0.7546771E-02  0.1020131E+00
         21   -1    0    0  504  503  0.00000000000E+00  0.00000000000E+00  0.50651398218E+02  0.50651398218E+02  0.00000000000E+00 0.  1.
         21   -1    0    0  503  504 -0.00000000000E+00 -0.00000000000E+00 -0.11201634883E+04  0.11201634883E+04  0.00000000000E+00 0.  1.
         25    2    1    2    0    0  0.82293916265E+02 -0.13967299995E+03 -0.83407837556E+03  0.85882684201E+03  0.12496388446E+03 0.  0.
         25    2    1    2    0    0 -0.82293916265E+02  0.13967299995E+03 -0.23543371457E+03  0.31198804455E+03  0.12500668149E+03 0.  0.
          5    1    3    3  501    0  0.11313845586E+03 -0.84627114751E+02 -0.56748002963E+03  0.58482282169E+03  0.47000000000E+01 0.  1.
         -5    1    3    3    0  501 -0.30844539590E+02 -0.55045885197E+02 -0.26659834593E+03  0.27400402032E+03  0.47000000000E+01 0.  1.
          5    1    4    4  502    0 -0.88060302513E+02  0.38950207605E+02 -0.15647824110E+03  0.18379136402E+03  0.47000000000E+01 0. -1.
         -5    1    4    4    0  502  0.57663862476E+01  0.10072279234E+03 -0.78955473465E+02  0.12819668053E+03  0.47000000000E+01 0. -1.
<mgrwt>
<rscale>  0 0.47639415E+03</rscale>
<asrwt>0</asrwt>
<pdfrwt beam="1">  1       21 0.77925227E-02 0.47639415E+03</pdfrwt>
<pdfrwt beam="2">  1       21 0.17233285E+00 0.47639415E+03</pdfrwt>
<totfact> 0.22826997E+04</totfact>
</mgrwt>
</event>
<event>
 8    1  0.9705063E-006  0.2765361E+03  0.7546771E-02  0.1097596E+00
         21   -1    0    0  504  503  0.00000000000E+00  0.00000000000E+00  0.64737052068E+02  0.64737052068E+02  0.00000000000E+00 0.  1.
         21   -1    0    0  503  504 -0.00000000000E+00 -0.00000000000E+00 -0.29531862557E+03  0.29531862557E+03  0.00000000000E+00 0.  1.
         25    2    1    2    0    0  0.33395257434E+02 -0.29459405381E+02 -0.16582898068E+03  0.21238987794E+03  0.12500843825E+03 0.  0.
         25    2    1    2    0    0 -0.33395257434E+02  0.29459405381E+02 -0.64752592827E+02  0.14766579970E+03  0.12501676024E+03 0.  0.
          5    1    3    3  501    0  0.48941545768E+02  0.33839094779E+02 -0.11512481455E+03  0.12967718444E+03  0.47000000000E+01 0.  1.
         -5    1    3    3    0  501 -0.15546288334E+02 -0.63298500159E+02 -0.50704166123E+02  0.82712693497E+02  0.47000000000E+01 0.  1.
          5    1    4    4  502    0  0.10175708911E+02  0.68860466801E+02 -0.16981177784E+02  0.71803616475E+02  0.47000000000E+01 0.  1.
         -5    1    4    4    0  502 -0.43570966344E+02 -0.39401061421E+02 -0.47771415043E+02  0.75862183230E+02  0.47000000000E+01 0.  1.
<mgrwt>
<rscale>  0 0.27653613E+03</rscale>
<asrwt>0</asrwt>
<pdfrwt beam="1">  1       21 0.99595464E-02 0.27653613E+03</pdfrwt>
<pdfrwt beam="2">  1       21 0.45433635E-01 0.27653613E+03</pdfrwt>
<totfact> 0.37271928E+05</totfact>
</mgrwt>
</event>
<event>
 8    1  0.9705063E-006  0.2666807E+03  0.7546771E-02  0.1103195E+00
         21   -1    0    0  504  503  0.00000000000E+00  0.00000000000E+00  0.15809008737E+02  0.15809008737E+02  0.00000000000E+00 0.  1.
         21   -1    0    0  503  504 -0.00000000000E+00 -0.00000000000E+00 -0.11246527428E+04  0.11246527428E+04  0.00000000000E+00 0.  1.
         25    2    1    2    0    0  0.26348321397E+02  0.24955645680E+02 -0.67791262660E+03  0.69029532993E+03  0.12500037971E+03 0.  0.
         25    2    1    2    0    0 -0.26348321397E+02 -0.24955645680E+02 -0.43093110747E+03  0.45016642162E+03  0.12502467545E+03 0.  0.
          5    1    3    3  501    0 -0.39183801443E+02 -0.14976186612E+02 -0.39058246691E+03  0.39285672950E+03  0.47000000000E+01 0. -1.
         -5    1    3    3    0  501  0.65532122841E+02  0.39931832292E+02 -0.28733015970E+03  0.29743860043E+03  0.47000000000E+01 0. -1.
          5    1    4    4  502    0  0.46265941402E+02  0.87283301813E+01 -0.20619066597E+03  0.21154999838E+03  0.47000000000E+01 0.  1.
         -5    1    4    4    0  502 -0.72614262799E+02 -0.33683975862E+02 -0.22474044151E+03  0.23861642324E+03  0.47000000000E+01 0.  1.
<mgrwt>
<rscale>  0 0.26668067E+03</rscale>
<asrwt>0</asrwt>
<pdfrwt beam="1">  1       21 0.24321544E-02 0.26668067E+03</pdfrwt>
<pdfrwt beam="2">  1       21 0.17302356E+00 0.26668067E+03</pdfrwt>
<totfact> 0.17621435E+05</totfact>
</mgrwt>
</event>
<event>
 8    1  0.9705063E-006  0.2992234E+03  0.7546771E-02  0.1085629E+00
         21   -1    0    0  504  503  0.00000000000E+00  0.00000000000E+00  0.62108471368E+02  0.62108471368E+02  0.00000000000E+00 0.  1.
         21   -1    0    0  503  504 -0.00000000000E+00 -0.00000000000E+00 -0.36039624302E+03  0.36039624302E+03  0.00000000000E+00 0.  1.
         25    2    1    2    0    0 -0.51252829067E+02  0.41262242504E+01 -0.23973379018E+03  0.27521720345E+03  0.12501336211E+03 0.  0.
         25    2    1    2    0    0  0.51252829067E+02 -0.41262242504E+01 -0.58553981475E+02  0.14728751094E+03  0.12498465473E+03 0.  0.
          5    1    3    3  501    0 -0.91454283733E+01 -0.32643190636E+01  0.14106663320E+02  0.17759014306E+02  0.47000000000E+01 0. -1.
         -5    1    3    3    0  501 -0.42107400694E+02  0.73905433141E+01 -0.25384045350E+03  0.25745818914E+03  0.47000000000E+01 0. -1.
          5    1    4    4  502    0 -0.29576027385E+02 -0.24136834489E+02  0.95284127694E+01  0.39625860558E+02  0.47000000000E+01 0. -1.
         -5    1    4    4    0  502  0.80828856452E+02  0.20010610239E+02 -0.68082394244E+02  0.10766165038E+03  0.47000000000E+01 0. -1.
<mgrwt>
<rscale>  0 0.29922339E+03</rscale>
<asrwt>0</asrwt>
<pdfrwt beam="1">  1       21 0.95551498E-02 0.29922339E+03</pdfrwt>
<pdfrwt beam="2">  1       21 0.55445574E-01 0.29922339E+03</pdfrwt>
<totfact> 0.26252859E+05</totfact>
</mgrwt>
</event>
<event>
 8    1  0.9705063E-006  0.2601783E+03  0.7546771E-02  0.1107036E+00
         21   -1    0    0  504  503  0.00000000000E+00  0.00000000000E+00  0.30814116403E+02  0.30814116403E+02  0.00000000000E+00 0.  1.
         21   -1    0    0  503  504 -0.00000000000E+00 -0.00000000000E+00 -0.54920257340E+03  0.54920257340E+03  0.00000000000E+00 0.  1.
         25    2    1    2    0    0 -0.58794647455E+01  0.44977913538E+01 -0.33773946067E+03  0.36020822046E+03  0.12500888191E+03 0.  0.
         25    2    1    2    0    0  0.58794647455E+01 -0.44977913538E+01 -0.18064899632E+03  0.21980846934E+03  0.12500762013E+03 0.  0.
          5    1    3    3  501    0 -0.20976284970E+02 -0.52175934155E+02 -0.23625485406E+03  0.24290075896E+03  0.47000000000E+01 0.  1.
         -5    1    3    3    0  501  0.15096820224E+02  0.56673725509E+02 -0.10148460661E+03  0.11730746150E+03  0.47000000000E+01 0.  1.
          5    1    4    4  502    0  0.61640081032E+01  0.58661079701E+02 -0.64611335662E+02  0.87611825478E+02  0.47000000000E+01 0.  1.
         -5    1    4    4    0  502 -0.28454335775E+00 -0.63158871055E+02 -0.11603766066E+03  0.13219664387E+03  0.47000000000E+01 0.  1.
<mgrwt>
<rscale>  0 0.26017834E+03</rscale>
<asrwt>0</asrwt>
<pdfrwt beam="1">  1       21 0.47406333E-02 0.26017834E+03</pdfrwt>
<pdfrwt beam="2">  1       21 0.84492703E-01 0.26017834E+03</pdfrwt>
<totfact> 0.35149760E+05</totfact>
</mgrwt>
</event>
<event>
 8    1  0.9705063E-006  0.3544167E+03  0.7546771E-02  0.1060817E+00
         21   -1    0    0  504  503  0.00000000000E+00  0.00000000000E+00  0.96720020160E+03  0.96720020160E+03  0.00000000000E+00 0. -1.
         21   -1    0    0  503  504 -0.00000000000E+00 -0.00000000000E+00 -0.32467733820E+02  0.32467733820E+02  0.00000000000E+00 0. -1.
         25    2    1    2    0    0 -0.86830101380E+02 -0.79229594202E+02  0.59230637358E+03  0.61665676766E+03  0.12498773463E+03 0.  0.
         25    2    1    2    0    0  0.86830101380E+02  0.79229594202E+02  0.34242609420E+03  0.38301116777E+03  0.12500051816E+03 0.  0.
          5    1    3    3  501    0 -0.98535165086E+02 -0.27605969960E+02  0.49783047785E+03  0.50826031029E+03  0.47000000000E+01 0.  1.
         -5    1    3    3    0  501  0.11705063705E+02 -0.51623624242E+02  0.94475895732E+02  0.10839645737E+03  0.47000000000E+01 0.  1.
          5    1    4    4  502    0  0.22406609541E+02 -0.32628628473E+02  0.11155386960E+03  0.11846113020E+03  0.47000000000E+01 0.  1.
         -5    1    4    4    0  502  0.64423491839E+02  0.11185822267E+03  0.23087222461E+03  0.26455003756E+03  0.47000000000E+01 0.  1.
<mgrwt>
<rscale>  0 0.35441670E+03</rscale>
<asrwt>0</asrwt>
<pdfrwt beam="1">  1       21 0.14880001E+00 0.35441670E+03</pdfrwt>
<pdfrwt beam="2">  1       21 0.49950367E-02 0.35441670E+03</pdfrwt>
<totfact> 0.77197307E+04</totfact>
</mgrwt>
</event>
<event>
 8    1  0.9705063E-006  0.2558854E+03  0.7546771E-02  0.1109641E+00
         21   -1    0    0  504  503  0.00000000000E+00  0.00000000000E+00  0.64398580125E+03  0.64398580125E+03  0.00000000000E+00 0. -1.
         21   -1    0    0  503  504 -0.00000000000E+00 -0.00000000000E+00 -0.25418787851E+02  0.25418787851E+02  0.00000000000E+00 0. -1.
         25    2    1    2    0    0  0.68494147509E+01  0.87113243926E+01  0.24414387138E+03  0.27451065711E+03  0.12500827683E+03 0.  0.
         25    2    1    2    0    0 -0.68494147509E+01 -0.87113243926E+01  0.37442314201E+03  0.39489393199E+03  0.12500290634E+03 0.  0.
          5    1    3    3  501    0 -0.29898064464E+02  0.26421717382E+02  0.16898198388E+02  0.43584865686E+02  0.47000000000E+01 0.  1.
         -5    1    3    3    0  501  0.36747479215E+02 -0.17710392989E+02  0.22724567300E+03  0.23092579142E+03  0.47000000000E+01 0.  1.
          5    1    4    4  502    0  0.54179175361E+02 -0.84061330611E+01  0.25299716690E+03  0.25891253847E+03  0.47000000000E+01 0.  1.
         -5    1    4    4    0  502 -0.61028590111E+02 -0.30519133146E+00  0.12142597511E+03  0.13598139352E+03  0.47000000000E+01 0.  1.
<mgrwt>
<rscale>  0 0.25588543E+03</rscale>
<asrwt>0</asrwt>
<pdfrwt beam="1">  1       21 0.99074726E-01 0.25588543E+03</pdfrwt>
<pdfrwt beam="2">  1       21 0.39105832E-02 0.25588543E+03</pdfrwt>
<totfact> 0.33570573E+05</totfact>
</mgrwt>
</event>
<event>
 8    1  0.9705063E-006  0.4231984E+03  0.7546771E-02  0.1036030E+00
         21   -1    0    0  504  503  0.00000000000E+00  0.00000000000E+00  0.17514925689E+03  0.17514925689E+03  0.00000000000E+00 0.  1.
         21   -1    0    0  503  504 -0.00000000000E+00 -0.00000000000E+00 -0.25563460555E+03  0.25563460555E+03  0.00000000000E+00 0.  1.
         25    2    1    2    0    0  0.48047529922E+01 -0.11823201906E+03  0.85032187600E+02  0.19198889102E+03  0.12500946111E+03 0.  0.
         25    2    1    2    0    0 -0.48047529922E+01  0.11823201906E+03 -0.16551753626E+03  0.23879497142E+03  0.12500035033E+03 0.  0.
          5    1    3    3  501    0 -0.58426086302E+02 -0.46845653892E+02  0.50550957268E+02  0.90474372780E+02  0.47000000000E+01 0.  1.
         -5    1    3    3    0  501  0.63230839294E+02 -0.71386365164E+02  0.34481230332E+02  0.10151451824E+03  0.47000000000E+01 0.  1.
          5    1    4    4  502    0 -0.11637958060E+02  0.13869523194E+03 -0.10510345913E+03  0.17447245213E+03  0.47000000000E+01 0. -1.
         -5    1    4    4    0  502  0.68332050680E+01 -0.20463212879E+02 -0.60414077125E+02  0.64322519289E+02  0.47000000000E+01 0. -1.
<mgrwt>
<rscale>  0 0.42319835E+03</rscale>
<asrwt>0</asrwt>
<pdfrwt beam="1">  1       21 0.26946040E-01 0.42319835E+03</pdfrwt>
<pdfrwt beam="2">  1       21 0.39328401E-01 0.42319835E+03</pdfrwt>
<totfact> 0.76339432E+04</totfact>
</mgrwt>
</event>
<event>
 8    1  0.9705063E-006  0.2771014E+03  0.7546771E-02  0.1097283E+00
         21   -1    0    0  504  503  0.00000000000E+00  0.00000000000E+00  0.16426031024E+03  0.16426031024E+03  0.00000000000E+00 0.  1.
         21   -1    0    0  503  504 -0.00000000000E+00 -0.00000000000E+00 -0.11686507362E+03  0.11686507362E+03  0.00000000000E+00 0.  1.
         25    2    1    2    0    0 -0.44599324368E+02  0.11425486009E+02  0.62355945771E+02  0.14708139191E+03  0.12500012164E+03 0.  0.
         25    2    1    2    0    0  0.44599324368E+02 -0.11425486009E+02 -0.14960709148E+02  0.13404399195E+03  0.12499730995E+03 0.  0.
          5    1    3    3  501    0  0.20627182338E+02  0.17376140771E+02  0.75326143554E+02  0.80146920228E+02  0.47000000000E+01 0. -1.
         -5    1    3    3    0  501 -0.65226506706E+02 -0.59506547622E+01 -0.12970197783E+02  0.66934471685E+02  0.47000000000E+01 0. -1.
          5    1    4    4  502    0  0.11923258135E+01 -0.31673078382E+02  0.46196402778E+02  0.56221020666E+02  0.47000000000E+01 0. -1.
         -5    1    4    4    0  502  0.43406998554E+02  0.20247592374E+02 -0.61157111926E+02  0.77822971285E+02  0.47000000000E+01 0. -1.
<mgrwt>
<rscale>  0 0.27710138E+03</rscale>
<asrwt>0</asrwt>
<pdfrwt beam="1">  1       21 0.25270817E-01 0.27710138E+03</pdfrwt>
<pdfrwt beam="2">  1       21 0.17979242E-01 0.27710138E+03</pdfrwt>
<totfact> 0.41025539E+05</totfact>
</mgrwt>
</event>
<event>
 8    1  0.9705063E-006  0.2757971E+03  0.7546771E-02  0.1098007E+00
         21   -1    0    0  504  503  0.00000000000E+00  0.00000000000E+00  0.49055842267E+03  0.49055842267E+03  0.00000000000E+00 0. -1.
         21   -1    0    0  503  504 -0.00000000000E+00 -0.00000000000E+00 -0.38764006080E+02  0.38764006080E+02  0.00000000000E+00 0. -1.
         25    2    1    2    0    0 -0.48170280371E+02 -0.23043515606E+02  0.18155954211E+03  0.22682524196E+03  0.12503776844E+03 0.  0.
         25    2    1    2    0    0  0.48170280371E+02  0.23043515606E+02  0.27023487448E+03  0.30249718679E+03  0.12500512433E+03 0.  0.
          5    1    3    3  501    0  0.29645315704E+02  0.11602449286E+02  0.11266470825E+03  0.11717033779E+03  0.47000000000E+01 0.  1.
         -5    1    3    3    0  501 -0.77815596075E+02 -0.34645964892E+02  0.68894833862E+02  0.10965490417E+03  0.47000000000E+01 0.  1.
          5    1    4    4  502    0 -0.51727912448E+01  0.36634884024E+02  0.23278320837E+03  0.23575195565E+03  0.47000000000E+01 0.  1.
         -5    1    4    4    0  502  0.53343071615E+02 -0.13591368418E+02  0.37451666109E+02  0.66745231134E+02  0.47000000000E+01 0.  1.
<mgrwt>
<rscale>  0 0.27579710E+03</rscale>
<asrwt>0</asrwt>
<pdfrwt beam="1">  1       21 0.75470522E-01 0.27579710E+03</pdfrwt>
<pdfrwt beam="2">  1       21 0.59636936E-02 0.27579710E+03</pdfrwt>
<totfact> 0.30581267E+05</totfact>
</mgrwt>
</event>
<event>
 8    1  0.9705063E-006  0.3173504E+03  0.7546771E-02  0.1076875E+00
         21   -1    0    0  504  503  0.00000000000E+00  0.00000000000E+00  0.79296177471E+02  0.79296177471E+02  0.00000000000E+00 0. -1.
         21   -1    0    0  503  504 -0.00000000000E+00 -0.00000000000E+00 -0.31751622083E+03  0.31751622083E+03  0.00000000000E+00 0. -1.
         25    2    1    2    0    0  0.85709045968E+02  0.72250373309E+01 -0.17711993132E+03  0.23322754675E+03  0.12500150707E+03 0.  0.
         25    2    1    2    0    0 -0.85709045968E+02 -0.72250373309E+01 -0.61100112048E+02  0.16358485155E+03  0.12501415216E+03 0.  0.
          5    1    3    3  501    0 -0.61559795372E+01  0.13583925963E+02 -0.12762305127E+03  0.12857741770E+03  0.47000000000E+01 0.  1.
         -5    1    3    3    0  501  0.91865025505E+02 -0.63588886323E+01 -0.49496880047E+02  0.10465012905E+03  0.47000000000E+01 0.  1.
          5    1    4    4  502    0 -0.53864450763E+02 -0.30185033694E+02  0.26590987428E+02  0.67392031632E+02  0.47000000000E+01 0.  1.
         -5    1    4    4    0  502 -0.31844595205E+02  0.22959996363E+02 -0.87691099476E+02  0.96192819919E+02  0.47000000000E+01 0.  1.
<mgrwt>
<rscale>  0 0.31735042E+03</rscale>
<asrwt>0</asrwt>
<pdfrwt beam="1">  1       21 0.12199412E-01 0.31735042E+03</pdfrwt>
<pdfrwt beam="2">  1       21 0.48848650E-01 0.31735042E+03</pdfrwt>
<totfact> 0.22073190E+05</totfact>
</mgrwt>
</event>
<event>
 8    1  0.9705063E-006  0.4922059E+03  0.7546771E-02  0.1015834E+00
         21   -1    0    0  504  503  0.00000000000E+00  0.00000000000E+00  0.76299060277E+02  0.76299060277E+02  0.00000000000E+00 0.  1.
         21   -1    0    0  503  504 -0.00000000000E+00 -0.00000000000E+00 -0.79380606059E+03  0.79380606059E+03  0.00000000000E+00 0.  1.
         25    2    1    2    0    0 -0.13625096926E+03  0.14518924392E+03 -0.48741799854E+03  0.54115161150E+03  0.12499807261E+03 0.  0.
         25    2    1    2    0    0  0.13625096926E+03 -0.14518924392E+03 -0.23008900177E+03  0.32895350936E+03  0.12500087764E+03 0.  0.
          5    1    3    3  501    0 -0.12115351364E+03  0.11925686134E+03 -0.25344870006E+03  0.30521911212E+03  0.47000000000E+01 0. -1.
         -5    1    3    3    0  501 -0.15097455621E+02  0.25932382589E+02 -0.23396929848E+03  0.23593249938E+03  0.47000000000E+01 0. -1.
          5    1    4    4  502    0  0.19081739203E+02 -0.74008060568E+01 -0.10955350047E+03  0.11154794560E+03  0.47000000000E+01 0.  1.
         -5    1    4    4    0  502  0.11716923006E+03 -0.13778843787E+03 -0.12053550130E+03  0.21740556376E+03  0.47000000000E+01 0.  1.
<mgrwt>
<rscale>  0 0.49220588E+03</rscale>
<asrwt>0</asrwt>
<pdfrwt beam="1">  1       21 0.11738317E-01 0.49220588E+03</pdfrwt>
<pdfrwt beam="2">  1       21 0.12212401E+00 0.49220588E+03</pdfrwt>
<totfact> 0.27607844E+04</totfact>
</mgrwt>
</event>
<event>
 8    1  0.9705063E-006  0.3383062E+03  0.7546771E-02  0.1067520E+00
         21   -1    0    0  504  503  0.00000000000E+00  0.00000000000E+00  0.11577038372E+03  0.11577038372E+03  0.00000000000E+00 0. -1.
         21   -1    0    0  503  504 -0.00000000000E+00 -0.00000000000E+00 -0.24715102970E+03  0.24715102970E+03  0.00000000000E+00 0. -1.
         25    2    1    2    0    0  0.62723327871E+02 -0.38334246970E+02  0.27730820638E+02  0.14764115109E+03  0.12500072292E+03 0.  0.
         25    2    1    2    0    0 -0.62723327871E+02  0.38334246970E+02 -0.15911146662E+03  0.21528026234E+03  0.12500160876E+03 0.  0.
          5    1    3    3  501    0 -0.59759513800E+01 -0.92623841986E+01 -0.43058388595E+02  0.44694726583E+02  0.47000000000E+01 0. -1.
         -5    1    3    3    0  501  0.68699279251E+02 -0.29071862771E+02  0.70789209233E+02  0.10294642451E+03  0.47000000000E+01 0. -1.
          5    1    4    4  502    0 -0.49081238255E+02  0.83134198983E+02 -0.11999152432E+03  0.15407893723E+03  0.47000000000E+01 0.  1.
         -5    1    4    4    0  502 -0.13642089617E+02 -0.44799952013E+02 -0.39119942305E+02  0.61201325112E+02  0.47000000000E+01 0.  1.
<mgrwt>
<rscale>  0 0.33830619E+03</rscale>
<asrwt>0</asrwt>
<pdfrwt beam="1">  1       21 0.17810828E-01 0.33830619E+03</pdfrwt>
<pdfrwt beam="2">  1       21 0.38023235E-01 0.33830619E+03</pdfrwt>
<totfact> 0.18385317E+05</totfact>
</mgrwt>
</event>
<event>
 8    1  0.9705063E-006  0.2640092E+03  0.7546771E-02  0.1104758E+00
         21   -1    0    0  504  503  0.00000000000E+00  0.00000000000E+00  0.84011821665E+02  0.84011821665E+02  0.00000000000E+00 0.  1.
         21   -1    0    0  503  504 -0.00000000000E+00 -0.00000000000E+00 -0.20741384329E+03  0.20741384329E+03  0.00000000000E+00 0.  1.
         25    2    1    2    0    0  0.49396484405E+01 -0.19101699204E+02 -0.10316475296E+03  0.16327121466E+03  0.12500099297E+03 0.  0.
         25    2    1    2    0    0 -0.49396484405E+01  0.19101699204E+02 -0.20237268666E+02  0.12815445030E+03  0.12499896419E+03 0.  0.
          5    1    3    3  501    0  0.38260212845E+02  0.30153515432E+02 -0.60693991453E+01  0.49315372714E+02  0.47000000000E+01 0.  1.
         -5    1    3    3    0  501 -0.33320564405E+02 -0.49255214636E+02 -0.97095353819E+02  0.11395584195E+03  0.47000000000E+01 0.  1.
          5    1    4    4  502    0 -0.55833439661E+02  0.49062626528E+01 -0.42631429072E+02  0.70576009679E+02  0.47000000000E+01 0.  1.
         -5    1    4    4    0  502  0.50893791220E+02  0.14195436551E+02  0.22394160406E+02  0.57578440617E+02  0.47000000000E+01 0.  1.
<mgrwt>
<rscale>  0 0.26400920E+03</rscale>
<asrwt>0</asrwt>
<pdfrwt beam="1">  1       21 0.12924896E-01 0.26400920E+03</pdfrwt>
<pdfrwt beam="2">  1       21 0.31909822E-01 0.26400920E+03</pdfrwt>
<totfact> 0.47832310E+05</totfact>
</mgrwt>
</event>
<event>
 8    1  0.9705063E-006  0.4181441E+03  0.7546771E-02  0.1037672E+00
         21   -1    0    0  504  503  0.00000000000E+00  0.00000000000E+00  0.24810268674E+02  0.24810268674E+02  0.00000000000E+00 0.  1.
         21   -1    0    0  503  504 -0.00000000000E+00 -0.00000000000E+00 -0.17618154051E+04  0.17618154051E+04  0.00000000000E+00 0.  1.
         25    2    1    2    0    0  0.73915858019E+02  0.30432263503E+02 -0.14978680424E+04  0.15051985559E+04  0.12499737390E+03 0.  0.
         25    2    1    2    0    0 -0.73915858019E+02 -0.30432263503E+02 -0.23913709402E+03  0.28142711787E+03  0.12499998485E+03 0.  0.
          5    1    3    3  501    0  0.57520167548E+02 -0.43570703025E+02 -0.70089026498E+03  0.70461069349E+03  0.47000000000E+01 0.  1.
         -5    1    3    3    0  501  0.16395690471E+02  0.74002966528E+02 -0.79697777741E+03  0.80058786239E+03  0.47000000000E+01 0.  1.
          5    1    4    4  502    0  0.81045407794E+00 -0.41137722301E+01  0.14422066705E+02  0.15737406578E+02  0.47000000000E+01 0.  1.
         -5    1    4    4    0  502 -0.74726312097E+02 -0.26318491273E+02 -0.25355916072E+03  0.26568971130E+03  0.47000000000E+01 0.  1.
<mgrwt>
<rscale>  0 0.41814406E+03</rscale>
<asrwt>0</asrwt>
<pdfrwt beam="1">  1       21 0.38169656E-02 0.41814406E+03</pdfrwt>
<pdfrwt beam="2">  1       21 0.27104844E+00 0.41814406E+03</pdfrwt>
<totfact> 0.18485352E+04</totfact>
</mgrwt>
</event>
<event>
 8    1  0.9705063E-006  0.3068709E+03  0.7546771E-02  0.1081855E+00
         21   -1    0    0  504  503  0.00000000000E+00  0.00000000000E+00  0.66972409646E+02  0.66972409646E+02  0.00000000000E+00 0.  1.
         21   -1    0    0  503  504 -0.00000000000E+00 -0.00000000000E+00 -0.35152442370E+03  0.35152442370E+03  0.00000000000E+00 0.  1.
         25    2    1    2    0    0 -0.54815885954E+02  0.68389156481E+02 -0.12142485736E+03  0.19507515224E+03  0.12501384307E+03 0.  0.
         25    2    1    2    0    0  0.54815885954E+02 -0.68389156481E+02 -0.16312715669E+03  0.22342168110E+03  0.12499968104E+03 0.  0.
          5    1    3    3  501    0  0.85789751791E+01 -0.29404471802E+02 -0.71858703730E+01  0.31811138146E+02  0.47000000000E+01 0. -1.
         -5    1    3    3    0  501 -0.63394861133E+02  0.97793628283E+02 -0.11423898699E+03  0.16326401410E+03  0.47000000000E+01 0. -1.
          5    1    4    4  502    0  0.25895653904E+02 -0.68751878400E+02 -0.18568096900E+02  0.75922789050E+02  0.47000000000E+01 0. -1.
         -5    1    4    4    0  502  0.28920232050E+02  0.36272191894E+00 -0.14455905979E+03  0.14749889206E+03  0.47000000000E+01 0. -1.
<mgrwt>
<rscale>  0 0.30687090E+03</rscale>
<asrwt>0</asrwt>
<pdfrwt beam="1">  1       21 0.10303448E-01 0.30687090E+03</pdfrwt>
<pdfrwt beam="2">  1       21 0.54080680E-01 0.30687090E+03</pdfrwt>
<totfact> 0.24166819E+05</totfact>
</mgrwt>
</event>
<event>
 8    1  0.9705063E-006  0.3648754E+03  0.7546771E-02  0.1056670E+00
         21   -1    0    0  504  503  0.00000000000E+00  0.00000000000E+00  0.94946829680E+03  0.94946829680E+03  0.00000000000E+00 0. -1.
         21   -1    0    0  503  504 -0.00000000000E+00 -0.00000000000E+00 -0.35054902416E+02  0.35054902416E+02  0.00000000000E+00 0. -1.
         25    2    1    2    0    0 -0.57391316556E+02 -0.76286894641E+02  0.20777049658E+03  0.26058766145E+03  0.12499558608E+03 0.  0.
         25    2    1    2    0    0  0.57391316556E+02  0.76286894641E+02  0.70664289780E+03  0.72393553777E+03  0.12500009728E+03 0.  0.
          5    1    3    3  501    0 -0.50130952036E+02  0.17485101155E+02  0.34833305277E+02  0.63673308936E+02  0.47000000000E+01 0. -1.
         -5    1    3    3    0  501 -0.72603645207E+01 -0.93771995796E+02  0.17293719131E+03  0.19691435251E+03  0.47000000000E+01 0. -1.
          5    1    4    4  502    0  0.40939292887E+02  0.31773573310E+02  0.63931716596E+03  0.64143130135E+03  0.47000000000E+01 0. -1.
         -5    1    4    4    0  502  0.16452023670E+02  0.44513321331E+02  0.67325731845E+02  0.82504236420E+02  0.47000000000E+01 0. -1.
<mgrwt>
<rscale>  0 0.36487542E+03</rscale>
<asrwt>0</asrwt>
<pdfrwt beam="1">  1       21 0.14607203E+00 0.36487542E+03</pdfrwt>
<pdfrwt beam="2">  1       21 0.53930626E-02 0.36487542E+03</pdfrwt>
<totfact> 0.70878167E+04</totfact>
</mgrwt>
</event>
<event>
 8    1  0.9705063E-006  0.3222335E+03  0.7546771E-02  0.1074626E+00
         21   -1    0    0  504  503  0.00000000000E+00  0.00000000000E+00  0.10889805976E+03  0.10889805976E+03  0.00000000000E+00 0.  1.
         21   -1    0    0  503  504 -0.00000000000E+00 -0.00000000000E+00 -0.23837522554E+03  0.23837522554E+03  0.00000000000E+00 0.  1.
         25    2    1    2    0    0  0.34330468475E+02 -0.34170067335E+02 -0.16105069400E+03  0.20954989185E+03  0.12501062583E+03 0.  0.
         25    2    1    2    0    0 -0.34330468475E+02  0.34170067335E+02  0.31573528219E+02  0.13772339344E+03  0.12499868339E+03 0.  0.
          5    1    3    3  501    0 -0.31245625925E+02 -0.49356306430E+02 -0.39968514530E+02  0.70935930794E+02  0.47000000000E+01 0.  1.
         -5    1    3    3    0  501  0.65576094401E+02  0.15186239095E+02 -0.12108217947E+03  0.13861396106E+03  0.47000000000E+01 0.  1.
          5    1    4    4  502    0  0.41037644355E+02  0.21839417875E+02  0.38983150276E+02  0.60850837569E+02  0.47000000000E+01 0. -1.
         -5    1    4    4    0  502 -0.75368112830E+02  0.12330649460E+02 -0.74096220575E+01  0.76872555875E+02  0.47000000000E+01 0. -1.
<mgrwt>
<rscale>  0 0.32223345E+03</rscale>
<asrwt>0</asrwt>
<pdfrwt beam="1">  1       21 0.16753548E-01 0.32223345E+03</pdfrwt>
<pdfrwt beam="2">  1       21 0.36673112E-01 0.32223345E+03</pdfrwt>
<totfact> 0.22247002E+05</totfact>
</mgrwt>
</event>
<event>
 8    1  0.9705063E-006  0.2683482E+03  0.7546771E-02  0.1102229E+00
         21   -1    0    0  504  503  0.00000000000E+00  0.00000000000E+00  0.67479023352E+02  0.67479023352E+02  0.00000000000E+00 0.  1.
         21   -1    0    0  503  504 -0.00000000000E+00 -0.00000000000E+00 -0.26678936282E+03  0.26678936282E+03  0.00000000000E+00 0.  1.
         25    2    1    2    0    0  0.18071649468E+02  0.19145867931E+02 -0.48531677630E+02  0.13665419454E+03  0.12500358546E+03 0.  0.
         25    2    1    2    0    0 -0.18071649468E+02 -0.19145867931E+02 -0.15077866184E+03  0.19761419164E+03  0.12499606032E+03 0.  0.
          5    1    3    3  501    0  0.13306706043E+02 -0.24496674446E+02  0.33293124594E+02  0.43676969101E+02  0.47000000000E+01 0. -1.
         -5    1    3    3    0  501  0.47649434249E+01  0.43642542377E+02 -0.81824802224E+02  0.92977225437E+02  0.47000000000E+01 0. -1.
          5    1    4    4  502    0  0.45006633903E+02  0.22230000711E+02 -0.44813320375E+02  0.67454382437E+02  0.47000000000E+01 0.  1.
         -5    1    4    4    0  502 -0.63078283371E+02 -0.41375868642E+02 -0.10596534147E+03  0.13015980920E+03  0.47000000000E+01 0.  1.
<mgrwt>
<rscale>  0 0.26834817E+03</rscale>
<asrwt>0</asrwt>
<pdfrwt beam="1">  1       21 0.10381388E-01 0.26834817E+03</pdfrwt>
<pdfrwt beam="2">  1       21 0.41044518E-01 0.26834817E+03</pdfrwt>
<totfact> 0.42736285E+05</totfact>
</mgrwt>
</event>
<event>
 8    1  0.9705063E-006  0.3467460E+03  0.7546771E-02  0.1063959E+00
         21   -1    0    0  504  503  0.00000000000E+00  0.00000000000E+00  0.86466288339E+02  0.86466288339E+02  0.00000000000E+00 0.  1.
         21   -1    0    0  503  504 -0.00000000000E+00 -0.00000000000E+00 -0.34762899655E+03  0.34762899655E+03  0.00000000000E+00 0.  1.
         25    2    1    2    0    0  0.10364579446E+03  0.50471941446E+02 -0.17287776632E+03  0.24249143542E+03  0.12500202632E+03 0.  0.
         25    2    1    2    0    0 -0.10364579446E+03 -0.50471941446E+02 -0.88284941897E+02  0.19160384947E+03  0.12501174578E+03 0.  0.
          5    1    3    3  501    0  0.11219823423E+03  0.75583547788E+02 -0.11118568702E+03  0.17517323842E+03  0.47000000000E+01 0. -1.
         -5    1    3    3    0  501 -0.85524397733E+01 -0.25111606342E+02 -0.61692079299E+02  0.67318197000E+02  0.47000000000E+01 0. -1.
          5    1    4    4  502    0 -0.10836013326E+02 -0.12142868743E+01 -0.85572708609E+02  0.86392546763E+02  0.47000000000E+01 0. -1.
         -5    1    4    4    0  502 -0.92809781134E+02 -0.49257654572E+02 -0.27122332873E+01  0.10521130271E+03  0.47000000000E+01 0. -1.
<mgrwt>
<rscale>  0 0.34674595E+03</rscale>
<asrwt>0</asrwt>
<pdfrwt beam="1">  1       21 0.13302506E-01 0.34674595E+03</pdfrwt>
<pdfrwt beam="2">  1       21 0.53481385E-01 0.34674595E+03</pdfrwt>
<totfact> 0.15465636E+05</totfact>
</mgrwt>
</event>
<event>
 8    1  0.9705063E-006  0.3947089E+03  0.7546771E-02  0.1045627E+00
         21   -1    0    0  504  503  0.00000000000E+00  0.00000000000E+00  0.13085026606E+03  0.13085026606E+03  0.00000000000E+00 0.  1.
         21   -1    0    0  503  504 -0.00000000000E+00 -0.00000000000E+00 -0.29765918405E+03  0.29765918405E+03  0.00000000000E+00 0.  1.
         25    2    1    2    0    0  0.10287057220E+03  0.18771169781E+02 -0.20423539298E+03  0.26129460899E+03  0.12501226140E+03 0.  0.
         25    2    1    2    0    0 -0.10287057220E+03 -0.18771169781E+02  0.37426474997E+02  0.16721484112E+03  0.12500140247E+03 0.  0.
          5    1    3    3  501    0  0.83621617011E+02  0.54217754762E+02 -0.72197762816E+02  0.12315334636E+03  0.47000000000E+01 0. -1.
         -5    1    3    3    0  501  0.19248955192E+02 -0.35446584980E+02 -0.13203763017E+03  0.13814126264E+03  0.47000000000E+01 0. -1.
          5    1    4    4  502    0 -0.71453316175E+02 -0.70601249024E+02  0.11821456047E+02  0.10125191148E+03  0.47000000000E+01 0.  1.
         -5    1    4    4    0  502 -0.31417256029E+02  0.51830079243E+02  0.25605018949E+02  0.65962929636E+02  0.47000000000E+01 0.  1.
<mgrwt>
<rscale>  0 0.39470892E+03</rscale>
<asrwt>0</asrwt>
<pdfrwt beam="1">  1       21 0.20130810E-01 0.39470892E+03</pdfrwt>
<pdfrwt beam="2">  1       21 0.45793720E-01 0.39470892E+03</pdfrwt>
<totfact> 0.98285986E+04</totfact>
</mgrwt>
</event>
<event>
 8    1  0.9705063E-006  0.6421296E+03  0.7546771E-02  0.9821661E-01
         21   -1    0    0  504  503  0.00000000000E+00  0.00000000000E+00  0.21106575586E+03  0.21106575586E+03  0.00000000000E+00 0.  1.
         21   -1    0    0  503  504 -0.00000000000E+00 -0.00000000000E+00 -0.48839097416E+03  0.48839097416E+03  0.00000000000E+00 0.  1.
         25    2    1    2    0    0 -0.15624122170E+03  0.10400357398E+03  0.11027718753E+03  0.25102984700E+03  0.12500745273E+03 0.  0.
         25    2    1    2    0    0  0.15624122170E+03 -0.10400357398E+03 -0.38760240583E+03  0.44842688301E+03  0.12499192631E+03 0.  0.
          5    1    3    3  501    0 -0.46845343964E+02  0.96830653372E+02  0.88007461695E+02  0.13906137133E+03  0.47000000000E+01 0.  1.
         -5    1    3    3    0  501 -0.10939587773E+03  0.71729206093E+01  0.22269725839E+02  0.11196847567E+03  0.47000000000E+01 0.  1.
          5    1    4    4  502    0  0.74188458744E+02 -0.12049818623E+03 -0.23721670407E+03  0.27625639356E+03  0.47000000000E+01 0. -1.
         -5    1    4    4    0  502  0.82052762952E+02  0.16494612251E+02 -0.15038570176E+03  0.17217048945E+03  0.47000000000E+01 0. -1.
<mgrwt>
<rscale>  0 0.64212961E+03</rscale>
<asrwt>0</asrwt>
<pdfrwt beam="1">  1       21 0.32471655E-01 0.64212961E+03</pdfrwt>
<pdfrwt beam="2">  1       21 0.75137072E-01 0.64212961E+03</pdfrwt>
<totfact> 0.12383244E+04</totfact>
</mgrwt>
</event>
<event>
 8    1  0.9705063E-006  0.3289871E+03  0.7546771E-02  0.1071586E+00
         21   -1    0    0  504  503  0.00000000000E+00  0.00000000000E+00  0.11995441289E+03  0.11995441289E+03  0.00000000000E+00 0.  1.
         21   -1    0    0  503  504 -0.00000000000E+00 -0.00000000000E+00 -0.22557004303E+03  0.22557004303E+03  0.00000000000E+00 0.  1.
         25    2    1    2    0    0 -0.40834876976E+02 -0.97576421626E+02 -0.69220123689E+02  0.17777952408E+03  0.12500195368E+03 0.  0.
         25    2    1    2    0    0  0.40834876976E+02  0.97576421626E+02 -0.36395506448E+02  0.16774493183E+03  0.12500033612E+03 0.  0.
          5    1    3    3  501    0  0.27419956908E+02 -0.75475311334E+01 -0.57218382415E+02  0.64069123212E+02  0.47000000000E+01 0. -1.
         -5    1    3    3    0  501 -0.68254833884E+02 -0.90028890493E+02 -0.12001741274E+02  0.11371040087E+03  0.47000000000E+01 0. -1.
          5    1    4    4  502    0 -0.43053314267E+02  0.53270418655E+02 -0.12258143851E+02  0.69740070717E+02  0.47000000000E+01 0.  1.
         -5    1    4    4    0  502  0.83888191242E+02  0.44306002972E+02 -0.24137362597E+02  0.98004861116E+02  0.47000000000E+01 0.  1.
<mgrwt>
<rscale>  0 0.32898706E+03</rscale>
<asrwt>0</asrwt>
<pdfrwt beam="1">  1       21 0.18454525E-01 0.32898706E+03</pdfrwt>
<pdfrwt beam="2">  1       21 0.34703083E-01 0.32898706E+03</pdfrwt>
<totfact> 0.20728376E+05</totfact>
</mgrwt>
</event>
<event>
 8    1  0.9705063E-006  0.2692659E+03  0.7546771E-02  0.1101701E+00
         21   -1    0    0  504  503  0.00000000000E+00  0.00000000000E+00  0.64396419645E+02  0.64396419645E+02  0.00000000000E+00 0. -1.
         21   -1    0    0  503  504 -0.00000000000E+00 -0.00000000000E+00 -0.28147566182E+03  0.28147566182E+03  0.00000000000E+00 0. -1.
         25    2    1    2    0    0 -0.33377704104E+02  0.34230796652E+02 -0.12738528775E+03  0.18476431992E+03  0.12500009524E+03 0.  0.
         25    2    1    2    0    0  0.33377704104E+02 -0.34230796652E+02 -0.89693954429E+02  0.16110776155E+03  0.12499954720E+03 0.  0.
          5    1    3    3  501    0  0.20754983059E+02 -0.11954611045E+02 -0.10819559728E+03  0.11091464880E+03  0.47000000000E+01 0. -1.
         -5    1    3    3    0  501 -0.54132687164E+02  0.46185407696E+02 -0.19189690460E+02  0.73849671114E+02  0.47000000000E+01 0. -1.
          5    1    4    4  502    0  0.26539744583E+02  0.45005764460E+02 -0.48382761304E+02  0.71364266048E+02  0.47000000000E+01 0.  1.
         -5    1    4    4    0  502  0.68379595212E+01 -0.79236561111E+02 -0.41311193124E+02  0.89743495500E+02  0.47000000000E+01 0.  1.
<mgrwt>
<rscale>  0 0.26926585E+03</rscale>
<asrwt>0</asrwt>
<pdfrwt beam="1">  1       21 0.99071416E-02 0.26926585E+03</pdfrwt>
<pdfrwt beam="2">  1       21 0.43303948E-01 0.26926585E+03</pdfrwt>
<totfact> 0.41605812E+05</totfact>
</mgrwt>
</event>
<event>
 8    1  0.9705063E-006  0.2916818E+03  0.7546771E-02  0.1089474E+00
         21   -1    0    0  504  503  0.00000000000E+00  0.00000000000E+00  0.14617726968E+03  0.14617726968E+03  0.00000000000E+00 0. -1.
         21   -1    0    0  503  504 -0.00000000000E+00 -0.00000000000E+00 -0.14550528398E+03  0.14550528398E+03  0.00000000000E+00 0. -1.
         25    2    1    2    0    0  0.30848764333E+02  0.39753204010E+02  0.56117820252E+02  0.14596558004E+03  0.12499910927E+03 0.  0.
         25    2    1    2    0    0 -0.30848764333E+02 -0.39753204010E+02 -0.55445834552E+02  0.14571697362E+03  0.12500892905E+03 0.  0.
          5    1    3    3  501    0 -0.47784596652E+02  0.52702105168E+01  0.14497616395E+02  0.50432268214E+02  0.47000000000E+01 0. -1.
         -5    1    3    3    0  501  0.78633360985E+02  0.34482993493E+02  0.41620203857E+02  0.95533311830E+02  0.47000000000E+01 0. -1.
          5    1    4    4  502    0 -0.41052174300E+02 -0.45129603442E+02 -0.90088548860E+02  0.10890362141E+03  0.47000000000E+01 0.  1.
         -5    1    4    4    0  502  0.10203409966E+02  0.53763994319E+01  0.34642714308E+02  0.36813352203E+02  0.47000000000E+01 0.  1.
<mgrwt>
<rscale>  0 0.29168178E+03</rscale>
<asrwt>0</asrwt>
<pdfrwt beam="1">  1       21 0.22488811E-01 0.29168178E+03</pdfrwt>
<pdfrwt beam="2">  1       21 0.22385428E-01 0.29168178E+03</pdfrwt>
<totfact> 0.33847542E+05</totfact>
</mgrwt>
</event>
<event>
 8    1  0.9705063E-006  0.2697724E+03  0.7546771E-02  0.1101410E+00
         21   -1    0    0  504  503  0.00000000000E+00  0.00000000000E+00  0.44027454812E+02  0.44027454812E+02  0.00000000000E+00 0. -1.
         21   -1    0    0  503  504 -0.00000000000E+00 -0.00000000000E+00 -0.41324854986E+03  0.41324854986E+03  0.00000000000E+00 0. -1.
         25    2    1    2    0    0 -0.13131685958E+02 -0.31270985660E+02 -0.12073379358E+03  0.17706391986E+03  0.12499866833E+03 0.  0.
         25    2    1    2    0    0  0.13131685958E+02  0.31270985660E+02 -0.24848730146E+03  0.28021208481E+03  0.12499023067E+03 0.  0.
          5    1    3    3  501    0 -0.52327996130E+02 -0.47753816115E+02 -0.11320466883E+03  0.13362646885E+03  0.47000000000E+01 0.  1.
         -5    1    3    3    0  501  0.39196310173E+02  0.16482830455E+02 -0.75291247542E+01  0.43437451013E+02  0.47000000000E+01 0.  1.
          5    1    4    4  502    0  0.13318837219E+02  0.67039599318E+02 -0.69373320194E+02  0.97501009514E+02  0.47000000000E+01 0. -1.
         -5    1    4    4    0  502 -0.18715126171E+00 -0.35768613658E+02 -0.17911398127E+03  0.18271107529E+03  0.47000000000E+01 0. -1.
<mgrwt>
<rscale>  0 0.26977236E+03</rscale>
<asrwt>0</asrwt>
<pdfrwt beam="1">  1       21 0.67734543E-02 0.26977236E+03</pdfrwt>
<pdfrwt beam="2">  1       21 0.63576702E-01 0.26977236E+03</pdfrwt>
<totfact> 0.35952688E+05</totfact>
</mgrwt>
</event>
<event>
 8    1  0.9705063E-006  0.3543858E+03  0.7546771E-02  0.1060829E+00
         21   -1    0    0  504  503  0.00000000000E+00  0.00000000000E+00  0.36486380103E+03  0.36486380103E+03  0.00000000000E+00 0.  1.
         21   -1    0    0  503  504 -0.00000000000E+00 -0.00000000000E+00 -0.86052193467E+02  0.86052193467E+02  0.00000000000E+00 0.  1.
         25    2    1    2    0    0 -0.89963995607E+02 -0.42596284501E+02  0.41974190515E+02  0.16521756419E+03  0.12500818729E+03 0.  0.
         25    2    1    2    0    0  0.89963995607E+02  0.42596284501E+02  0.23683741705E+03  0.28569843031E+03  0.12499466791E+03 0.  0.
          5    1    3    3  501    0 -0.97585281950E+02 -0.19036691187E+02 -0.17097720104E+02  0.10099358840E+03  0.47000000000E+01 0.  1.
         -5    1    3    3    0  501  0.76212863422E+01 -0.23559593315E+02  0.59071910619E+02  0.64223975794E+02  0.47000000000E+01 0.  1.
          5    1    4    4  502    0 -0.87728368232E+01  0.42808072311E+02  0.14225176385E+03  0.14888635948E+03  0.47000000000E+01 0.  1.
         -5    1    4    4    0  502  0.98736832431E+02 -0.21178780946E+00  0.94585653199E+02  0.13681207083E+03  0.47000000000E+01 0.  1.
<mgrwt>
<rscale>  0 0.35438584E+03</rscale>
<asrwt>0</asrwt>
<pdfrwt beam="1">  1       21 0.56132892E-01 0.35438584E+03</pdfrwt>
<pdfrwt beam="2">  1       21 0.13238799E-01 0.35438584E+03</pdfrwt>
<totfact> 0.14040541E+05</totfact>
</mgrwt>
</event>
<event>
 8    1  0.9705063E-006  0.3020046E+03  0.7546771E-02  0.1084243E+00
         21   -1    0    0  504  503  0.00000000000E+00  0.00000000000E+00  0.55371651563E+03  0.55371651563E+03  0.00000000000E+00 0.  1.
         21   -1    0    0  503  504 -0.00000000000E+00 -0.00000000000E+00 -0.41179351838E+02  0.41179351838E+02  0.00000000000E+00 0.  1.
         25    2    1    2    0    0  0.79831627263E+02  0.83369551281E+01  0.30964999836E+03  0.34344054235E+03  0.12500276443E+03 0.  0.
         25    2    1    2    0    0 -0.79831627263E+02 -0.83369551281E+01  0.20288716544E+03  0.25145532512E+03  0.12499594033E+03 0.  0.
          5    1    3    3  501    0  0.40659460657E+02  0.55504442786E+02  0.79626607281E+02  0.10533955334E+03  0.47000000000E+01 0. -1.
         -5    1    3    3    0  501  0.39172166606E+02 -0.47167487657E+02  0.23002339108E+03  0.23810098902E+03  0.47000000000E+01 0. -1.
          5    1    4    4  502    0 -0.77781969014E+02 -0.10710007486E+02  0.21989193496E+03  0.23353648970E+03  0.47000000000E+01 0. -1.
         -5    1    4    4    0  502 -0.20496582486E+01  0.23730523580E+01 -0.17004769516E+02  0.17918835417E+02  0.47000000000E+01 0. -1.
<mgrwt>
<rscale>  0 0.30200455E+03</rscale>
<asrwt>0</asrwt>
<pdfrwt beam="1">  1       21 0.85187151E-01 0.30200455E+03</pdfrwt>
<pdfrwt beam="2">  1       21 0.63352853E-02 0.30200455E+03</pdfrwt>
<totfact> 0.20759500E+05</totfact>
</mgrwt>
</event>
<event>
 8    1  0.9705063E-006  0.2797315E+03  0.7546771E-02  0.1095836E+00
         21   -1    0    0  504  503  0.00000000000E+00  0.00000000000E+00  0.13173592018E+03  0.13173592018E+03  0.00000000000E+00 0. -1.
         21   -1    0    0  503  504 -0.00000000000E+00 -0.00000000000E+00 -0.14849729774E+03  0.14849729774E+03  0.00000000000E+00 0. -1.
         25    2    1    2    0    0 -0.58260072106E+02 -0.20046245042E+02  0.36407342750E+01  0.13941489821E+03  0.12500868351E+03 0.  0.
         25    2    1    2    0    0  0.58260072106E+02  0.20046245042E+02 -0.20402111830E+02  0.14081831971E+03  0.12496985659E+03 0.  0.
          5    1    3    3  501    0 -0.80020272578E+02  0.19504042411E+02  0.28975207492E+02  0.87437431018E+02  0.47000000000E+01 0. -1.
         -5    1    3    3    0  501  0.21760200472E+02 -0.39550287452E+02 -0.25334473217E+02  0.51977467188E+02  0.47000000000E+01 0. -1.
          5    1    4    4  502    0  0.46096846708E+02 -0.13026379261E+02  0.45311575313E+02  0.66104725175E+02  0.47000000000E+01 0. -1.
         -5    1    4    4    0  502  0.12163225398E+02  0.33072624302E+02 -0.65713687143E+02  0.74713594534E+02  0.47000000000E+01 0. -1.
<mgrwt>
<rscale>  0 0.27973150E+03</rscale>
<asrwt>0</asrwt>
<pdfrwt beam="1">  1       21 0.20267065E-01 0.27973150E+03</pdfrwt>
<pdfrwt beam="2">  1       21 0.22845738E-01 0.27973150E+03</pdfrwt>
<totfact> 0.39748516E+05</totfact>
</mgrwt>
</event>
<event>
 8    1  0.9705063E-006  0.2631229E+03  0.7546771E-02  0.1105281E+00
         21   -1    0    0  504  503  0.00000000000E+00  0.00000000000E+00  0.30003389247E+03  0.30003389247E+03  0.00000000000E+00 0.  1.
         21   -1    0    0  503  504 -0.00000000000E+00 -0.00000000000E+00 -0.57688186158E+02  0.57688186158E+02  0.00000000000E+00 0.  1.
         25    2    1    2    0    0 -0.13469732245E+02  0.28291881986E+02  0.15719322706E+03  0.20326496146E+03  0.12500027859E+03 0.  0.
         25    2    1    2    0    0  0.13469732245E+02 -0.28291881986E+02  0.85152479252E+02  0.15445711718E+03  0.12499676816E+03 0.  0.
          5    1    3    3  501    0 -0.31844199596E+02 -0.79284403559E+01  0.15892207959E+03  0.16234294132E+03  0.47000000000E+01 0. -1.
         -5    1    3    3    0  501  0.18374467351E+02  0.36220322341E+02 -0.17288525287E+01  0.40922020136E+02  0.47000000000E+01 0. -1.
          5    1    4    4  502    0  0.52300220565E+02 -0.43176613450E+02  0.89488825633E+02  0.11238270745E+03  0.47000000000E+01 0.  1.
         -5    1    4    4    0  502 -0.38830488320E+02  0.14884731464E+02 -0.43363463810E+01  0.42074409727E+02  0.47000000000E+01 0.  1.
<mgrwt>
<rscale>  0 0.26312287E+03</rscale>
<asrwt>0</asrwt>
<pdfrwt beam="1">  1       21 0.46159059E-01 0.26312287E+03</pdfrwt>
<pdfrwt beam="2">  1       21 0.88751058E-02 0.26312287E+03</pdfrwt>
<totfact> 0.44356854E+05</totfact>
</mgrwt>
</event>
<event>
 8    1  0.9705063E-006  0.2649431E+03  0.7546771E-02  0.1104209E+00
         21   -1    0    0  504  503  0.00000000000E+00  0.00000000000E+00  0.50287764516E+03  0.50287764516E+03  0.00000000000E+00 0. -1.
         21   -1    0    0  503  504 -0.00000000000E+00 -0.00000000000E+00 -0.34896570860E+02  0.34896570860E+02  0.00000000000E+00 0. -1.
         25    2    1    2    0    0  0.10739330799E+02  0.30410555232E+02  0.17364246921E+03  0.21637171127E+03  0.12499950093E+03 0.  0.
         25    2    1    2    0    0 -0.10739330799E+02 -0.30410555232E+02  0.29433860510E+03  0.32140250475E+03  0.12499688201E+03 0.  0.
          5    1    3    3  501    0  0.26196953138E+02 -0.14735960708E+02  0.16483537005E+03  0.16761926533E+03  0.47000000000E+01 0.  1.
         -5    1    3    3    0  501 -0.15457622339E+02  0.45146515940E+02  0.88070991596E+01  0.48752445944E+02  0.47000000000E+01 0.  1.
          5    1    4    4  502    0  0.36505040664E+02  0.11112068647E+02  0.22252938069E+03  0.22582628575E+03  0.47000000000E+01 0.  1.
         -5    1    4    4    0  502 -0.47244371463E+02 -0.41522623878E+02  0.71809224405E+02  0.95576219000E+02  0.47000000000E+01 0.  1.
<mgrwt>
<rscale>  0 0.26494305E+03</rscale>
<asrwt>0</asrwt>
<pdfrwt beam="1">  1       21 0.77365786E-01 0.26494305E+03</pdfrwt>
<pdfrwt beam="2">  1       21 0.53687036E-02 0.26494305E+03</pdfrwt>
<totfact> 0.34721842E+05</totfact>
</mgrwt>
</event>
<event>
 8    1  0.9705063E-006  0.5006768E+03  0.7546771E-02  0.1013602E+00
         21   -1    0    0  504  503  0.00000000000E+00  0.00000000000E+00  0.15530860994E+03  0.15530860994E+03  0.00000000000E+00 0. -1.
         21   -1    0    0  503  504 -0.00000000000E+00 -0.00000000000E+00 -0.40351474146E+03  0.40351474146E+03  0.00000000000E+00 0. -1.
         25    2    1    2    0    0  0.90949749078E+02 -0.15528578018E+03  0.11032968784E+02  0.21938965930E+03  0.12499826329E+03 0.  0.
         25    2    1    2    0    0 -0.90949749078E+02  0.15528578018E+03 -0.25923910030E+03  0.33943369210E+03  0.12499915929E+03 0.  0.
          5    1    3    3  501    0  0.68656856080E+02 -0.87337235394E+02  0.65791199796E+02  0.12919802066E+03  0.47000000000E+01 0.  1.
         -5    1    3    3    0  501  0.22292892998E+02 -0.67948544788E+02 -0.54758231011E+02  0.90191638640E+02  0.47000000000E+01 0.  1.
          5    1    4    4  502    0 -0.13500020969E+02  0.70438179772E+02 -0.19478678829E+03  0.20762410898E+03  0.47000000000E+01 0.  1.
         -5    1    4    4    0  502 -0.77449728109E+02  0.84847600410E+02 -0.64452312010E+02  0.13180958312E+03  0.47000000000E+01 0.  1.
<mgrwt>
<rscale>  0 0.50067680E+03</rscale>
<asrwt>0</asrwt>
<pdfrwt beam="1">  1       21 0.23893633E-01 0.50067680E+03</pdfrwt>
<pdfrwt beam="2">  1       21 0.62079190E-01 0.50067680E+03</pdfrwt>
<totfact> 0.35964700E+04</totfact>
</mgrwt>
</event>
<event>
 8    1  0.9705063E-006  0.2586318E+03  0.7546771E-02  0.1107968E+00
         21   -1    0    0  504  503  0.00000000000E+00  0.00000000000E+00  0.78274831032E+03  0.78274831032E+03  0.00000000000E+00 0.  1.
         21   -1    0    0  503  504 -0.00000000000E+00 -0.00000000000E+00 -0.21363964515E+02  0.21363964515E+02  0.00000000000E+00 0.  1.
         25    2    1    2    0    0  0.14315515425E+02 -0.15504271677E+02  0.30131012042E+03  0.32689296146E+03  0.12500361259E+03 0.  0.
         25    2    1    2    0    0 -0.14315515425E+02  0.15504271677E+02  0.46007422538E+03  0.47721931338E+03  0.12499865509E+03 0.  0.
          5    1    3    3  501    0  0.21469672751E+01  0.13400306050E+02  0.29399861355E+03  0.29434920153E+03  0.47000000000E+01 0. -1.
         -5    1    3    3    0  501  0.12168548150E+02 -0.28904577727E+02  0.73115068680E+01  0.32543759929E+02  0.47000000000E+01 0. -1.
          5    1    4    4  502    0  0.14496614762E+01 -0.52767566733E+02  0.14413035824E+03  0.15356486507E+03  0.47000000000E+01 0. -1.
         -5    1    4    4    0  502 -0.15765176901E+02  0.68271838410E+02  0.31594386715E+03  0.32365444831E+03  0.47000000000E+01 0. -1.
<mgrwt>
<rscale>  0 0.25863184E+03</rscale>
<asrwt>0</asrwt>
<pdfrwt beam="1">  1       21 0.12042279E+00 0.25863184E+03</pdfrwt>
<pdfrwt beam="2">  1       21 0.32867644E-02 0.25863184E+03</pdfrwt>
<totfact> 0.27896048E+05</totfact>
</mgrwt>
</event>
<event>
 8    1  0.9705063E-006  0.3495612E+03  0.7546771E-02  0.1062795E+00
         21   -1    0    0  504  503  0.00000000000E+00  0.00000000000E+00  0.66484682073E+02  0.66484682073E+02  0.00000000000E+00 0.  1.
         21   -1    0    0  503  504 -0.00000000000E+00 -0.00000000000E+00 -0.45947813976E+03  0.45947813976E+03  0.00000000000E+00 0.  1.
         25    2    1    2    0    0 -0.51489676088E+02 -0.45838490316E+02 -0.44701642655E+02  0.14955015803E+03  0.12495862905E+03 0.  0.
         25    2    1    2    0    0  0.51489676088E+02  0.45838490316E+02 -0.34829181503E+03  0.37641266380E+03  0.12500780421E+03 0.  0.
          5    1    3    3  501    0 -0.31852248243E+02  0.30488252627E+02  0.18865441034E+02  0.48188111934E+02  0.47000000000E+01 0.  1.
         -5    1    3    3    0  501 -0.19637427845E+02 -0.76326742943E+02 -0.63567083689E+02  0.10136204610E+03  0.47000000000E+01 0.  1.
          5    1    4    4  502    0  0.16338565934E+02 -0.41012701679E+02 -0.15999136049E+03  0.16603709184E+03  0.47000000000E+01 0. -1.
         -5    1    4    4    0  502  0.35151110154E+02  0.86851191995E+02 -0.18830045454E+03  0.21037557196E+03  0.47000000000E+01 0. -1.
<mgrwt>
<rscale>  0 0.34956120E+03</rscale>
<asrwt>0</asrwt>
<pdfrwt beam="1">  1       21 0.10228413E-01 0.34956120E+03</pdfrwt>
<pdfrwt beam="2">  1       21 0.70688943E-01 0.34956120E+03</pdfrwt>
<totfact> 0.13504399E+05</totfact>
</mgrwt>
</event>
<event>
 8    1  0.9705063E-006  0.3594951E+03  0.7546771E-02  0.1058784E+00
         21   -1    0    0  504  503  0.00000000000E+00  0.00000000000E+00  0.74190046877E+03  0.74190046877E+03  0.00000000000E+00 0.  1.
         21   -1    0    0  503  504 -0.00000000000E+00 -0.00000000000E+00 -0.43549211500E+02  0.43549211500E+02  0.00000000000E+00 0.  1.
         25    2    1    2    0    0  0.97890294733E+02 -0.48378737375E+02  0.49993967606E+03  0.52677098476E+03  0.12499991459E+03 0.  0.
         25    2    1    2    0    0 -0.97890294733E+02  0.48378737375E+02  0.19841158121E+03  0.25867869551E+03  0.12499799967E+03 0.  0.
          5    1    3    3  501    0  0.94050946700E+02 -0.41341273396E+02  0.18476169105E+03  0.21145603311E+03  0.47000000000E+01 0.  1.
         -5    1    3    3    0  501  0.38393480336E+01 -0.70374639793E+01  0.31517798501E+03  0.31531495164E+03  0.47000000000E+01 0.  1.
          5    1    4    4  502    0 -0.10343603679E+03  0.61054356565E+02  0.20867692945E+03  0.24082109345E+03  0.47000000000E+01 0.  1.
         -5    1    4    4    0  502  0.55457420581E+01 -0.12675619190E+02 -0.10265348248E+02  0.17857602064E+02  0.47000000000E+01 0.  1.
<mgrwt>
<rscale>  0 0.35949509E+03</rscale>
<asrwt>0</asrwt>
<pdfrwt beam="1">  1       21 0.11413852E+00 0.35949509E+03</pdfrwt>
<pdfrwt beam="2">  1       21 0.66998792E-02 0.35949509E+03</pdfrwt>
<totfact> 0.91978932E+04</totfact>
</mgrwt>
</event>
<event>
 8    1  0.9705063E-006  0.2848696E+03  0.7546771E-02  0.1093059E+00
         21   -1    0    0  504  503  0.00000000000E+00  0.00000000000E+00  0.44893686244E+02  0.44893686244E+02  0.00000000000E+00 0. -1.
         21   -1    0    0  503  504 -0.00000000000E+00 -0.00000000000E+00 -0.45190466608E+03  0.45190466608E+03  0.00000000000E+00 0. -1.
         25    2    1    2    0    0  0.48609006245E+02 -0.99427092269E+01 -0.28534124040E+03  0.31544592906E+03  0.12499927091E+03 0.  0.
         25    2    1    2    0    0 -0.48609006245E+02  0.99427092269E+01 -0.12166973943E+03  0.18135242327E+03  0.12499393176E+03 0.  0.
          5    1    3    3  501    0  0.46185389747E+02  0.53009339994E+02 -0.16801765710E+03  0.18219523443E+03  0.47000000000E+01 0.  1.
         -5    1    3    3    0  501  0.24236164982E+01 -0.62952049221E+02 -0.11732358330E+03  0.13325069462E+03  0.47000000000E+01 0.  1.
          5    1    4    4  502    0 -0.42034540688E+02  0.64443876868E+02 -0.87083564152E+02  0.11629941110E+03  0.47000000000E+01 0. -1.
         -5    1    4    4    0  502 -0.65744655574E+01 -0.54501167641E+02 -0.34586175277E+02  0.65053012166E+02  0.47000000000E+01 0. -1.
<mgrwt>
<rscale>  0 0.28486956E+03</rscale>
<asrwt>0</asrwt>
<pdfrwt beam="1">  1       21 0.69067212E-02 0.28486956E+03</pdfrwt>
<pdfrwt beam="2">  1       21 0.69523792E-01 0.28486956E+03</pdfrwt>
<totfact> 0.28442917E+05</totfact>
</mgrwt>
</event>
<event>
 8    1  0.9705063E-006  0.5051667E+03  0.7546771E-02  0.1012439E+00
         21   -1    0    0  504  503  0.00000000000E+00  0.00000000000E+00  0.67452526998E+03  0.67452526998E+03  0.00000000000E+00 0. -1.
         21   -1    0    0  503  504 -0.00000000000E+00 -0.00000000000E+00 -0.94582583685E+02  0.94582583685E+02  0.00000000000E+00 0. -1.
         25    2    1    2    0    0  0.10524528308E+03  0.18232572592E+03  0.19544158687E+03  0.31327425632E+03  0.12499642335E+03 0.  0.
         25    2    1    2    0    0 -0.10524528308E+03 -0.18232572592E+03  0.38450109942E+03  0.45583359735E+03  0.12499573221E+03 0.  0.
          5    1    3    3  501    0  0.10818715816E+03  0.64155669554E+02  0.89190688941E+02  0.15426431901E+03  0.47000000000E+01 0.  1.
         -5    1    3    3    0  501 -0.29418750785E+01  0.11817005636E+03  0.10625089793E+03  0.15900993730E+03  0.47000000000E+01 0.  1.
          5    1    4    4  502    0  0.26282379364E+02 -0.23300581894E+02  0.84959742056E+02  0.92053942620E+02  0.47000000000E+01 0. -1.
         -5    1    4    4    0  502 -0.13152766245E+03 -0.15902514402E+03  0.29954135737E+03  0.36377965473E+03  0.47000000000E+01 0. -1.
<mgrwt>
<rscale>  0 0.50516668E+03</rscale>
<asrwt>0</asrwt>
<pdfrwt beam="1">  1       21 0.10377312E+00 0.50516668E+03</pdfrwt>
<pdfrwt beam="2">  1       21 0.14551167E-01 0.50516668E+03</pdfrwt>
<totfact> 0.27880993E+04</totfact>
</mgrwt>
</event>
<event>
 8    1  0.9705063E-006  0.2634689E+03  0.7546771E-02  0.1105077E+00
         21   -1    0    0  504  503  0.00000000000E+00  0.00000000000E+00  0.20242859396E+02  0.20242859396E+02  0.00000000000E+00 0. -1.
         21   -1    0    0  503  504 -0.00000000000E+00 -0.00000000000E+00 -0.85728815825E+03  0.85728815825E+03  0.00000000000E+00 0. -1.
         25    2    1    2    0    0  0.88341204491E-01 -0.30744060597E+02 -0.51179094288E+03  0.52773139084E+03  0.12500098641E+03 0.  0.
         25    2    1    2    0    0 -0.88341204491E-01  0.30744060597E+02 -0.32525435598E+03  0.34979962681E+03  0.12499671101E+03 0.  0.
          5    1    3    3  501    0  0.39699199219E+02  0.33144294957E+02 -0.24915060377E+03  0.25450478201E+03  0.47000000000E+01 0.  1.
         -5    1    3    3    0  501 -0.39610858014E+02 -0.63888355554E+02 -0.26264033911E+03  0.27322660883E+03  0.47000000000E+01 0.  1.
          5    1    4    4  502    0  0.59257273060E+02  0.38921360920E+01 -0.19797911972E+03  0.20674717647E+03  0.47000000000E+01 0.  1.
         -5    1    4    4    0  502 -0.59345614264E+02  0.26851924505E+02 -0.12727523626E+03  0.14305245033E+03  0.47000000000E+01 0.  1.
<mgrwt>
<rscale>  0 0.26346889E+03</rscale>
<asrwt>0</asrwt>
<pdfrwt beam="1">  1       21 0.31142853E-02 0.26346889E+03</pdfrwt>
<pdfrwt beam="2">  1       21 0.13189052E+00 0.26346889E+03</pdfrwt>
<totfact> 0.24210531E+05</totfact>
</mgrwt>
</event>
<event>
 8    1  0.9705063E-006  0.3071137E+03  0.7546771E-02  0.1081738E+00
         21   -1    0    0  504  503  0.00000000000E+00  0.00000000000E+00  0.33226940714E+02  0.33226940714E+02  0.00000000000E+00 0.  1.
         21   -1    0    0  503  504 -0.00000000000E+00 -0.00000000000E+00 -0.70965637948E+03  0.70965637948E+03  0.00000000000E+00 0.  1.
         25    2    1    2    0    0 -0.85948313413E+02 -0.16848612420E+02 -0.37903582827E+03  0.40861085568E+03  0.12499473569E+03 0.  0.
         25    2    1    2    0    0  0.85948313413E+02  0.16848612420E+02 -0.29739361050E+03  0.33427246451E+03  0.12499653054E+03 0.  0.
          5    1    3    3  501    0 -0.64694053978E+02  0.36165825888E+02 -0.10477153514E+03  0.12842294249E+03  0.47000000000E+01 0. -1.
         -5    1    3    3    0  501 -0.21254259434E+02 -0.53014438309E+02 -0.27426429312E+03  0.28018791319E+03  0.47000000000E+01 0. -1.
          5    1    4    4  502    0  0.66659144011E+02 -0.32976684296E+02 -0.75857135842E+02  0.10633578065E+03  0.47000000000E+01 0. -1.
         -5    1    4    4    0  502  0.19289169402E+02  0.49825296717E+02 -0.22153647466E+03  0.22793668387E+03  0.47000000000E+01 0. -1.
<mgrwt>
<rscale>  0 0.30711373E+03</rscale>
<asrwt>0</asrwt>
<pdfrwt beam="1">  1       21 0.51118365E-02 0.30711373E+03</pdfrwt>
<pdfrwt beam="2">  1       21 0.10917792E+00 0.30711373E+03</pdfrwt>
<totfact> 0.16612569E+05</totfact>
</mgrwt>
</event>
<event>
 8    1  0.9705063E-006  0.3235349E+03  0.7546771E-02  0.1074034E+00
         21   -1    0    0  504  503  0.00000000000E+00  0.00000000000E+00  0.98447019386E+02  0.98447019386E+02  0.00000000000E+00 0.  1.
         21   -1    0    0  503  504 -0.00000000000E+00 -0.00000000000E+00 -0.26581511094E+03  0.26581511094E+03  0.00000000000E+00 0.  1.
         25    2    1    2    0    0  0.62554791441E+02 -0.52020802549E+02 -0.13156131534E+02  0.14972360583E+03  0.12499923406E+03 0.  0.
         25    2    1    2    0    0 -0.62554791441E+02  0.52020802549E+02 -0.15421196002E+03  0.21453852450E+03  0.12500473612E+03 0.  0.
          5    1    3    3  501    0  0.53803522088E+02 -0.20632697820E+02  0.51333847480E+02  0.77316111552E+02  0.47000000000E+01 0.  1.
         -5    1    3    3    0  501  0.87512693537E+01 -0.31388104728E+02 -0.64489979015E+02  0.72407494274E+02  0.47000000000E+01 0.  1.
          5    1    4    4  502    0  0.68161279590E+01  0.48899466819E+02 -0.13273867075E+03  0.14170131322E+03  0.47000000000E+01 0. -1.
         -5    1    4    4    0  502 -0.69370919400E+02  0.31213357302E+01 -0.21473289270E+02  0.72837211282E+02  0.47000000000E+01 0. -1.
<mgrwt>
<rscale>  0 0.32353488E+03</rscale>
<asrwt>0</asrwt>
<pdfrwt beam="1">  1       21 0.15145695E-01 0.32353488E+03</pdfrwt>
<pdfrwt beam="2">  1       21 0.40894632E-01 0.32353488E+03</pdfrwt>
<totfact> 0.21475690E+05</totfact>
</mgrwt>
</event>
<event>
 8    1  0.9705063E-006  0.3467007E+03  0.7546771E-02  0.1063977E+00
         21   -1    0    0  504  503  0.00000000000E+00  0.00000000000E+00  0.20540235068E+03  0.20540235068E+03  0.00000000000E+00 0. -1.
         21   -1    0    0  503  504 -0.00000000000E+00 -0.00000000000E+00 -0.14629987262E+03  0.14629987262E+03  0.00000000000E+00 0. -1.
         25    2    1    2    0    0 -0.33841650918E+02 -0.92370119928E+02 -0.40346634307E+02  0.16410556107E+03  0.12500115153E+03 0.  0.
         25    2    1    2    0    0  0.33841650918E+02  0.92370119928E+02  0.99449112360E+02  0.18759666223E+03  0.12499954135E+03 0.  0.
          5    1    3    3  501    0 -0.31865801585E+02 -0.12290103017E+03 -0.24732890441E+02  0.12943685100E+03  0.47000000000E+01 0.  1.
         -5    1    3    3    0  501 -0.19758493324E+01  0.30530910241E+02 -0.15613743867E+02  0.34668710075E+02  0.47000000000E+01 0.  1.
          5    1    4    4  502    0 -0.11436921377E+02  0.10593695637E+03  0.89113487955E+02  0.13898469567E+03  0.47000000000E+01 0. -1.
         -5    1    4    4    0  502  0.45278572294E+02 -0.13566836446E+02  0.10335624405E+02  0.48611966552E+02  0.47000000000E+01 0. -1.
<mgrwt>
<rscale>  0 0.34670066E+03</rscale>
<asrwt>0</asrwt>
<pdfrwt beam="1">  1       21 0.31600362E-01 0.34670066E+03</pdfrwt>
<pdfrwt beam="2">  1       21 0.22507673E-01 0.34670066E+03</pdfrwt>
<totfact> 0.17093239E+05</totfact>
</mgrwt>
</event>
<event>
 8    1  0.9705063E-006  0.3412824E+03  0.7546771E-02  0.1066251E+00
         21   -1    0    0  504  503  0.00000000000E+00  0.00000000000E+00  0.58935487209E+02  0.58935487209E+02  0.00000000000E+00 0. -1.
         21   -1    0    0  503  504 -0.00000000000E+00 -0.00000000000E+00 -0.49407275755E+03  0.49407275755E+03  0.00000000000E+00 0. -1.
         25    2    1    2    0    0  0.10059764808E+03 -0.26631250220E+02 -0.30121346685E+03  0.34232148762E+03  0.12500135194E+03 0.  0.
         25    2    1    2    0    0 -0.10059764808E+03  0.26631250220E+02 -0.13392380349E+03  0.21068675714E+03  0.12499685678E+03 0.  0.
          5    1    3    3  501    0  0.12429847701E+03  0.27994776716E+01 -0.22423713026E+03  0.25644166792E+03  0.47000000000E+01 0.  1.
         -5    1    3    3    0  501 -0.23700828924E+02 -0.29430727892E+02 -0.76976336588E+02  0.85879819692E+02  0.47000000000E+01 0.  1.
          5    1    4    4  502    0 -0.17212883066E+02  0.33878149831E+02 -0.11967801047E+03  0.12565400340E+03  0.47000000000E+01 0. -1.
         -5    1    4    4    0  502 -0.83384765015E+02 -0.72468996104E+01 -0.14245793022E+02  0.85032753745E+02  0.47000000000E+01 0. -1.
<mgrwt>
<rscale>  0 0.34128240E+03</rscale>
<asrwt>0</asrwt>
<pdfrwt beam="1">  1       21 0.90669978E-02 0.34128240E+03</pdfrwt>
<pdfrwt beam="2">  1       21 0.76011195E-01 0.34128240E+03</pdfrwt>
<totfact> 0.14241899E+05</totfact>
</mgrwt>
</event>
<event>
 8    1  0.9705063E-006  0.6954404E+03  0.7546771E-02  0.9725062E-01
         21   -1    0    0  504  503  0.00000000000E+00  0.00000000000E+00  0.21353794927E+03  0.21353794927E+03  0.00000000000E+00 0. -1.
         21   -1    0    0  503  504 -0.00000000000E+00 -0.00000000000E+00 -0.56621942295E+03  0.56621942295E+03  0.00000000000E+00 0. -1.
         25    2    1    2    0    0  0.14203964542E+03  0.27539068402E+03 -0.68397775987E+02  0.34105428538E+03  0.12499792039E+03 0.  0.
         25    2    1    2    0    0 -0.14203964542E+03 -0.27539068402E+03 -0.28428369769E+03  0.43870308684E+03  0.12501155113E+03 0.  0.
          5    1    3    3  501    0  0.27389991046E+01  0.18019912776E+02 -0.43393086723E+02  0.47299781690E+02  0.47000000000E+01 0.  1.
         -5    1    3    3    0  501  0.13930064631E+03  0.25737077124E+03 -0.25004689264E+02  0.29375450369E+03  0.47000000000E+01 0.  1.
          5    1    4    4  502    0 -0.14623278813E+03 -0.27875186948E+03 -0.29114188038E+03  0.42880335537E+03  0.47000000000E+01 0. -1.
         -5    1    4    4    0  502  0.41931427177E+01  0.33611854626E+01  0.68581826819E+01  0.98997314743E+01  0.47000000000E+01 0. -1.
<mgrwt>
<rscale>  0 0.69544039E+03</rscale>
<asrwt>0</asrwt>
<pdfrwt beam="1">  1       21 0.32851992E-01 0.69544039E+03</pdfrwt>
<pdfrwt beam="2">  1       21 0.87110680E-01 0.69544039E+03</pdfrwt>
<totfact> 0.84718839E+03</totfact>
</mgrwt>
</event>
<event>
 8    1  0.9705063E-006  0.2825150E+03  0.7546771E-02  0.1094323E+00
         21   -1    0    0  504  503  0.00000000000E+00  0.00000000000E+00  0.93514160748E+03  0.93514160748E+03  0.00000000000E+00 0.  1.
         21   -1    0    0  503  504 -0.00000000000E+00 -0.00000000000E+00 -0.21337608230E+02  0.21337608230E+02  0.00000000000E+00 0.  1.
         25    2    1    2    0    0 -0.44550166414E+01 -0.44648415127E+02  0.29403228514E+03  0.32263789105E+03  0.12500758334E+03 0.  0.
         25    2    1    2    0    0  0.44550166414E+01  0.44648415127E+02  0.61977171411E+03  0.63384132466E+03  0.12499807633E+03 0.  0.
          5    1    3    3  501    0  0.42017732712E+02  0.24482459935E+02  0.95022440603E+02  0.10684678247E+03  0.47000000000E+01 0. -1.
         -5    1    3    3    0  501 -0.46472749353E+02 -0.69130875062E+02  0.19900984453E+03  0.21579110858E+03  0.47000000000E+01 0. -1.
          5    1    4    4  502    0 -0.10790624840E+02  0.64972486958E+02  0.59289079798E+03  0.59655632591E+03  0.47000000000E+01 0.  1.
         -5    1    4    4    0  502  0.15245641481E+02 -0.20324071832E+02  0.26880916128E+02  0.37284998751E+02  0.47000000000E+01 0.  1.
<mgrwt>
<rscale>  0 0.28251503E+03</rscale>
<asrwt>0</asrwt>
<pdfrwt beam="1">  1       21 0.14386791E+00 0.28251503E+03</pdfrwt>
<pdfrwt beam="2">  1       21 0.32827097E-02 0.28251503E+03</pdfrwt>
<totfact> 0.17584535E+05</totfact>
</mgrwt>
</event>
<event>
 8    1  0.9705063E-006  0.3450949E+03  0.7546771E-02  0.1064646E+00
         21   -1    0    0  504  503  0.00000000000E+00  0.00000000000E+00  0.34359276764E+03  0.34359276764E+03  0.00000000000E+00 0.  1.
         21   -1    0    0  503  504 -0.00000000000E+00 -0.00000000000E+00 -0.86650911190E+02  0.86650911190E+02  0.00000000000E+00 0.  1.
         25    2    1    2    0    0  0.38802570810E+02  0.57997835687E+02  0.24856741650E+03  0.28684184162E+03  0.12499237223E+03 0.  0.
         25    2    1    2    0    0 -0.38802570810E+02 -0.57997835687E+02  0.83744399524E+01  0.14340183721E+03  0.12499826888E+03 0.  0.
          5    1    3    3  501    0 -0.15391124971E+02  0.75283074243E+02  0.90663017399E+02  0.11893822228E+03  0.47000000000E+01 0. -1.
         -5    1    3    3    0  501  0.54193695780E+02 -0.17285238556E+02  0.15790439910E+03  0.16790361934E+03  0.47000000000E+01 0. -1.
          5    1    4    4  502    0  0.73179653608E+00 -0.84511715623E+02 -0.21075040263E+02  0.87229656229E+02  0.47000000000E+01 0.  1.
         -5    1    4    4    0  502 -0.39534367346E+02  0.26513879936E+02  0.29449480216E+02  0.56172180976E+02  0.47000000000E+01 0.  1.
<mgrwt>
<rscale>  0 0.34509492E+03</rscale>
<asrwt>0</asrwt>
<pdfrwt beam="1">  1       21 0.52860425E-01 0.34509492E+03</pdfrwt>
<pdfrwt beam="2">  1       21 0.13330910E-01 0.34509492E+03</pdfrwt>
<totfact> 0.15799900E+05</totfact>
</mgrwt>
</event>
<event>
 8    1  0.9705063E-006  0.3424107E+03  0.7546771E-02  0.1065774E+00
         21   -1    0    0  504  503  0.00000000000E+00  0.00000000000E+00  0.73321872328E+02  0.73321872328E+02  0.00000000000E+00 0. -1.
         21   -1    0    0  503  504 -0.00000000000E+00 -0.00000000000E+00 -0.39976154345E+03  0.39976154345E+03  0.00000000000E+00 0. -1.
         25    2    1    2    0    0  0.23153544947E+02  0.10694127655E+03 -0.22046449375E+03  0.27604778148E+03  0.12500104552E+03 0.  0.
         25    2    1    2    0    0 -0.23153544947E+02 -0.10694127655E+03 -0.10597517737E+03  0.19703563430E+03  0.12497911702E+03 0.  0.
          5    1    3    3  501    0  0.73237703221E+01  0.62058146503E+02 -0.21944018220E+03  0.22821247714E+03  0.47000000000E+01 0.  1.
         -5    1    3    3    0  501  0.15829774625E+02  0.44883130046E+02 -0.10243115580E+01  0.47835304343E+02  0.47000000000E+01 0.  1.
          5    1    4    4  502    0 -0.41087358558E+02 -0.11402941741E+03 -0.12161579139E+03  0.17176544991E+03  0.47000000000E+01 0. -1.
         -5    1    4    4    0  502  0.17933813611E+02  0.70881408644E+01  0.15640614025E+02  0.25270184380E+02  0.47000000000E+01 0. -1.
<mgrwt>
<rscale>  0 0.34241066E+03</rscale>
<asrwt>0</asrwt>
<pdfrwt beam="1">  1       21 0.11280288E-01 0.34241066E+03</pdfrwt>
<pdfrwt beam="2">  1       21 0.61501777E-01 0.34241066E+03</pdfrwt>
<totfact> 0.15438451E+05</totfact>
</mgrwt>
</event>
<event>
 8    1  0.9705063E-006  0.3952576E+03  0.7546771E-02  0.1045434E+00
         21   -1    0    0  504  503  0.00000000000E+00  0.00000000000E+00  0.91663513033E+02  0.91663513033E+02  0.00000000000E+00 0.  1.
         21   -1    0    0  503  504 -0.00000000000E+00 -0.00000000000E+00 -0.42609247084E+03  0.42609247084E+03  0.00000000000E+00 0.  1.
         25    2    1    2    0    0  0.43221897024E+02 -0.93136962991E+02 -0.18488683566E+02  0.16281428206E+03  0.12499613100E+03 0.  0.
         25    2    1    2    0    0 -0.43221897024E+02  0.93136962991E+02 -0.31594027424E+03  0.35494170181E+03  0.12499091384E+03 0.  0.
          5    1    3    3  501    0 -0.41517259084E+02 -0.46792404035E+02 -0.20792870983E+02  0.66088163546E+02  0.47000000000E+01 0.  1.
         -5    1    3    3    0  501  0.84739156108E+02 -0.46344558956E+02  0.23041874176E+01  0.96726118512E+02  0.47000000000E+01 0.  1.
          5    1    4    4  502    0 -0.46702676990E+01  0.97867178714E+02 -0.29433210014E+03  0.31024711319E+03  0.47000000000E+01 0.  1.
         -5    1    4    4    0  502 -0.38551629325E+02 -0.47302157239E+01 -0.21608174101E+02  0.44694588625E+02  0.47000000000E+01 0.  1.
<mgrwt>
<rscale>  0 0.39525755E+03</rscale>
<asrwt>0</asrwt>
<pdfrwt beam="1">  1       21 0.14102079E-01 0.39525755E+03</pdfrwt>
<pdfrwt beam="2">  1       21 0.65552688E-01 0.39525755E+03</pdfrwt>
<totfact> 0.88279858E+04</totfact>
</mgrwt>
</event>
<event>
 8    1  0.9705063E-006  0.3106190E+03  0.7546771E-02  0.1080050E+00
         21   -1    0    0  504  503  0.00000000000E+00  0.00000000000E+00  0.23922584832E+02  0.23922584832E+02  0.00000000000E+00 0.  1.
         21   -1    0    0  503  504 -0.00000000000E+00 -0.00000000000E+00 -0.10082959389E+04  0.10082959389E+04  0.00000000000E+00 0.  1.
         25    2    1    2    0    0  0.14692733151E+02  0.35055813984E+02 -0.21310119480E+03  0.24995556024E+03  0.12498350439E+03 0.  0.
         25    2    1    2    0    0 -0.14692733151E+02 -0.35055813984E+02 -0.77127215924E+03  0.78226296346E+03  0.12501925406E+03 0.  0.
          5    1    3    3  501    0  0.63519124855E+02 -0.22463501917E+01 -0.73036347383E+02  0.96933602793E+02  0.47000000000E+01 0. -1.
         -5    1    3    3    0  501 -0.48826391704E+02  0.37302164176E+02 -0.14006484742E+03  0.15302195745E+03  0.47000000000E+01 0. -1.
          5    1    4    4  502    0 -0.42115460040E+02 -0.61977824461E+02 -0.66375284529E+03  0.66798569770E+03  0.47000000000E+01 0.  1.
         -5    1    4    4    0  502  0.27422726889E+02  0.26922010477E+02 -0.10751931395E+03  0.11427726576E+03  0.47000000000E+01 0.  1.
<mgrwt>
<rscale>  0 0.31061903E+03</rscale>
<asrwt>0</asrwt>
<pdfrwt beam="1">  1       21 0.36803975E-02 0.31061903E+03</pdfrwt>
<pdfrwt beam="2">  1       21 0.15512246E+00 0.31061903E+03</pdfrwt>
<totfact> 0.11760892E+05</totfact>
</mgrwt>
</event>
<event>
 8    1  0.9705063E-006  0.4600978E+03  0.7546771E-02  0.1024753E+00
         21   -1    0    0  504  503  0.00000000000E+00  0.00000000000E+00  0.10106345832E+03  0.10106345832E+03  0.00000000000E+00 0.  1.
         21   -1    0    0  503  504 -0.00000000000E+00 -0.00000000000E+00 -0.52365602558E+03  0.52365602558E+03  0.00000000000E+00 0.  1.
         25    2    1    2    0    0  0.44160151631E+02  0.17629941704E+03 -0.12260425640E+03  0.25236343844E+03  0.12499559165E+03 0.  0.
         25    2    1    2    0    0 -0.44160151631E+02 -0.17629941704E+03 -0.29998831086E+03  0.37235604546E+03  0.12499773796E+03 0.  0.
          5    1    3    3  501    0  0.77235482668E+02  0.81560269542E+02 -0.97506994690E+02  0.14881902219E+03  0.47000000000E+01 0. -1.
         -5    1    3    3    0  501 -0.33075331037E+02  0.94739147497E+02 -0.25097261712E+02  0.10354441625E+03  0.47000000000E+01 0. -1.
          5    1    4    4  502    0  0.19774838717E+02 -0.68671180486E+02 -0.19884342868E+03  0.21134704730E+03  0.47000000000E+01 0.  1.
         -5    1    4    4    0  502 -0.63934990349E+02 -0.10762823655E+03 -0.10114488218E+03  0.16100899815E+03  0.47000000000E+01 0.  1.
<mgrwt>
<rscale>  0 0.46009777E+03</rscale>
<asrwt>0</asrwt>
<pdfrwt beam="1">  1       21 0.15548224E-01 0.46009777E+03</pdfrwt>
<pdfrwt beam="2">  1       21 0.80562466E-01 0.46009777E+03</pdfrwt>
<totfact> 0.45530675E+04</totfact>
</mgrwt>
</event>
<event>
 8    1  0.9705063E-006  0.2821528E+03  0.7546771E-02  0.1094519E+00
         21   -1    0    0  504  503  0.00000000000E+00  0.00000000000E+00  0.43935476250E+02  0.43935476250E+02  0.00000000000E+00 0. -1.
         21   -1    0    0  503  504 -0.00000000000E+00 -0.00000000000E+00 -0.45299496703E+03  0.45299496703E+03  0.00000000000E+00 0. -1.
         25    2    1    2    0    0  0.62049798863E+02  0.15962657793E+02 -0.18140228147E+03  0.22942664496E+03  0.12499925486E+03 0.  0.
         25    2    1    2    0    0 -0.62049798863E+02 -0.15962657793E+02 -0.22765720931E+03  0.26750379831E+03  0.12500197270E+03 0.  0.
          5    1    3    3  501    0  0.90056548642E+02 -0.10384305327E+02 -0.16292766727E+03  0.18650879473E+03  0.47000000000E+01 0.  1.
         -5    1    3    3    0  501 -0.28006749779E+02  0.26346963120E+02 -0.18474614196E+02  0.42917850232E+02  0.47000000000E+01 0.  1.
          5    1    4    4  502    0 -0.28374895716E+02 -0.14633352552E+02  0.47508541900E+01  0.32617944898E+02  0.47000000000E+01 0.  1.
         -5    1    4    4    0  502 -0.33674903147E+02 -0.13293052408E+01 -0.23240806350E+03  0.23488585342E+03  0.47000000000E+01 0.  1.
<mgrwt>
<rscale>  0 0.28215279E+03</rscale>
<asrwt>0</asrwt>
<pdfrwt beam="1">  1       21 0.67593034E-02 0.28215279E+03</pdfrwt>
<pdfrwt beam="2">  1       21 0.69691540E-01 0.28215279E+03</pdfrwt>
<totfact> 0.29390093E+05</totfact>
</mgrwt>
</event>
<event>
 8    1  0.9705063E-006  0.3519829E+03  0.7546771E-02  0.1061804E+00
         21   -1    0    0  504  503  0.00000000000E+00  0.00000000000E+00  0.56623191745E+02  0.56623191745E+02  0.00000000000E+00 0. -1.
         21   -1    0    0  503  504 -0.00000000000E+00 -0.00000000000E+00 -0.54700199427E+03  0.54700199427E+03  0.00000000000E+00 0. -1.
         25    2    1    2    0    0 -0.12126651227E+03  0.24689511306E+02 -0.23519436451E+03  0.29369236861E+03  0.12499471715E+03 0.  0.
         25    2    1    2    0    0  0.12126651227E+03 -0.24689511306E+02 -0.25518443802E+03  0.30993281741E+03  0.12499645968E+03 0.  0.
          5    1    3    3  501    0 -0.65211185169E+02  0.70352419498E+02 -0.90940681609E+02  0.13226586548E+03  0.47000000000E+01 0. -1.
         -5    1    3    3    0  501 -0.56055327104E+02 -0.45662908192E+02 -0.14425368290E+03  0.16142650313E+03  0.47000000000E+01 0. -1.
          5    1    4    4  502    0  0.10034569977E+03 -0.70792153634E+02 -0.15714440751E+03  0.19949246424E+03  0.47000000000E+01 0. -1.
         -5    1    4    4    0  502  0.20920812506E+02  0.46102642327E+02 -0.98040030510E+02  0.11044035317E+03  0.47000000000E+01 0. -1.
<mgrwt>
<rscale>  0 0.35198295E+03</rscale>
<asrwt>0</asrwt>
<pdfrwt beam="1">  1       21 0.87112606E-02 0.35198295E+03</pdfrwt>
<pdfrwt beam="2">  1       21 0.84154150E-01 0.35198295E+03</pdfrwt>
<totfact> 0.12075168E+05</totfact>
</mgrwt>
</event>
<event>
 8    1  0.9705063E-006  0.2836490E+03  0.7546771E-02  0.1093712E+00
         21   -1    0    0  504  503  0.00000000000E+00  0.00000000000E+00  0.91237548591E+03  0.91237548591E+03  0.00000000000E+00 0. -1.
         21   -1    0    0  503  504 -0.00000000000E+00 -0.00000000000E+00 -0.22045953708E+02  0.22045953708E+02  0.00000000000E+00 0. -1.
         25    2    1    2    0    0  0.38976481179E+02 -0.54421661592E+02  0.45404359515E+03  0.47567047249E+03  0.12500371501E+03 0.  0.
         25    2    1    2    0    0 -0.38976481179E+02  0.54421661592E+02  0.43628593705E+03  0.45875096713E+03  0.12500459046E+03 0.  0.
          5    1    3    3  501    0 -0.57569176780E+00 -0.88853650648E+02  0.29632873985E+03  0.30939960362E+03  0.47000000000E+01 0. -1.
         -5    1    3    3    0  501  0.39552172947E+02  0.34431989056E+02  0.15771485530E+03  0.16627086887E+03  0.47000000000E+01 0. -1.
          5    1    4    4  502    0 -0.50402485460E+02 -0.78999107616E+01  0.33703090184E+03  0.34090282769E+03  0.47000000000E+01 0. -1.
         -5    1    4    4    0  502  0.11426004280E+02  0.62321572354E+02  0.99255035212E+02  0.11784813944E+03  0.47000000000E+01 0. -1.
<mgrwt>
<rscale>  0 0.28364899E+03</rscale>
<asrwt>0</asrwt>
<pdfrwt beam="1">  1       21 0.14036543E+00 0.28364899E+03</pdfrwt>
<pdfrwt beam="2">  1       21 0.33916859E-02 0.28364899E+03</pdfrwt>
<totfact> 0.17757259E+05</totfact>
</mgrwt>
</event>
<event>
 8    1  0.9705063E-006  0.3170756E+03  0.7546771E-02  0.1077003E+00
         21   -1    0    0  504  503  0.00000000000E+00  0.00000000000E+00  0.96800285241E+03  0.96800285241E+03  0.00000000000E+00 0.  1.
         21   -1    0    0  503  504 -0.00000000000E+00 -0.00000000000E+00 -0.25965044300E+02  0.25965044300E+02  0.00000000000E+00 0.  1.
         25    2    1    2    0    0  0.52972280322E+02 -0.81563554452E+02  0.49338356615E+03  0.51818060210E+03  0.12500046860E+03 0.  0.
         25    2    1    2    0    0 -0.52972280322E+02  0.81563554452E+02  0.44865424196E+03  0.47578729461E+03  0.12499697990E+03 0.  0.
          5    1    3    3  501    0  0.92333354630E+02 -0.45448758505E+02  0.28646676507E+03  0.30442788230E+03  0.47000000000E+01 0.  1.
         -5    1    3    3    0  501 -0.39361074308E+02 -0.36114795947E+02  0.20691680107E+03  0.21375271980E+03  0.47000000000E+01 0.  1.
          5    1    4    4  502    0 -0.21016921603E+02  0.86472829377E+02  0.42790309923E+03  0.43708398912E+03  0.47000000000E+01 0.  1.
         -5    1    4    4    0  502 -0.31955358719E+02 -0.49092749250E+01  0.20751142730E+02  0.38703305489E+02  0.47000000000E+01 0.  1.
<mgrwt>
<rscale>  0 0.31707562E+03</rscale>
<asrwt>0</asrwt>
<pdfrwt beam="1">  1       21 0.14892349E+00 0.31707562E+03</pdfrwt>
<pdfrwt beam="2">  1       21 0.39946229E-02 0.31707562E+03</pdfrwt>
<totfact> 0.11404787E+05</totfact>
</mgrwt>
</event>
<event>
 8    1  0.9705063E-006  0.3605021E+03  0.7546771E-02  0.1058385E+00
         21   -1    0    0  504  503  0.00000000000E+00  0.00000000000E+00  0.32542432499E+03  0.32542432499E+03  0.00000000000E+00 0.  1.
         21   -1    0    0  503  504 -0.00000000000E+00 -0.00000000000E+00 -0.99840221292E+02  0.99840221292E+02  0.00000000000E+00 0.  1.
         25    2    1    2    0    0 -0.11836856587E+03  0.17094374480E+02  0.53093739497E+02  0.18096446099E+03  0.12500342372E+03 0.  0.
         25    2    1    2    0    0  0.11836856587E+03 -0.17094374480E+02  0.17249036420E+03  0.24430008529E+03  0.12500508352E+03 0.  0.
          5    1    3    3  501    0  0.14641076848E+01 -0.39347827923E+02  0.19704745252E+02  0.44280494115E+02  0.47000000000E+01 0. -1.
         -5    1    3    3    0  501 -0.11983267356E+03  0.56442202404E+02  0.33388994245E+02  0.13668396688E+03  0.47000000000E+01 0. -1.
          5    1    4    4  502    0  0.79617621704E+01 -0.33313221910E+02  0.11213818741E+03  0.11734659554E+03  0.47000000000E+01 0. -1.
         -5    1    4    4    0  502  0.11040680370E+03  0.16218847430E+02  0.60352176796E+02  0.12695348975E+03  0.47000000000E+01 0. -1.
<mgrwt>
<rscale>  0 0.36050208E+03</rscale>
<asrwt>0</asrwt>
<pdfrwt beam="1">  1       21 0.50065280E-01 0.36050208E+03</pdfrwt>
<pdfrwt beam="2">  1       21 0.15360034E-01 0.36050208E+03</pdfrwt>
<totfact> 0.13621093E+05</totfact>
</mgrwt>
</event>
<event>
 8    1  0.9705063E-006  0.3740271E+03  0.7546771E-02  0.1053164E+00
         21   -1    0    0  504  503  0.00000000000E+00  0.00000000000E+00  0.98682209310E+03  0.98682209310E+03  0.00000000000E+00 0.  1.
         21   -1    0    0  503  504 -0.00000000000E+00 -0.00000000000E+00 -0.35441113364E+02  0.35441113364E+02  0.00000000000E+00 0.  1.
         25    2    1    2    0    0 -0.70505471291E+02 -0.99348313713E+02  0.29225526679E+03  0.34041320252E+03  0.12500759401E+03 0.  0.
         25    2    1    2    0    0  0.70505471291E+02  0.99348313713E+02  0.65912571294E+03  0.68185000395E+03  0.12502645119E+03 0.  0.
          5    1    3    3  501    0 -0.49936236137E+02 -0.12743093015E+03  0.20694301210E+03  0.24815271486E+03  0.47000000000E+01 0. -1.
         -5    1    3    3    0  501 -0.20569235154E+02  0.28082616438E+02  0.85312254699E+02  0.92260487657E+02  0.47000000000E+01 0. -1.
          5    1    4    4  502    0  0.54431697320E+02  0.80821466637E+02  0.64658710865E+03  0.65390511408E+03  0.47000000000E+01 0.  1.
         -5    1    4    4    0  502  0.16073773972E+02  0.18526847076E+02  0.12538604295E+02  0.27944889872E+02  0.47000000000E+01 0.  1.
<mgrwt>
<rscale>  0 0.37402713E+03</rscale>
<asrwt>0</asrwt>
<pdfrwt beam="1">  1       21 0.15181876E+00 0.37402713E+03</pdfrwt>
<pdfrwt beam="2">  1       21 0.54524797E-02 0.37402713E+03</pdfrwt>
<totfact> 0.62523602E+04</totfact>
</mgrwt>
</event>
<event>
 8    1  0.9705063E-006  0.2838297E+03  0.7546771E-02  0.1093615E+00
         21   -1    0    0  504  503  0.00000000000E+00  0.00000000000E+00  0.88623282966E+03  0.88623282966E+03  0.00000000000E+00 0.  1.
         21   -1    0    0  503  504 -0.00000000000E+00 -0.00000000000E+00 -0.22725209722E+02  0.22725209722E+02  0.00000000000E+00 0.  1.
         25    2    1    2    0    0  0.26082384516E+02 -0.31321716369E+02  0.60281709526E+03  0.61698918610E+03  0.12500345886E+03 0.  0.
         25    2    1    2    0    0 -0.26082384516E+02  0.31321716369E+02  0.26069052468E+03  0.29196885328E+03  0.12499968373E+03 0.  0.
          5    1    3    3  501    0  0.12815566186E+02 -0.56597575525E+02  0.12073070574E+03  0.13403550873E+03  0.47000000000E+01 0.  1.
         -5    1    3    3    0  501  0.13266818330E+02  0.25275859156E+02  0.48208638953E+03  0.48295367737E+03  0.47000000000E+01 0.  1.
          5    1    4    4  502    0  0.66386731653E+01 -0.35708267190E+02  0.24067730672E+02  0.43823486703E+02  0.47000000000E+01 0. -1.
         -5    1    4    4    0  502 -0.32721057681E+02  0.67029983559E+02  0.23662279400E+03  0.24814536658E+03  0.47000000000E+01 0. -1.
<mgrwt>
<rscale>  0 0.28382972E+03</rscale>
<asrwt>0</asrwt>
<pdfrwt beam="1">  1       21 0.13634349E+00 0.28382972E+03</pdfrwt>
<pdfrwt beam="2">  1       21 0.34961868E-02 0.28382972E+03</pdfrwt>
<totfact> 0.18205034E+05</totfact>
</mgrwt>
</event>
<event>
 8    1  0.9705063E-006  0.3427540E+03  0.7546771E-02  0.1065629E+00
         21   -1    0    0  504  503  0.00000000000E+00  0.00000000000E+00  0.21178502631E+02  0.21178502631E+02  0.00000000000E+00 0. -1.
         21   -1    0    0  503  504 -0.00000000000E+00 -0.00000000000E+00 -0.13867869531E+04  0.13867869531E+04  0.00000000000E+00 0. -1.
         25    2    1    2    0    0 -0.76542911749E+02 -0.78238506716E+01 -0.31928759485E+03  0.35139890865E+03  0.12496637466E+03 0.  0.
         25    2    1    2    0    0  0.76542911749E+02  0.78238506716E+01 -0.10463208556E+04  0.10565665471E+04  0.12500202211E+03 0.  0.
          5    1    3    3  501    0 -0.59860991916E+02  0.40909306311E+02 -0.86649315805E+02  0.11308007616E+03  0.47000000000E+01 0. -1.
         -5    1    3    3    0  501 -0.16681919833E+02 -0.48733156983E+02 -0.23263827904E+03  0.23831883248E+03  0.47000000000E+01 0. -1.
          5    1    4    4  502    0  0.28604543612E+02 -0.51412649383E+02 -0.66901742913E+03  0.67161588048E+03  0.47000000000E+01 0.  1.
         -5    1    4    4    0  502  0.47938368137E+02  0.59236500055E+02 -0.37730342650E+03  0.38495066661E+03  0.47000000000E+01 0.  1.
<mgrwt>
<rscale>  0 0.34275397E+03</rscale>
<asrwt>0</asrwt>
<pdfrwt beam="1">  1       21 0.32582306E-02 0.34275397E+03</pdfrwt>
<pdfrwt beam="2">  1       21 0.21335188E+00 0.34275397E+03</pdfrwt>
<totfact> 0.56506347E+04</totfact>
</mgrwt>
</event>
<event>
 8    1  0.9705063E-006  0.2793954E+03  0.7546771E-02  0.1096020E+00
         21   -1    0    0  504  503  0.00000000000E+00  0.00000000000E+00  0.26779072537E+03  0.26779072537E+03  0.00000000000E+00 0. -1.
         21   -1    0    0  503  504 -0.00000000000E+00 -0.00000000000E+00 -0.72875744670E+02  0.72875744670E+02  0.00000000000E+00 0. -1.
         25    2    1    2    0    0 -0.23427850337E+02 -0.46120976699E+02  0.13994513947E+03  0.19464306674E+03  0.12500109082E+03 0.  0.
         25    2    1    2    0    0  0.23427850337E+02  0.46120976699E+02  0.54969841226E+02  0.14602340330E+03  0.12500056881E+03 0.  0.
          5    1    3    3  501    0 -0.41140432874E+02 -0.27921203033E+02 -0.23748123164E+01  0.49998585274E+02  0.47000000000E+01 0. -1.
         -5    1    3    3    0  501  0.17712582537E+02 -0.18199773667E+02  0.14231995179E+03  0.14464448147E+03  0.47000000000E+01 0. -1.
          5    1    4    4  502    0  0.64218374130E+02  0.58810152159E+02  0.17364557113E+02  0.88917104185E+02  0.47000000000E+01 0. -1.
         -5    1    4    4    0  502 -0.40790523793E+02 -0.12689175460E+02  0.37605284113E+02  0.57106299113E+02  0.47000000000E+01 0. -1.
<mgrwt>
<rscale>  0 0.27939541E+03</rscale>
<asrwt>0</asrwt>
<pdfrwt beam="1">  1       21 0.41198573E-01 0.27939541E+03</pdfrwt>
<pdfrwt beam="2">  1       21 0.11211653E-01 0.27939541E+03</pdfrwt>
<totfact> 0.36877758E+05</totfact>
</mgrwt>
</event>
<event>
 8    1  0.9705063E-006  0.3555845E+03  0.7546771E-02  0.1060346E+00
         21   -1    0    0  504  503  0.00000000000E+00  0.00000000000E+00  0.11601533043E+04  0.11601533043E+04  0.00000000000E+00 0. -1.
         21   -1    0    0  503  504 -0.00000000000E+00 -0.00000000000E+00 -0.27246475023E+02  0.27246475023E+02  0.00000000000E+00 0. -1.
         25    2    1    2    0    0 -0.10670959409E+03  0.29957910589E+02  0.36333608892E+03  0.39990360381E+03  0.12500145981E+03 0.  0.
         25    2    1    2    0    0  0.10670959409E+03 -0.29957910589E+02  0.76957074037E+03  0.78749617552E+03  0.12500675242E+03 0.  0.
          5    1    3    3  501    0 -0.22046751775E+02  0.33716455604E+02  0.27282002861E+03  0.27581826744E+03  0.47000000000E+01 0.  1.
         -5    1    3    3    0  501 -0.84662842311E+02 -0.37585450150E+01  0.90516060302E+02  0.12408533637E+03  0.47000000000E+01 0.  1.
          5    1    4    4  502    0 -0.25719252754E+02 -0.11569897204E+02  0.77318029630E+02  0.82434884542E+02  0.47000000000E+01 0. -1.
         -5    1    4    4    0  502  0.13242884684E+03 -0.18388013385E+02  0.69225271074E+03  0.70506129098E+03  0.47000000000E+01 0. -1.
<mgrwt>
<rscale>  0 0.35558452E+03</rscale>
<asrwt>0</asrwt>
<pdfrwt beam="1">  1       21 0.17848509E+00 0.35558452E+03</pdfrwt>
<pdfrwt beam="2">  1       21 0.41917663E-02 0.35558452E+03</pdfrwt>
<totfact> 0.62801001E+04</totfact>
</mgrwt>
</event>
<event>
 8    1  0.9705063E-006  0.3227497E+03  0.7546771E-02  0.1074391E+00
         21   -1    0    0  504  503  0.00000000000E+00  0.00000000000E+00  0.41635162275E+03  0.41635162275E+03  0.00000000000E+00 0. -1.
         21   -1    0    0  503  504 -0.00000000000E+00 -0.00000000000E+00 -0.62547694759E+02  0.62547694759E+02  0.00000000000E+00 0. -1.
         25    2    1    2    0    0  0.42139931685E+02 -0.65800442713E+02  0.27437305366E+03  0.31146692815E+03  0.12500241058E+03 0.  0.
         25    2    1    2    0    0 -0.42139931685E+02  0.65800442713E+02  0.79430874324E+02  0.16743238936E+03  0.12497547402E+03 0.  0.
          5    1    3    3  501    0 -0.19987535115E+01 -0.69587407043E+02  0.58525299937E+02  0.91069769777E+02  0.47000000000E+01 0.  1.
         -5    1    3    3    0  501  0.44138685196E+02  0.37869643297E+01  0.21584775373E+03  0.22039715837E+03  0.47000000000E+01 0.  1.
          5    1    4    4  502    0 -0.11384555855E+02 -0.32927617306E+02 -0.27489353843E+01  0.35263050622E+02  0.47000000000E+01 0. -1.
         -5    1    4    4    0  502 -0.30755375830E+02  0.98728060019E+02  0.82179809708E+02  0.13216933873E+03  0.47000000000E+01 0. -1.
<mgrwt>
<rscale>  0 0.32274965E+03</rscale>
<asrwt>0</asrwt>
<pdfrwt beam="1">  1       21 0.64054094E-01 0.32274965E+03</pdfrwt>
<pdfrwt beam="2">  1       21 0.96227225E-02 0.32274965E+03</pdfrwt>
<totfact> 0.18858274E+05</totfact>
</mgrwt>
</event>
<event>
 8    1  0.9705063E-006  0.3658096E+03  0.7546771E-02  0.1056307E+00
         21   -1    0    0  504  503  0.00000000000E+00  0.00000000000E+00  0.58048328169E+03  0.58048328169E+03  0.00000000000E+00 0. -1.
         21   -1    0    0  503  504 -0.00000000000E+00 -0.00000000000E+00 -0.57631579374E+02  0.57631579374E+02  0.00000000000E+00 0. -1.
         25    2    1    2    0    0 -0.87911047478E+02  0.91302751201E+02  0.33470353077E+03  0.37909823014E+03  0.12499787976E+03 0.  0.
         25    2    1    2    0    0  0.87911047478E+02 -0.91302751201E+02  0.18814817155E+03  0.25901663092E+03  0.12500134395E+03 0.  0.
          5    1    3    3  501    0 -0.35321554567E+02  0.10013934729E+03  0.13215782343E+03  0.16959740973E+03  0.47000000000E+01 0. -1.
         -5    1    3    3    0  501 -0.52589492912E+02 -0.88365960845E+01  0.20254570734E+03  0.20950082042E+03  0.47000000000E+01 0. -1.
          5    1    4    4  502    0  0.24975366162E+02  0.29779899633E+02  0.60736611497E+02  0.72260897539E+02  0.47000000000E+01 0.  1.
         -5    1    4    4    0  502  0.62935681317E+02 -0.12108265083E+03  0.12741156005E+03  0.18675573338E+03  0.47000000000E+01 0.  1.
<mgrwt>
<rscale>  0 0.36580961E+03</rscale>
<asrwt>0</asrwt>
<pdfrwt beam="1">  1       21 0.89305116E-01 0.36580961E+03</pdfrwt>
<pdfrwt beam="2">  1       21 0.88663972E-02 0.36580961E+03</pdfrwt>
<totfact> 0.10153123E+05</totfact>
</mgrwt>
</event>
<event>
 8    1  0.9705063E-006  0.3728582E+03  0.7546771E-02  0.1053605E+00
         21   -1    0    0  504  503  0.00000000000E+00  0.00000000000E+00  0.15497642760E+03  0.15497642760E+03  0.00000000000E+00 0. -1.
         21   -1    0    0  503  504 -0.00000000000E+00 -0.00000000000E+00 -0.22426518299E+03  0.22426518299E+03  0.00000000000E+00 0. -1.
         25    2    1    2    0    0 -0.11331850394E+03  0.34145356009E+01 -0.11525498629E+03  0.20435671755E+03  0.12500085502E+03 0.  0.
         25    2    1    2    0    0  0.11331850394E+03 -0.34145356009E+01  0.45966230890E+02  0.17488489304E+03  0.12497635393E+03 0.  0.
          5    1    3    3  501    0 -0.30546076221E+02  0.38205349095E+02 -0.10233679081E+03  0.11352365491E+03  0.47000000000E+01 0.  1.
         -5    1    3    3    0  501 -0.82772427718E+02 -0.34790813495E+02 -0.12918195479E+02  0.90833062639E+02  0.47000000000E+01 0.  1.
          5    1    4    4  502    0  0.33967873224E+02 -0.47035549964E+02 -0.21302830202E+02  0.61984352432E+02  0.47000000000E+01 0. -1.
         -5    1    4    4    0  502  0.79350630715E+02  0.43621014363E+02  0.67269061091E+02  0.11290054061E+03  0.47000000000E+01 0. -1.
<mgrwt>
<rscale>  0 0.37285824E+03</rscale>
<asrwt>0</asrwt>
<pdfrwt beam="1">  1       21 0.23842527E-01 0.37285824E+03</pdfrwt>
<pdfrwt beam="2">  1       21 0.34502336E-01 0.37285824E+03</pdfrwt>
<totfact> 0.12767219E+05</totfact>
</mgrwt>
</event>
<event>
 8    1  0.9705063E-006  0.2610094E+03  0.7546771E-02  0.1106538E+00
         21   -1    0    0  504  503  0.00000000000E+00  0.00000000000E+00  0.20601708385E+03  0.20601708385E+03  0.00000000000E+00 0. -1.
         21   -1    0    0  503  504 -0.00000000000E+00 -0.00000000000E+00 -0.82670189490E+02  0.82670189490E+02  0.00000000000E+00 0. -1.
         25    2    1    2    0    0 -0.13633680434E+02 -0.33826414007E+02  0.71415545574E+02  0.14850508997E+03  0.12499391213E+03 0.  0.
         25    2    1    2    0    0  0.13633680434E+02  0.33826414007E+02  0.51931348791E+02  0.14018218337E+03  0.12499630403E+03 0.  0.
          5    1    3    3  501    0  0.23504161631E+02  0.38375582192E+02  0.42818201499E+02  0.62294616960E+02  0.47000000000E+01 0.  1.
         -5    1    3    3    0  501 -0.37137842065E+02 -0.72201996200E+02  0.28597344075E+02  0.86210473010E+02  0.47000000000E+01 0.  1.
          5    1    4    4  502    0 -0.55224344275E+02  0.23439216050E+02  0.28259215459E+02  0.66481563670E+02  0.47000000000E+01 0. -1.
         -5    1    4    4    0  502  0.68858024710E+02  0.10387197958E+02  0.23672133332E+02  0.73700619705E+02  0.47000000000E+01 0. -1.
<mgrwt>
<rscale>  0 0.26100936E+03</rscale>
<asrwt>0</asrwt>
<pdfrwt beam="1">  1       21 0.31694936E-01 0.26100936E+03</pdfrwt>
<pdfrwt beam="2">  1       21 0.12718491E-01 0.26100936E+03</pdfrwt>
<totfact> 0.49935297E+05</totfact>
</mgrwt>
</event>
<event>
 8    1  0.9705063E-006  0.2741407E+03  0.7546771E-02  0.1098933E+00
         21   -1    0    0  504  503  0.00000000000E+00  0.00000000000E+00  0.10567985756E+02  0.10567985756E+02  0.00000000000E+00 0. -1.
         21   -1    0    0  503  504 -0.00000000000E+00 -0.00000000000E+00 -0.17778493529E+04  0.17778493529E+04  0.00000000000E+00 0. -1.
         25    2    1    2    0    0 -0.55835702693E+02 -0.14070577350E+01 -0.84142109914E+03  0.85248842601E+03  0.12500977925E+03 0.  0.
         25    2    1    2    0    0  0.55835702693E+02  0.14070577350E+01 -0.92586026805E+03  0.93592891269E+03  0.12500435248E+03 0.  0.
          5    1    3    3  501    0 -0.57656181022E+01 -0.17751311925E+01 -0.73225499019E+03  0.73229492290E+03  0.47000000000E+01 0.  1.
         -5    1    3    3    0  501 -0.50070084591E+02  0.36807345745E+00 -0.10916610895E+03  0.12019350312E+03  0.47000000000E+01 0.  1.
          5    1    4    4  502    0 -0.23682742550E+01 -0.31919654475E+02 -0.68769124685E+03  0.68845175144E+03  0.47000000000E+01 0.  1.
         -5    1    4    4    0  502  0.58203976948E+02  0.33326712210E+02 -0.23816902120E+03  0.24747716125E+03  0.47000000000E+01 0.  1.
<mgrwt>
<rscale>  0 0.27414074E+03</rscale>
<asrwt>0</asrwt>
<pdfrwt beam="1">  1       21 0.16258435E-02 0.27414074E+03</pdfrwt>
<pdfrwt beam="2">  1       21 0.27351536E+00 0.27414074E+03</pdfrwt>
<totfact> 0.79115349E+04</totfact>
</mgrwt>
</event>
<event>
 8    1  0.9705063E-006  0.3425481E+03  0.7546771E-02  0.1065716E+00
         21   -1    0    0  504  503  0.00000000000E+00  0.00000000000E+00  0.15788009521E+02  0.15788009521E+02  0.00000000000E+00 0. -1.
         21   -1    0    0  503  504 -0.00000000000E+00 -0.00000000000E+00 -0.18580427553E+04  0.18580427553E+04  0.00000000000E+00 0. -1.
         25    2    1    2    0    0 -0.33869663390E+02 -0.74696815492E+01 -0.30936665016E+03  0.33546344275E+03  0.12500018780E+03 0.  0.
         25    2    1    2    0    0  0.33869663390E+02  0.74696815492E+01 -0.15328880956E+04  0.15383673221E+04  0.12500061474E+03 0.  0.
          5    1    3    3  501    0  0.17905731681E+02 -0.35255484671E+02 -0.24487135132E+03  0.24808795441E+03  0.47000000000E+01 0.  1.
         -5    1    3    3    0  501 -0.51775395071E+02  0.27785803122E+02 -0.64495298841E+02  0.87375488339E+02  0.47000000000E+01 0.  1.
          5    1    4    4  502    0  0.28207849869E+02  0.44257501035E+02 -0.13777564011E+04  0.13787636491E+04  0.47000000000E+01 0. -1.
         -5    1    4    4    0  502  0.56618135211E+01 -0.36787819485E+02 -0.15513169450E+03  0.15960367299E+03  0.47000000000E+01 0. -1.
<mgrwt>
<rscale>  0 0.34254808E+03</rscale>
<asrwt>0</asrwt>
<pdfrwt beam="1">  1       21 0.24289262E-02 0.34254808E+03</pdfrwt>
<pdfrwt beam="2">  1       21 0.28585253E+00 0.34254808E+03</pdfrwt>
<totfact> 0.33340531E+04</totfact>
</mgrwt>
</event>
<event>
 8    1  0.9705063E-006  0.3307549E+03  0.7546771E-02  0.1070803E+00
         21   -1    0    0  504  503  0.00000000000E+00  0.00000000000E+00  0.19064453534E+03  0.19064453534E+03  0.00000000000E+00 0. -1.
         21   -1    0    0  503  504 -0.00000000000E+00 -0.00000000000E+00 -0.14345912471E+03  0.14345912471E+03  0.00000000000E+00 0. -1.
         25    2    1    2    0    0 -0.44689566522E+02  0.69335453022E+02 -0.47265890992E+02  0.15704252974E+03  0.12499491707E+03 0.  0.
         25    2    1    2    0    0  0.44689566522E+02 -0.69335453022E+02  0.94451301618E+02  0.17706113031E+03  0.12500013235E+03 0.  0.
          5    1    3    3  501    0 -0.34299605246E+02  0.38910176634E+02 -0.89623671023E+02  0.10365788524E+03  0.47000000000E+01 0. -1.
         -5    1    3    3    0  501 -0.10389961276E+02  0.30425276389E+02  0.42357780031E+02  0.53384644495E+02  0.47000000000E+01 0. -1.
          5    1    4    4  502    0  0.25297216518E+02 -0.19394423932E+02 -0.28402286580E+02  0.42951981633E+02  0.47000000000E+01 0.  1.
         -5    1    4    4    0  502  0.19392350004E+02 -0.49941029090E+02  0.12285358820E+03  0.13410914868E+03  0.47000000000E+01 0.  1.
<mgrwt>
<rscale>  0 0.33075488E+03</rscale>
<asrwt>0</asrwt>
<pdfrwt beam="1">  1       21 0.29329929E-01 0.33075488E+03</pdfrwt>
<pdfrwt beam="2">  1       21 0.22070634E-01 0.33075488E+03</pdfrwt>
<totfact> 0.20633009E+05</totfact>
</mgrwt>
</event>
<event>
 8    1  0.9705063E-006  0.2693081E+03  0.7546771E-02  0.1101676E+00
         21   -1    0    0  504  503  0.00000000000E+00  0.00000000000E+00  0.26251361138E+02  0.26251361138E+02  0.00000000000E+00 0. -1.
         21   -1    0    0  503  504 -0.00000000000E+00 -0.00000000000E+00 -0.69069602797E+03  0.69069602797E+03  0.00000000000E+00 0. -1.
         25    2    1    2    0    0  0.16863106961E+02 -0.19133721923E+02 -0.44695915140E+03  0.46480376437E+03  0.12497836879E+03 0.  0.
         25    2    1    2    0    0 -0.16863106961E+02  0.19133721923E+02 -0.21748551544E+03  0.25214362474E+03  0.12500397745E+03 0.  0.
          5    1    3    3  501    0  0.67691436879E+02  0.18073394257E+01 -0.18405885850E+03  0.19617632501E+03  0.47000000000E+01 0.  1.
         -5    1    3    3    0  501 -0.50828329917E+02 -0.20941061348E+02 -0.26290029290E+03  0.26862743937E+03  0.47000000000E+01 0.  1.
          5    1    4    4  502    0 -0.23759413880E+02  0.22674011332E+02  0.12691246009E+01  0.33201223096E+02  0.47000000000E+01 0. -1.
         -5    1    4    4    0  502  0.68963069185E+01 -0.35402894097E+01 -0.21875464004E+03  0.21894240164E+03  0.47000000000E+01 0. -1.
<mgrwt>
<rscale>  0 0.26930808E+03</rscale>
<asrwt>0</asrwt>
<pdfrwt beam="1">  1       21 0.40386707E-02 0.26930808E+03</pdfrwt>
<pdfrwt beam="2">  1       21 0.10626094E+00 0.26930808E+03</pdfrwt>
<totfact> 0.26764242E+05</totfact>
</mgrwt>
</event>
<event>
 8    1  0.9705063E-006  0.2663704E+03  0.7546771E-02  0.1103375E+00
         21   -1    0    0  504  503  0.00000000000E+00  0.00000000000E+00  0.95481249432E+02  0.95481249432E+02  0.00000000000E+00 0. -1.
         21   -1    0    0  503  504 -0.00000000000E+00 -0.00000000000E+00 -0.18577779380E+03  0.18577779380E+03  0.00000000000E+00 0. -1.
         25    2    1    2    0    0 -0.20104884866E+02 -0.19631768750E+02 -0.83483476775E+02  0.15295816712E+03  0.12504837966E+03 0.  0.
         25    2    1    2    0    0  0.20104884866E+02  0.19631768750E+02 -0.68130675958E+01  0.12830087611E+03  0.12500033673E+03 0.  0.
          5    1    3    3  501    0  0.25446479885E+02  0.13342731313E+02 -0.91446404883E+02  0.95969197055E+02  0.47000000000E+01 0. -1.
         -5    1    3    3    0  501 -0.45551364751E+02 -0.32974500063E+02  0.79629281081E+01  0.56988970066E+02  0.47000000000E+01 0. -1.
          5    1    4    4  502    0  0.24629246219E+02  0.50197012517E+01  0.57020654531E+02  0.62491937185E+02  0.47000000000E+01 0.  1.
         -5    1    4    4    0  502 -0.45243613532E+01  0.14612067498E+02 -0.63833722127E+02  0.65808938928E+02  0.47000000000E+01 0.  1.
<mgrwt>
<rscale>  0 0.26637039E+03</rscale>
<asrwt>0</asrwt>
<pdfrwt beam="1">  1       21 0.14689423E-01 0.26637039E+03</pdfrwt>
<pdfrwt beam="2">  1       21 0.28581199E-01 0.26637039E+03</pdfrwt>
<totfact> 0.47022845E+05</totfact>
</mgrwt>
</event>
<event>
 8    1  0.9705063E-006  0.6512881E+03  0.7546771E-02  0.9804365E-01
         21   -1    0    0  504  503  0.00000000000E+00  0.00000000000E+00  0.48193811866E+03  0.48193811866E+03  0.00000000000E+00 0.  1.
         21   -1    0    0  503  504 -0.00000000000E+00 -0.00000000000E+00 -0.22003662436E+03  0.22003662436E+03  0.00000000000E+00 0.  1.
         25    2    1    2    0    0  0.13776304251E+03 -0.26727780134E+02  0.41759454770E+03  0.45793031287E+03  0.12498773964E+03 0.  0.
         25    2    1    2    0    0 -0.13776304251E+03  0.26727780134E+02 -0.15569305340E+03  0.24404443015E+03  0.12499730757E+03 0.  0.
          5    1    3    3  501    0  0.30963057302E+02 -0.86637039990E+01  0.28411382588E+03  0.28596595381E+03  0.47000000000E+01 0.  1.
         -5    1    3    3    0  501  0.10679998521E+03 -0.18064076135E+02  0.13348072182E+03  0.17196435906E+03  0.47000000000E+01 0.  1.
          5    1    4    4  502    0  0.52461980845E+01 -0.20425853636E+02 -0.64303794977E+02  0.67836613562E+02  0.47000000000E+01 0. -1.
         -5    1    4    4    0  502 -0.14300924060E+03  0.47153633770E+02 -0.91389258423E+02  0.17620781659E+03  0.47000000000E+01 0. -1.
<mgrwt>
<rscale>  0 0.65128807E+03</rscale>
<asrwt>0</asrwt>
<pdfrwt beam="1">  1       21 0.74144325E-01 0.65128807E+03</pdfrwt>
<pdfrwt beam="2">  1       21 0.33851789E-01 0.65128807E+03</pdfrwt>
<totfact> 0.11714423E+04</totfact>
</mgrwt>
</event>
<event>
 8    1  0.9705063E-006  0.4527346E+03  0.7546771E-02  0.1026910E+00
         21   -1    0    0  504  503  0.00000000000E+00  0.00000000000E+00  0.12393795392E+03  0.12393795392E+03  0.00000000000E+00 0. -1.
         21   -1    0    0  503  504 -0.00000000000E+00 -0.00000000000E+00 -0.41345003623E+03  0.41345003623E+03  0.00000000000E+00 0. -1.
         25    2    1    2    0    0 -0.78870128219E+02  0.15075770737E+03 -0.24174616916E+03  0.32095785469E+03  0.12499740288E+03 0.  0.
         25    2    1    2    0    0  0.78870128219E+02 -0.15075770737E+03 -0.47765913153E+02  0.21643013546E+03  0.12494813971E+03 0.  0.
          5    1    3    3  501    0 -0.94905831558E+01  0.79851233104E+02 -0.28021602348E+02  0.85285349240E+02  0.47000000000E+01 0.  1.
         -5    1    3    3    0  501 -0.69379545063E+02  0.70906474271E+02 -0.21372456681E+03  0.23567250545E+03  0.47000000000E+01 0.  1.
          5    1    4    4  502    0 -0.71345673385E+01 -0.91786302817E+02 -0.61977530270E+02  0.11108074403E+03  0.47000000000E+01 0.  1.
         -5    1    4    4    0  502  0.86004695557E+02 -0.58971404558E+02  0.14211617117E+02  0.10534939143E+03  0.47000000000E+01 0.  1.
<mgrwt>
<rscale>  0 0.45273459E+03</rscale>
<asrwt>0</asrwt>
<pdfrwt beam="1">  1       21 0.19067378E-01 0.45273459E+03</pdfrwt>
<pdfrwt beam="2">  1       21 0.63607697E-01 0.45273459E+03</pdfrwt>
<totfact> 0.53071218E+04</totfact>
</mgrwt>
</event>
<event>
 8    1  0.9705063E-006  0.3272976E+03  0.7546771E-02  0.1072339E+00
         21   -1    0    0  504  503  0.00000000000E+00  0.00000000000E+00  0.57043783044E+03  0.57043783044E+03  0.00000000000E+00 0. -1.
         21   -1    0    0  503  504 -0.00000000000E+00 -0.00000000000E+00 -0.46948016767E+02  0.46948016767E+02  0.00000000000E+00 0. -1.
         25    2    1    2    0    0  0.31703715899E+02 -0.32692564684E+02  0.81984912877E+02  0.15626816983E+03  0.12499714226E+03 0.  0.
         25    2    1    2    0    0 -0.31703715899E+02  0.32692564684E+02  0.44150490080E+03  0.46111767738E+03  0.12501602129E+03 0.  0.
          5    1    3    3  501    0 -0.14953763800E+02 -0.22591343402E+02  0.10099366955E+03  0.10466993426E+03  0.47000000000E+01 0. -1.
         -5    1    3    3    0  501  0.46657479699E+02 -0.10101221281E+02 -0.19008756676E+02  0.51598235566E+02  0.47000000000E+01 0. -1.
          5    1    4    4  502    0  0.13939439933E+02 -0.42041557320E+02  0.17370175148E+03  0.17932146831E+03  0.47000000000E+01 0. -1.
         -5    1    4    4    0  502 -0.45643155832E+02  0.74734122004E+02  0.26780314932E+03  0.28179620908E+03  0.47000000000E+01 0. -1.
<mgrwt>
<rscale>  0 0.32729757E+03</rscale>
<asrwt>0</asrwt>
<pdfrwt beam="1">  1       21 0.87759661E-01 0.32729757E+03</pdfrwt>
<pdfrwt beam="2">  1       21 0.72227722E-02 0.32729757E+03</pdfrwt>
<totfact> 0.15323159E+05</totfact>
</mgrwt>
</event>
<event>
 8    1  0.9705063E-006  0.3110799E+03  0.7546771E-02  0.1079829E+00
         21   -1    0    0  504  503  0.00000000000E+00  0.00000000000E+00  0.11093793378E+03  0.11093793378E+03  0.00000000000E+00 0. -1.
         21   -1    0    0  503  504 -0.00000000000E+00 -0.00000000000E+00 -0.21807402915E+03  0.21807402915E+03  0.00000000000E+00 0. -1.
         25    2    1    2    0    0  0.81758892049E+02 -0.43171478761E+02 -0.49680654565E+02  0.16324147429E+03  0.12502527138E+03 0.  0.
         25    2    1    2    0    0 -0.81758892049E+02  0.43171478761E+02 -0.57455440800E+02  0.16577048864E+03  0.12502173499E+03 0.  0.
          5    1    3    3  501    0  0.68684690947E+02 -0.45390924986E+02 -0.89089847168E+02  0.12139610253E+03  0.47000000000E+01 0. -1.
         -5    1    3    3    0  501  0.13074201102E+02  0.22194462249E+01  0.39409192603E+02  0.41845371759E+02  0.47000000000E+01 0. -1.
          5    1    4    4  502    0 -0.10609511983E+03  0.25906683061E+02 -0.10336837793E+02  0.10980105142E+03  0.47000000000E+01 0. -1.
         -5    1    4    4    0  502  0.24336227777E+02  0.17264795700E+02 -0.47118603008E+02  0.55969437217E+02  0.47000000000E+01 0. -1.
<mgrwt>
<rscale>  0 0.31107994E+03</rscale>
<asrwt>0</asrwt>
<pdfrwt beam="1">  1       21 0.17067375E-01 0.31107994E+03</pdfrwt>
<pdfrwt beam="2">  1       21 0.33549850E-01 0.31107994E+03</pdfrwt>
<totfact> 0.25757435E+05</totfact>
</mgrwt>
</event>
<event>
 8    1  0.9705063E-006  0.2889079E+03  0.7546771E-02  0.1090921E+00
         21   -1    0    0  504  503  0.00000000000E+00  0.00000000000E+00  0.18052301249E+04  0.18052301249E+04  0.00000000000E+00 0.  1.
         21   -1    0    0  503  504 -0.00000000000E+00 -0.00000000000E+00 -0.11559156392E+02  0.11559156392E+02  0.00000000000E+00 0.  1.
         25    2    1    2    0    0  0.38710906679E+02  0.53113623600E+01  0.12796084919E+04  0.12862926160E+04  0.12499622548E+03 0.  0.
         25    2    1    2    0    0 -0.38710906679E+02 -0.53113623600E+01  0.51406247659E+03  0.53049666534E+03  0.12505893506E+03 0.  0.
          5    1    3    3  501    0  0.61921428231E+02 -0.41185286243E+02  0.58495021068E+03  0.58967731010E+03  0.47000000000E+01 0.  1.
         -5    1    3    3    0  501 -0.23210521552E+02  0.46496648603E+02  0.69465828126E+03  0.69661530586E+03  0.47000000000E+01 0.  1.
          5    1    4    4  502    0 -0.35668433842E+02 -0.32651768899E+02  0.68060201114E+02  0.83622103302E+02  0.47000000000E+01 0. -1.
         -5    1    4    4    0  502 -0.30424728369E+01  0.27340406539E+02  0.44600227547E+03  0.44687456204E+03  0.47000000000E+01 0. -1.
<mgrwt>
<rscale>  0 0.28890786E+03</rscale>
<asrwt>0</asrwt>
<pdfrwt beam="1">  1       21 0.27772749E+00 0.28890786E+03</pdfrwt>
<pdfrwt beam="2">  1       21 0.17783332E-02 0.28890786E+03</pdfrwt>
<totfact> 0.64027899E+04</totfact>
</mgrwt>
</event>
<event>
 8    1  0.9705063E-006  0.3981245E+03  0.7546771E-02  0.1044431E+00
         21   -1    0    0  504  503  0.00000000000E+00  0.00000000000E+00  0.40856576151E+03  0.40856576151E+03  0.00000000000E+00 0. -1.
         21   -1    0    0  503  504 -0.00000000000E+00 -0.00000000000E+00 -0.96987513645E+02  0.96987513645E+02  0.00000000000E+00 0. -1.
         25    2    1    2    0    0  0.50137283724E+02 -0.46937106746E+02 -0.20530289961E+02  0.14411388996E+03  0.12502192313E+03 0.  0.
         25    2    1    2    0    0 -0.50137283724E+02  0.46937106746E+02  0.33210853783E+03  0.36143938520E+03  0.12500203626E+03 0.  0.
          5    1    3    3  501    0  0.90217866878E+02 -0.33372668326E+02 -0.29260314648E+02  0.10065413309E+03  0.47000000000E+01 0. -1.
         -5    1    3    3    0  501 -0.40080583154E+02 -0.13564438419E+02  0.87300246872E+01  0.43459756863E+02  0.47000000000E+01 0. -1.
          5    1    4    4  502    0 -0.70609413467E+02  0.75331471065E+02  0.20594841504E+03  0.23042864288E+03  0.47000000000E+01 0.  1.
         -5    1    4    4    0  502  0.20472129743E+02 -0.28394364319E+02  0.12616012279E+03  0.13101074233E+03  0.47000000000E+01 0.  1.
<mgrwt>
<rscale>  0 0.39812449E+03</rscale>
<asrwt>0</asrwt>
<pdfrwt beam="1">  1       21 0.62856270E-01 0.39812449E+03</pdfrwt>
<pdfrwt beam="2">  1       21 0.14921156E-01 0.39812449E+03</pdfrwt>
<totfact> 0.87231325E+04</totfact>
</mgrwt>
</event>
<event>
 8    1  0.9705063E-006  0.3713595E+03  0.7546771E-02  0.1054174E+00
         21   -1    0    0  504  503  0.00000000000E+00  0.00000000000E+00  0.17213373575E+03  0.17213373575E+03  0.00000000000E+00 0. -1.
         21   -1    0    0  503  504 -0.00000000000E+00 -0.00000000000E+00 -0.20029173592E+03  0.20029173592E+03  0.00000000000E+00 0. -1.
         25    2    1    2    0    0 -0.43765504064E+02  0.10002778641E+03 -0.97567978285E+02  0.19252575779E+03  0.12500271847E+03 0.  0.
         25    2    1    2    0    0  0.43765504064E+02 -0.10002778641E+03  0.69409978117E+02  0.17989971389E+03  0.12500073838E+03 0.  0.
          5    1    3    3  501    0 -0.27252650947E+02  0.25708602951E+02 -0.10903888724E+03  0.11539154293E+03  0.47000000000E+01 0. -1.
         -5    1    3    3    0  501 -0.16512853117E+02  0.74319183463E+02  0.11470908958E+02  0.77134214853E+02  0.47000000000E+01 0. -1.
          5    1    4    4  502    0 -0.24551254567E+02 -0.13354483091E+02 -0.22512626699E+02  0.36194124942E+02  0.47000000000E+01 0.  1.
         -5    1    4    4    0  502  0.68316758631E+02 -0.86673303323E+02  0.91922604816E+02  0.14370558895E+03  0.47000000000E+01 0.  1.
<mgrwt>
<rscale>  0 0.37135947E+03</rscale>
<asrwt>0</asrwt>
<pdfrwt beam="1">  1       21 0.26482113E-01 0.37135947E+03</pdfrwt>
<pdfrwt beam="2">  1       21 0.30814113E-01 0.37135947E+03</pdfrwt>
<totfact> 0.13059375E+05</totfact>
</mgrwt>
</event>
<event>
 8    1  0.9705063E-006  0.3247296E+03  0.7546771E-02  0.1073493E+00
         21   -1    0    0  504  503  0.00000000000E+00  0.00000000000E+00  0.81335091359E+03  0.81335091359E+03  0.00000000000E+00 0.  1.
         21   -1    0    0  503  504 -0.00000000000E+00 -0.00000000000E+00 -0.32411997720E+02  0.32411997720E+02  0.00000000000E+00 0.  1.
         25    2    1    2    0    0 -0.58594914915E+02  0.16242138973E+02  0.17194455201E+03  0.22110497273E+03  0.12500123547E+03 0.  0.
         25    2    1    2    0    0  0.58594914915E+02 -0.16242138973E+02  0.60899436386E+03  0.62465793858E+03  0.12500493544E+03 0.  0.
          5    1    3    3  501    0 -0.59717933141E+02 -0.21056804064E+01  0.13387131337E+02  0.61416371710E+02  0.47000000000E+01 0.  1.
         -5    1    3    3    0  501  0.11230182262E+01  0.18347819380E+02  0.15855742067E+03  0.15968860102E+03  0.47000000000E+01 0.  1.
          5    1    4    4  502    0  0.49473652444E+02  0.49457720133E+02  0.25451980901E+03  0.26400024914E+03  0.47000000000E+01 0.  1.
         -5    1    4    4    0  502  0.91212624708E+01 -0.65699859107E+02  0.35447455485E+03  0.36065768944E+03  0.47000000000E+01 0.  1.
<mgrwt>
<rscale>  0 0.32472960E+03</rscale>
<asrwt>0</asrwt>
<pdfrwt beam="1">  1       21 0.12513090E+00 0.32472960E+03</pdfrwt>
<pdfrwt beam="2">  1       21 0.49864618E-02 0.32472960E+03</pdfrwt>
<totfact> 0.12278050E+05</totfact>
</mgrwt>
</event>
<event>
 8    1  0.9705063E-006  0.2521055E+03  0.7546771E-02  0.1111981E+00
         21   -1    0    0  504  503  0.00000000000E+00  0.00000000000E+00  0.57560499397E+03  0.57560499397E+03  0.00000000000E+00 0.  1.
         21   -1    0    0  503  504 -0.00000000000E+00 -0.00000000000E+00 -0.27604513902E+02  0.27604513902E+02  0.00000000000E+00 0.  1.
         25    2    1    2    0    0 -0.47354779670E+01 -0.10754217425E+02  0.30093647696E+03  0.32607748656E+03  0.12500274449E+03 0.  0.
         25    2    1    2    0    0  0.47354779670E+01  0.10754217425E+02  0.24706400310E+03  0.27713202131E+03  0.12499383050E+03 0.  0.
          5    1    3    3  501    0 -0.34971794520E+02 -0.56051063817E+02  0.12001458538E+03  0.13707785697E+03  0.47000000000E+01 0.  1.
         -5    1    3    3    0  501  0.30236316553E+02  0.45296846391E+02  0.18092189158E+03  0.18899962959E+03  0.47000000000E+01 0.  1.
          5    1    4    4  502    0  0.22586795558E+02  0.61835284276E+02  0.17396298598E+03  0.18606175375E+03  0.47000000000E+01 0.  1.
         -5    1    4    4    0  502 -0.17851317591E+02 -0.51081066851E+02  0.73101017119E+02  0.91070267564E+02  0.47000000000E+01 0.  1.
<mgrwt>
<rscale>  0 0.25210550E+03</rscale>
<asrwt>0</asrwt>
<pdfrwt beam="1">  1       21 0.88554606E-01 0.25210550E+03</pdfrwt>
<pdfrwt beam="2">  1       21 0.42468487E-02 0.25210550E+03</pdfrwt>
<totfact> 0.38070246E+05</totfact>
</mgrwt>
</event>
<event>
 8    1  0.9705063E-006  0.3674698E+03  0.7546771E-02  0.1055665E+00
         21   -1    0    0  504  503  0.00000000000E+00  0.00000000000E+00  0.13840452310E+03  0.13840452310E+03  0.00000000000E+00 0. -1.
         21   -1    0    0  503  504 -0.00000000000E+00 -0.00000000000E+00 -0.24391187887E+03  0.24391187887E+03  0.00000000000E+00 0. -1.
         25    2    1    2    0    0 -0.46407537534E+02 -0.10671089084E+03  0.17767097895E+02  0.17169776297E+03  0.12499431298E+03 0.  0.
         25    2    1    2    0    0  0.46407537534E+02  0.10671089084E+03 -0.12327445366E+03  0.21061863900E+03  0.12499098529E+03 0.  0.
          5    1    3    3  501    0 -0.67577154857E+02 -0.64289456366E+02  0.57490025159E+02  0.10966767551E+03  0.47000000000E+01 0.  1.
         -5    1    3    3    0  501  0.21169617322E+02 -0.42421434478E+02 -0.39722927264E+02  0.62030087467E+02  0.47000000000E+01 0.  1.
          5    1    4    4  502    0 -0.40070404135E+02  0.12030992205E+02 -0.36464681183E+02  0.55696903278E+02  0.47000000000E+01 0.  1.
         -5    1    4    4    0  502  0.86477941669E+02  0.94679898638E+02 -0.86809772481E+02  0.15492173572E+03  0.47000000000E+01 0.  1.
<mgrwt>
<rscale>  0 0.36746977E+03</rscale>
<asrwt>0</asrwt>
<pdfrwt beam="1">  1       21 0.21293004E-01 0.36746977E+03</pdfrwt>
<pdfrwt beam="2">  1       21 0.37524904E-01 0.36746977E+03</pdfrwt>
<totfact> 0.13397211E+05</totfact>
</mgrwt>
</event>
<event>
 8    1  0.9705063E-006  0.2554319E+03  0.7546771E-02  0.1109919E+00
         21   -1    0    0  504  503  0.00000000000E+00  0.00000000000E+00  0.18238001486E+03  0.18238001486E+03  0.00000000000E+00 0. -1.
         21   -1    0    0  503  504 -0.00000000000E+00 -0.00000000000E+00 -0.89436138958E+02  0.89436138958E+02  0.00000000000E+00 0. -1.
         25    2    1    2    0    0 -0.43616961852E+01  0.21443202620E+02  0.61813347058E+02  0.14115492279E+03  0.12499994808E+03 0.  0.
         25    2    1    2    0    0  0.43616961852E+01 -0.21443202620E+02  0.31130528842E+02  0.13066123103E+03  0.12499764852E+03 0.  0.
          5    1    3    3  501    0 -0.43475929889E+02 -0.27513942813E+02 -0.18552265856E+01  0.51698214616E+02  0.47000000000E+01 0.  1.
         -5    1    3    3    0  501  0.39114233704E+02  0.48957145433E+02  0.63668573643E+02  0.89456708172E+02  0.47000000000E+01 0.  1.
          5    1    4    4  502    0 -0.18728099469E+02 -0.26125697533E+02 -0.42337374675E+02  0.53365129773E+02  0.47000000000E+01 0. -1.
         -5    1    4    4    0  502  0.23089795655E+02  0.46824949130E+01  0.73467903518E+02  0.77296101255E+02  0.47000000000E+01 0. -1.
<mgrwt>
<rscale>  0 0.25543190E+03</rscale>
<asrwt>0</asrwt>
<pdfrwt beam="1">  1       21 0.28058464E-01 0.25543190E+03</pdfrwt>
<pdfrwt beam="2">  1       21 0.13759406E-01 0.25543190E+03</pdfrwt>
<totfact> 0.55032727E+05</totfact>
</mgrwt>
</event>
<event>
 8    1  0.9705063E-006  0.3734186E+03  0.7546771E-02  0.1053393E+00
         21   -1    0    0  504  503  0.00000000000E+00  0.00000000000E+00  0.28036567434E+02  0.28036567434E+02  0.00000000000E+00 0.  1.
         21   -1    0    0  503  504 -0.00000000000E+00 -0.00000000000E+00 -0.12433890091E+04  0.12433890091E+04  0.00000000000E+00 0.  1.
         25    2    1    2    0    0  0.48922390677E+02 -0.12975465046E+03 -0.59673755816E+03  0.62526039134E+03  0.12500069612E+03 0.  0.
         25    2    1    2    0    0 -0.48922390677E+02  0.12975465046E+03 -0.61861488353E+03  0.64616518522E+03  0.12496160547E+03 0.  0.
          5    1    3    3  501    0 -0.17559189925E+02 -0.35598869082E+02 -0.35680718963E+03  0.35903908590E+03  0.47000000000E+01 0.  1.
         -5    1    3    3    0  501  0.66481580602E+02 -0.94155781379E+02 -0.23993036853E+03  0.26622130544E+03  0.47000000000E+01 0.  1.
          5    1    4    4  502    0 -0.89522974258E+02  0.71351604346E+02 -0.40995715663E+03  0.42566697621E+03  0.47000000000E+01 0. -1.
         -5    1    4    4    0  502  0.40600583580E+02  0.58403046116E+02 -0.20865772691E+03  0.22049820902E+03  0.47000000000E+01 0. -1.
<mgrwt>
<rscale>  0 0.37341858E+03</rscale>
<asrwt>0</asrwt>
<pdfrwt beam="1">  1       21 0.43133190E-02 0.37341858E+03</pdfrwt>
<pdfrwt beam="2">  1       21 0.19129057E+00 0.37341858E+03</pdfrwt>
<totfact> 0.48534294E+04</totfact>
</mgrwt>
</event>
<event>
 8    1  0.9705063E-006  0.2686850E+03  0.7546771E-02  0.1102035E+00
         21   -1    0    0  504  503  0.00000000000E+00  0.00000000000E+00  0.46998260226E+03  0.46998260226E+03  0.00000000000E+00 0. -1.
         21   -1    0    0  503  504 -0.00000000000E+00 -0.00000000000E+00 -0.38401237750E+02  0.38401237750E+02  0.00000000000E+00 0. -1.
         25    2    1    2    0    0 -0.20760484722E+02 -0.28733427032E+02  0.15119719188E+03  0.19935730012E+03  0.12500453882E+03 0.  0.
         25    2    1    2    0    0  0.20760484722E+02  0.28733427032E+02  0.28038417263E+03  0.30902653988E+03  0.12500204213E+03 0.  0.
          5    1    3    3  501    0  0.12616597259E+02 -0.69572498067E+02  0.55590948758E+02  0.90066389943E+02  0.47000000000E+01 0.  1.
         -5    1    3    3    0  501 -0.33377081981E+02  0.40839071035E+02  0.95606243118E+02  0.10929091018E+03  0.47000000000E+01 0.  1.
          5    1    4    4  502    0 -0.36308456599E+02 -0.21474210602E+02  0.16793474535E+03  0.17321551443E+03  0.47000000000E+01 0. -1.
         -5    1    4    4    0  502  0.57068941321E+02  0.50207637634E+02  0.11244942728E+03  0.13581102546E+03  0.47000000000E+01 0. -1.
<mgrwt>
<rscale>  0 0.26868505E+03</rscale>
<asrwt>0</asrwt>
<pdfrwt beam="1">  1       21 0.72305012E-01 0.26868505E+03</pdfrwt>
<pdfrwt beam="2">  1       21 0.59078830E-02 0.26868505E+03</pdfrwt>
<totfact> 0.34275072E+05</totfact>
</mgrwt>
</event>
<event>
 8    1  0.9705063E-006  0.2575706E+03  0.7546771E-02  0.1108612E+00
         21   -1    0    0  504  503  0.00000000000E+00  0.00000000000E+00  0.61545053110E+02  0.61545053110E+02  0.00000000000E+00 0.  1.
         21   -1    0    0  503  504 -0.00000000000E+00 -0.00000000000E+00 -0.26948791121E+03  0.26948791121E+03  0.00000000000E+00 0.  1.
         25    2    1    2    0    0 -0.30066795249E+02 -0.31298066208E+01 -0.95123694644E+02  0.15995600230E+03  0.12499438996E+03 0.  0.
         25    2    1    2    0    0  0.30066795249E+02  0.31298066208E+01 -0.11281916346E+03  0.17107696203E+03  0.12500142170E+03 0.  0.
          5    1    3    3  501    0 -0.62784729660E+02  0.51791238623E+01 -0.47292219684E+01  0.63349831436E+02  0.47000000000E+01 0.  1.
         -5    1    3    3    0  501  0.32717934412E+02 -0.83089304831E+01 -0.90394472676E+02  0.96606170860E+02  0.47000000000E+01 0.  1.
          5    1    4    4  502    0  0.52583430066E+02 -0.30127773441E+02 -0.11334160266E+02  0.61832459428E+02  0.47000000000E+01 0. -1.
         -5    1    4    4    0  502 -0.22516634818E+02  0.33257580062E+02 -0.10148500319E+03  0.10924450260E+03  0.47000000000E+01 0. -1.
<mgrwt>
<rscale>  0 0.25757056E+03</rscale>
<asrwt>0</asrwt>
<pdfrwt beam="1">  1       21 0.94684697E-02 0.25757056E+03</pdfrwt>
<pdfrwt beam="2">  1       21 0.41459679E-01 0.25757056E+03</pdfrwt>
<totfact> 0.49407377E+05</totfact>
</mgrwt>
</event>
<event>
 8    1  0.9705063E-006  0.2875898E+03  0.7546771E-02  0.1091614E+00
         21   -1    0    0  504  503  0.00000000000E+00  0.00000000000E+00  0.32568551410E+03  0.32568551410E+03  0.00000000000E+00 0.  1.
         21   -1    0    0  503  504 -0.00000000000E+00 -0.00000000000E+00 -0.63487543114E+02  0.63487543114E+02  0.00000000000E+00 0.  1.
         25    2    1    2    0    0 -0.56052494982E+02  0.11872212246E+02  0.18800513032E+03  0.23292428389E+03  0.12499984553E+03 0.  0.
         25    2    1    2    0    0  0.56052494982E+02 -0.11872212246E+02  0.74192840664E+02  0.15624877332E+03  0.12500507966E+03 0.  0.
          5    1    3    3  501    0 -0.41722581945E+02 -0.45714344619E+02  0.41173256555E+02  0.74484241309E+02  0.47000000000E+01 0.  1.
         -5    1    3    3    0  501 -0.14329913037E+02  0.57586556865E+02  0.14683187377E+03  0.15844004258E+03  0.47000000000E+01 0.  1.
          5    1    4    4  502    0  0.19845075194E+02  0.56152806565E+00 -0.34962302317E+02  0.40479561591E+02  0.47000000000E+01 0.  1.
         -5    1    4    4    0  502  0.36207419787E+02 -0.12433740311E+02  0.10915514298E+03  0.11576921173E+03  0.47000000000E+01 0.  1.
<mgrwt>
<rscale>  0 0.28758980E+03</rscale>
<asrwt>0</asrwt>
<pdfrwt beam="1">  1       21 0.50105463E-01 0.28758980E+03</pdfrwt>
<pdfrwt beam="2">  1       21 0.97673145E-02 0.28758980E+03</pdfrwt>
<totfact> 0.31379547E+05</totfact>
</mgrwt>
</event>
<event>
 8    1  0.9705063E-006  0.2828488E+03  0.7546771E-02  0.1094143E+00
         21   -1    0    0  504  503  0.00000000000E+00  0.00000000000E+00  0.51896728669E+02  0.51896728669E+02  0.00000000000E+00 0. -1.
         21   -1    0    0  503  504 -0.00000000000E+00 -0.00000000000E+00 -0.38539743207E+03  0.38539743207E+03  0.00000000000E+00 0. -1.
         25    2    1    2    0    0  0.26307114772E+02 -0.12497217687E+02 -0.25855073326E+03  0.28865364942E+03  0.12499681162E+03 0.  0.
         25    2    1    2    0    0 -0.26307114772E+02  0.12497217687E+02 -0.74949970138E+02  0.14864051132E+03  0.12501303470E+03 0.  0.
          5    1    3    3  501    0  0.45383475686E+01 -0.16401349270E+02 -0.26464779061E+03  0.26523601552E+03  0.47000000000E+01 0. -1.
         -5    1    3    3    0  501  0.21768767203E+02  0.39041315834E+01  0.60970573469E+01  0.23417633895E+02  0.47000000000E+01 0. -1.
          5    1    4    4  502    0  0.53254712192E+01  0.30602356500E+02  0.26272415463E+02  0.40953567382E+02  0.47000000000E+01 0. -1.
         -5    1    4    4    0  502 -0.31632585991E+02 -0.18105138813E+02 -0.10122238560E+03  0.10768694394E+03  0.47000000000E+01 0. -1.
<mgrwt>
<rscale>  0 0.28284884E+03</rscale>
<asrwt>0</asrwt>
<pdfrwt beam="1">  1       21 0.79841122E-02 0.28284884E+03</pdfrwt>
<pdfrwt beam="2">  1       21 0.59291912E-01 0.28284884E+03</pdfrwt>
<totfact> 0.31317138E+05</totfact>
</mgrwt>
</event>
<event>
 8    1  0.9705063E-006  0.3573334E+03  0.7546771E-02  0.1059645E+00
         21   -1    0    0  504  503  0.00000000000E+00  0.00000000000E+00  0.12713772469E+03  0.12713772469E+03  0.00000000000E+00 0.  1.
         21   -1    0    0  503  504 -0.00000000000E+00 -0.00000000000E+00 -0.25108042420E+03  0.25108042420E+03  0.00000000000E+00 0.  1.
         25    2    1    2    0    0  0.76278178556E+01 -0.12740316913E+03 -0.59097824553E+02  0.18816729887E+03  0.12499851355E+03 0.  0.
         25    2    1    2    0    0 -0.76278178556E+01  0.12740316913E+03 -0.64844874954E+02  0.19005085001E+03  0.12499886669E+03 0.  0.
          5    1    3    3  501    0 -0.44800605600E+02 -0.14097191414E+02 -0.39817043076E+02  0.61752020106E+02  0.47000000000E+01 0.  1.
         -5    1    3    3    0  501  0.52428423456E+02 -0.11330597771E+03 -0.19280781477E+02  0.12641527877E+03  0.47000000000E+01 0.  1.
          5    1    4    4  502    0  0.58376512472E+02  0.53958227757E+02 -0.32880326014E+02  0.86154009714E+02  0.47000000000E+01 0. -1.
         -5    1    4    4    0  502 -0.66004330327E+02  0.73444941371E+02 -0.31964548940E+02  0.10389684030E+03  0.47000000000E+01 0. -1.
<mgrwt>
<rscale>  0 0.35733342E+03</rscale>
<asrwt>0</asrwt>
<pdfrwt beam="1">  1       21 0.19559650E-01 0.35733342E+03</pdfrwt>
<pdfrwt beam="2">  1       21 0.38627758E-01 0.35733342E+03</pdfrwt>
<totfact> 0.14870582E+05</totfact>
</mgrwt>
</event>
<event>
 8    1  0.9705063E-006  0.2865314E+03  0.7546771E-02  0.1092174E+00
         21   -1    0    0  504  503  0.00000000000E+00  0.00000000000E+00  0.64401076714E+02  0.64401076714E+02  0.00000000000E+00 0.  1.
         21   -1    0    0  503  504 -0.00000000000E+00 -0.00000000000E+00 -0.31870681392E+03  0.31870681392E+03  0.00000000000E+00 0.  1.
         25    2    1    2    0    0 -0.64098275330E+02 -0.14427714388E+02 -0.15943411303E+03  0.21298365302E+03  0.12500420879E+03 0.  0.
         25    2    1    2    0    0  0.64098275330E+02  0.14427714388E+02 -0.94871624180E+02  0.17012423761E+03  0.12499953322E+03 0.  0.
          5    1    3    3  501    0 -0.91962195793E+02 -0.40714625713E+02 -0.98469911844E+02  0.14083018050E+03  0.47000000000E+01 0.  1.
         -5    1    3    3    0  501  0.27863920464E+02  0.26286911324E+02 -0.60964201185E+02  0.72153472520E+02  0.47000000000E+01 0.  1.
          5    1    4    4  502    0 -0.34526608917E+02  0.16754775353E+02 -0.10082883784E+02  0.39957023986E+02  0.47000000000E+01 0. -1.
         -5    1    4    4    0  502  0.98624884247E+02 -0.23270609644E+01 -0.84788740396E+02  0.13016721363E+03  0.47000000000E+01 0. -1.
<mgrwt>
<rscale>  0 0.28653141E+03</rscale>
<asrwt>0</asrwt>
<pdfrwt beam="1">  1       21 0.99078579E-02 0.28653141E+03</pdfrwt>
<pdfrwt beam="2">  1       21 0.49031818E-01 0.28653141E+03</pdfrwt>
<totfact> 0.32023876E+05</totfact>
</mgrwt>
</event>
<event>
 8    1  0.9705063E-006  0.3439216E+03  0.7546771E-02  0.1065138E+00
         21   -1    0    0  504  503  0.00000000000E+00  0.00000000000E+00  0.36644618360E+02  0.36644618360E+02  0.00000000000E+00 0.  1.
         21   -1    0    0  503  504 -0.00000000000E+00 -0.00000000000E+00 -0.80695405301E+03  0.80695405301E+03  0.00000000000E+00 0.  1.
         25    2    1    2    0    0 -0.11245217949E+03 -0.84263863829E+01 -0.29917398067E+03  0.34328793428E+03  0.12500015381E+03 0.  0.
         25    2    1    2    0    0  0.11245217949E+03  0.84263863829E+01 -0.47113545399E+03  0.50031073710E+03  0.12500288393E+03 0.  0.
          5    1    3    3  501    0 -0.15858634809E+02  0.11778309756E+02  0.70708752624E+01  0.21501445433E+02  0.47000000000E+01 0. -1.
         -5    1    3    3    0  501 -0.96593544679E+02 -0.20204696139E+02 -0.30624485593E+03  0.32178648885E+03  0.47000000000E+01 0. -1.
          5    1    4    4  502    0 -0.17321949700E+02  0.16614736079E+02 -0.17698032891E+03  0.17866232456E+03  0.47000000000E+01 0. -1.
         -5    1    4    4    0  502  0.12977412919E+03 -0.81883496962E+01 -0.29415512508E+03  0.32164841253E+03  0.47000000000E+01 0. -1.
<mgrwt>
<rscale>  0 0.34392164E+03</rscale>
<asrwt>0</asrwt>
<pdfrwt beam="1">  1       21 0.56376338E-02 0.34392164E+03</pdfrwt>
<pdfrwt beam="2">  1       21 0.12414677E+00 0.34392164E+03</pdfrwt>
<totfact> 0.10089241E+05</totfact>
</mgrwt>
</event>
<event>
 8    1  0.9705063E-006  0.2901216E+03  0.7546771E-02  0.1090286E+00
         21   -1    0    0  504  503  0.00000000000E+00  0.00000000000E+00  0.34989560503E+02  0.34989560503E+02  0.00000000000E+00 0. -1.
         21   -1    0    0  503  504 -0.00000000000E+00 -0.00000000000E+00 -0.60139745460E+03  0.60139745460E+03  0.00000000000E+00 0. -1.
         25    2    1    2    0    0 -0.18639454044E+02  0.32676697420E+02 -0.14443575090E+03  0.19468504372E+03  0.12500153722E+03 0.  0.
         25    2    1    2    0    0  0.18639454044E+02 -0.32676697420E+02 -0.42197214320E+03  0.44170197139E+03  0.12499978437E+03 0.  0.
          5    1    3    3  501    0 -0.90633147778E+01 -0.21495892627E+02 -0.13690864281E+03  0.13896144627E+03  0.47000000000E+01 0.  1.
         -5    1    3    3    0  501 -0.95761392657E+01  0.54172590047E+02 -0.75271080916E+01  0.55723597442E+02  0.47000000000E+01 0.  1.
          5    1    4    4  502    0 -0.20306763029E+02 -0.33487573199E+00 -0.47332368364E+01  0.21376863601E+02  0.47000000000E+01 0.  1.
         -5    1    4    4    0  502  0.38946217073E+02 -0.32341821688E+02 -0.41723890636E+03  0.42032510779E+03  0.47000000000E+01 0.  1.
<mgrwt>
<rscale>  0 0.29012158E+03</rscale>
<asrwt>0</asrwt>
<pdfrwt beam="1">  1       21 0.53830099E-02 0.29012158E+03</pdfrwt>
<pdfrwt beam="2">  1       21 0.92522676E-01 0.29012158E+03</pdfrwt>
<totfact> 0.22734652E+05</totfact>
</mgrwt>
</event>
<event>
 8    1  0.9705063E-006  0.3752189E+03  0.7546771E-02  0.1052715E+00
         21   -1    0    0  504  503  0.00000000000E+00  0.00000000000E+00  0.97170175585E+02  0.97170175585E+02  0.00000000000E+00 0. -1.
         21   -1    0    0  503  504 -0.00000000000E+00 -0.00000000000E+00 -0.36222332457E+03  0.36222332457E+03  0.00000000000E+00 0. -1.
         25    2    1    2    0    0  0.46758928131E+02  0.13184454350E+03 -0.13034016731E+03  0.22843643618E+03  0.12500106058E+03 0.  0.
         25    2    1    2    0    0 -0.46758928131E+02 -0.13184454350E+03 -0.13471298167E+03  0.23095706398E+03  0.12499678780E+03 0.  0.
          5    1    3    3  501    0  0.20495717992E+02  0.10045877528E+03 -0.12246019870E+02  0.10336389597E+03  0.47000000000E+01 0. -1.
         -5    1    3    3    0  501  0.26263210138E+02  0.31385768224E+02 -0.11809414745E+03  0.12507254021E+03  0.47000000000E+01 0. -1.
          5    1    4    4  502    0 -0.31727575017E+02 -0.30509611052E+02  0.17349543223E+02  0.47545473318E+02  0.47000000000E+01 0.  1.
         -5    1    4    4    0  502 -0.15031353114E+02 -0.10133493245E+03 -0.15206252489E+03  0.18341159066E+03  0.47000000000E+01 0.  1.
<mgrwt>
<rscale>  0 0.37521889E+03</rscale>
<asrwt>0</asrwt>
<pdfrwt beam="1">  1       21 0.14949258E-01 0.37521889E+03</pdfrwt>
<pdfrwt beam="2">  1       21 0.55726665E-01 0.37521889E+03</pdfrwt>
<totfact> 0.11356710E+05</totfact>
</mgrwt>
</event>
<event>
 8    1  0.9705063E-006  0.5749382E+03  0.7546771E-02  0.9958810E-01
         21   -1    0    0  504  503  0.00000000000E+00  0.00000000000E+00  0.60225304325E+03  0.60225304325E+03  0.00000000000E+00 0.  1.
         21   -1    0    0  503  504 -0.00000000000E+00 -0.00000000000E+00 -0.13721554295E+03  0.13721554295E+03  0.00000000000E+00 0.  1.
         25    2    1    2    0    0 -0.12597802487E+03 -0.92105700236E+02 -0.33130953715E+02  0.20267322824E+03  0.12499941834E+03 0.  0.
         25    2    1    2    0    0  0.12597802487E+03  0.92105700236E+02  0.49816845402E+03  0.53679535797E+03  0.12499409981E+03 0.  0.
          5    1    3    3  501    0 -0.10480226722E+03 -0.92754807224E+02 -0.72523980772E+02  0.15769840603E+03  0.47000000000E+01 0.  1.
         -5    1    3    3    0  501 -0.21175757656E+02  0.64910698768E+00  0.39393027057E+02  0.44974822211E+02  0.47000000000E+01 0.  1.
          5    1    4    4  502    0  0.14009688240E+02 -0.26237247510E+02  0.14125707150E+03  0.14443100349E+03  0.47000000000E+01 0. -1.
         -5    1    4    4    0  502  0.11196833663E+03  0.11834294775E+03  0.35691138252E+03  0.39236435447E+03  0.47000000000E+01 0. -1.
<mgrwt>
<rscale>  0 0.57493818E+03</rscale>
<asrwt>0</asrwt>
<pdfrwt beam="1">  1       21 0.92654313E-01 0.57493818E+03</pdfrwt>
<pdfrwt beam="2">  1       21 0.21110084E-01 0.57493818E+03</pdfrwt>
<totfact> 0.17917827E+04</totfact>
</mgrwt>
</event>
<event>
 8    1  0.9705063E-006  0.3602358E+03  0.7546771E-02  0.1058491E+00
         21   -1    0    0  504  503  0.00000000000E+00  0.00000000000E+00  0.11386120401E+03  0.11386120401E+03  0.00000000000E+00 0. -1.
         21   -1    0    0  503  504 -0.00000000000E+00 -0.00000000000E+00 -0.28492982474E+03  0.28492982474E+03  0.00000000000E+00 0. -1.
         25    2    1    2    0    0  0.10686894188E+03 -0.71521930202E+02 -0.66789726596E+02  0.19136727404E+03  0.12499683499E+03 0.  0.
         25    2    1    2    0    0 -0.10686894188E+03  0.71521930202E+02 -0.10427889414E+03  0.20742375471E+03  0.12495666854E+03 0.  0.
          5    1    3    3  501    0  0.13173814439E+03 -0.45030267142E+02 -0.67342178078E+02  0.15472466705E+03  0.47000000000E+01 0. -1.
         -5    1    3    3    0  501 -0.24869202502E+02 -0.26491663060E+02  0.55245148204E+00  0.36642606995E+02  0.47000000000E+01 0. -1.
          5    1    4    4  502    0 -0.79412877921E+02  0.99856563562E+02 -0.10839237996E+03  0.16747757014E+03  0.47000000000E+01 0. -1.
         -5    1    4    4    0  502 -0.27456063962E+02 -0.28334633360E+02  0.41134858161E+01  0.39946184567E+02  0.47000000000E+01 0. -1.
<mgrwt>
<rscale>  0 0.36023577E+03</rscale>
<asrwt>0</asrwt>
<pdfrwt beam="1">  1       21 0.17517108E-01 0.36023577E+03</pdfrwt>
<pdfrwt beam="2">  1       21 0.43835357E-01 0.36023577E+03</pdfrwt>
<totfact> 0.14095282E+05</totfact>
</mgrwt>
</event>
<event>
 8    1  0.9705063E-006  0.3362192E+03  0.7546771E-02  0.1068418E+00
         21   -1    0    0  504  503  0.00000000000E+00  0.00000000000E+00  0.15667847961E+04  0.15667847961E+04  0.00000000000E+00 0.  1.
         21   -1    0    0  503  504 -0.00000000000E+00 -0.00000000000E+00 -0.18037477404E+02  0.18037477404E+02  0.00000000000E+00 0.  1.
         25    2    1    2    0    0  0.91523083012E+02  0.47743162198E+02  0.98439584953E+03  0.99765221898E+03  0.12497550640E+03 0.  0.
         25    2    1    2    0    0 -0.91523083012E+02 -0.47743162198E+02  0.56435146918E+03  0.58717005454E+03  0.12498083022E+03 0.  0.
          5    1    3    3  501    0 -0.15591583592E+02  0.35346606374E+02  0.11124747297E+03  0.11785826362E+03  0.47000000000E+01 0. -1.
         -5    1    3    3    0  501  0.10711466660E+03  0.12396555824E+02  0.87314837656E+03  0.87979395536E+03  0.47000000000E+01 0. -1.
          5    1    4    4  502    0  0.67554091680E+01  0.31768306283E+02  0.77708686595E+02  0.84353961432E+02  0.47000000000E+01 0.  1.
         -5    1    4    4    0  502 -0.98278492180E+02 -0.79511468480E+02  0.48664278258E+03  0.50281609310E+03  0.47000000000E+01 0.  1.
<mgrwt>
<rscale>  0 0.33621925E+03</rscale>
<asrwt>0</asrwt>
<pdfrwt beam="1">  1       21 0.24104371E+00 0.33621925E+03</pdfrwt>
<pdfrwt beam="2">  1       21 0.27749978E-02 0.33621925E+03</pdfrwt>
<totfact> 0.49785660E+04</totfact>
</mgrwt>
</event>
<event>
 8    1  0.9705063E-006  0.2913794E+03  0.7546771E-02  0.1089631E+00
         21   -1    0    0  504  503  0.00000000000E+00  0.00000000000E+00  0.31210993652E+02  0.31210993652E+02  0.00000000000E+00 0.  1.
         21   -1    0    0  503  504 -0.00000000000E+00 -0.00000000000E+00 -0.68006437658E+03  0.68006437658E+03  0.00000000000E+00 0.  1.
         25    2    1    2    0    0 -0.72240304312E+02 -0.19509754620E+02 -0.32819041832E+03  0.35907053160E+03  0.12499361541E+03 0.  0.
         25    2    1    2    0    0  0.72240304312E+02  0.19509754620E+02 -0.32066296460E+03  0.35220483863E+03  0.12499687753E+03 0.  0.
          5    1    3    3  501    0  0.26548586237E+02 -0.54988670285E+01 -0.16836144965E+03  0.17059523058E+03  0.47000000000E+01 0.  1.
         -5    1    3    3    0  501 -0.98788890549E+02 -0.14010887592E+02 -0.15982896867E+03  0.18847530102E+03  0.47000000000E+01 0.  1.
          5    1    4    4  502    0  0.78102452258E+02  0.19525876304E+02 -0.33029020916E+03  0.33999259575E+03  0.47000000000E+01 0. -1.
         -5    1    4    4    0  502 -0.58621479465E+01 -0.16121683494E-01  0.96272445578E+01  0.12212242883E+02  0.47000000000E+01 0. -1.
<mgrwt>
<rscale>  0 0.29137937E+03</rscale>
<asrwt>0</asrwt>
<pdfrwt beam="1">  1       21 0.48016920E-02 0.29137937E+03</pdfrwt>
<pdfrwt beam="2">  1       21 0.10462527E+00 0.29137937E+03</pdfrwt>
<totfact> 0.20598837E+05</totfact>
</mgrwt>
</event>
<event>
 8    1  0.9705063E-006  0.2729389E+03  0.7546771E-02  0.1099609E+00
         21   -1    0    0  504  503  0.00000000000E+00  0.00000000000E+00  0.44112658513E+03  0.44112658513E+03  0.00000000000E+00 0.  1.
         21   -1    0    0  503  504 -0.00000000000E+00 -0.00000000000E+00 -0.42218977679E+02  0.42218977679E+02  0.00000000000E+00 0.  1.
         25    2    1    2    0    0 -0.73899491905E+01 -0.54256246848E+02  0.19847471283E+03  0.24086395656E+03  0.12499952906E+03 0.  0.
         25    2    1    2    0    0  0.73899491905E+01  0.54256246848E+02  0.20043289462E+03  0.24248160625E+03  0.12500252979E+03 0.  0.
          5    1    3    3  501    0 -0.10018630607E+02  0.97310508574E+01  0.16997073621E+03  0.17060834527E+03  0.47000000000E+01 0.  1.
         -5    1    3    3    0  501  0.26286814163E+01 -0.63987297705E+02  0.28503976622E+02  0.70255611284E+02  0.47000000000E+01 0.  1.
          5    1    4    4  502    0 -0.51791070569E+02  0.15083525907E+02  0.41051321345E+02  0.67949457162E+02  0.47000000000E+01 0. -1.
         -5    1    4    4    0  502  0.59181019759E+02  0.39172720941E+02  0.15938157328E+03  0.17453214909E+03  0.47000000000E+01 0. -1.
<mgrwt>
<rscale>  0 0.27293892E+03</rscale>
<asrwt>0</asrwt>
<pdfrwt beam="1">  1       21 0.67865625E-01 0.27293892E+03</pdfrwt>
<pdfrwt beam="2">  1       21 0.64952276E-02 0.27293892E+03</pdfrwt>
<totfact> 0.33472041E+05</totfact>
</mgrwt>
</event>
<event>
 8    1  0.9705063E-006  0.3573598E+03  0.7546771E-02  0.1059634E+00
         21   -1    0    0  504  503  0.00000000000E+00  0.00000000000E+00  0.88525617020E+03  0.88525617020E+03  0.00000000000E+00 0. -1.
         21   -1    0    0  503  504 -0.00000000000E+00 -0.00000000000E+00 -0.36064704209E+02  0.36064704209E+02  0.00000000000E+00 0. -1.
         25    2    1    2    0    0  0.78520524705E+02 -0.59882233630E+02  0.21599418275E+03  0.26838532484E+03  0.12500336356E+03 0.  0.
         25    2    1    2    0    0 -0.78520524705E+02  0.59882233630E+02  0.63319728324E+03  0.65293554957E+03  0.12503870475E+03 0.  0.
          5    1    3    3  501    0  0.10987203292E+02 -0.52343218417E+01 -0.15982126585E+02  0.20630926579E+02  0.47000000000E+01 0. -1.
         -5    1    3    3    0  501  0.67533321412E+02 -0.54647911788E+02  0.23197630933E+03  0.24775439826E+03  0.47000000000E+01 0. -1.
          5    1    4    4  502    0 -0.49475067106E+02 -0.34095561855E+02  0.26808211977E+03  0.27477336578E+03  0.47000000000E+01 0. -1.
         -5    1    4    4    0  502 -0.29045457599E+02  0.93977795485E+02  0.36511516347E+03  0.37816218379E+03  0.47000000000E+01 0. -1.
<mgrwt>
<rscale>  0 0.35735977E+03</rscale>
<asrwt>0</asrwt>
<pdfrwt beam="1">  1       21 0.13619324E+00 0.35735977E+03</pdfrwt>
<pdfrwt beam="2">  1       21 0.55484167E-02 0.35735977E+03</pdfrwt>
<totfact> 0.81407306E+04</totfact>
</mgrwt>
</event>
<event>
 8    1  0.9705063E-006  0.3492886E+03  0.7546771E-02  0.1062907E+00
         21   -1    0    0  504  503  0.00000000000E+00  0.00000000000E+00  0.83447792326E+03  0.83447792326E+03  0.00000000000E+00 0.  1.
         21   -1    0    0  503  504 -0.00000000000E+00 -0.00000000000E+00 -0.36550560614E+02  0.36550560614E+02  0.00000000000E+00 0.  1.
         25    2    1    2    0    0  0.11191088928E+03  0.42160384183E+02  0.33919978975E+03  0.38076714517E+03  0.12500230534E+03 0.  0.
         25    2    1    2    0    0 -0.11191088928E+03 -0.42160384183E+02  0.45872757289E+03  0.49026133870E+03  0.12499459573E+03 0.  0.
          5    1    3    3  501    0  0.11996966791E+02 -0.25216285979E+01 -0.88831136015E+01  0.15851988210E+02  0.47000000000E+01 0. -1.
         -5    1    3    3    0  501  0.99913922486E+02  0.44682012781E+02  0.34808290335E+03  0.36491515696E+03  0.47000000000E+01 0. -1.
          5    1    4    4  502    0 -0.43605279103E+02 -0.41159282717E+02  0.38488585318E+03  0.38955707784E+03  0.47000000000E+01 0. -1.
         -5    1    4    4    0  502 -0.68305610173E+02 -0.10011014653E+01  0.73841719715E+02  0.10070426086E+03  0.47000000000E+01 0. -1.
<mgrwt>
<rscale>  0 0.34928863E+03</rscale>
<asrwt>0</asrwt>
<pdfrwt beam="1">  1       21 0.12838121E+00 0.34928863E+03</pdfrwt>
<pdfrwt beam="2">  1       21 0.56231638E-02 0.34928863E+03</pdfrwt>
<totfact> 0.92877627E+04</totfact>
</mgrwt>
</event>
<event>
 8    1  0.9705063E-006  0.2569728E+03  0.7546771E-02  0.1108976E+00
         21   -1    0    0  504  503  0.00000000000E+00  0.00000000000E+00  0.66062909039E+02  0.66062909039E+02  0.00000000000E+00 0.  1.
         21   -1    0    0  503  504 -0.00000000000E+00 -0.00000000000E+00 -0.24989440930E+03  0.24989440930E+03  0.00000000000E+00 0.  1.
         25    2    1    2    0    0  0.27294951241E+02 -0.11150549302E+02 -0.87083114168E+02  0.15516312112E+03  0.12499110476E+03 0.  0.
         25    2    1    2    0    0 -0.27294951241E+02  0.11150549302E+02 -0.96748386097E+02  0.16079419723E+03  0.12500069814E+03 0.  0.
          5    1    3    3  501    0 -0.16704578100E+02  0.37475273936E+02 -0.78709748064E+02  0.88886182989E+02  0.47000000000E+01 0. -1.
         -5    1    3    3    0  501  0.43999529340E+02 -0.48625823238E+02 -0.83733661033E+01  0.66276938128E+02  0.47000000000E+01 0. -1.
          5    1    4    4  502    0 -0.63999488449E+01  0.19830899756E+02 -0.12356281457E+03  0.12539570597E+03  0.47000000000E+01 0.  1.
         -5    1    4    4    0  502 -0.20895002396E+02 -0.86803504544E+01  0.26814428473E+02  0.35398491259E+02  0.47000000000E+01 0.  1.
<mgrwt>
<rscale>  0 0.25697277E+03</rscale>
<asrwt>0</asrwt>
<pdfrwt beam="1">  1       21 0.10163524E-01 0.25697277E+03</pdfrwt>
<pdfrwt beam="2">  1       21 0.38445294E-01 0.25697277E+03</pdfrwt>
<totfact> 0.50801706E+05</totfact>
</mgrwt>
</event>
<event>
 8    1  0.9705063E-006  0.2691565E+03  0.7546771E-02  0.1101763E+00
         21   -1    0    0  504  503  0.00000000000E+00  0.00000000000E+00  0.11143876975E+04  0.11143876975E+04  0.00000000000E+00 0. -1.
         21   -1    0    0  503  504 -0.00000000000E+00 -0.00000000000E+00 -0.16252249945E+02  0.16252249945E+02  0.00000000000E+00 0. -1.
         25    2    1    2    0    0 -0.20330218379E+02  0.18981378676E+02  0.37519737935E+03  0.39644780496E+03  0.12499671224E+03 0.  0.
         25    2    1    2    0    0  0.20330218379E+02 -0.18981378676E+02  0.72293806825E+03  0.73419214253E+03  0.12500016445E+03 0.  0.
          5    1    3    3  501    0 -0.67501873470E+02  0.16716163402E+02  0.29620331344E+03  0.30429332219E+03  0.47000000000E+01 0. -1.
         -5    1    3    3    0  501  0.47171655091E+02  0.22652152739E+01  0.78994065910E+02  0.92154482763E+02  0.47000000000E+01 0. -1.
          5    1    4    4  502    0 -0.10535731532E+02 -0.58075328940E+02  0.19251280928E+03  0.20141255474E+03  0.47000000000E+01 0.  1.
         -5    1    4    4    0  502  0.30865949911E+02  0.39093950264E+02  0.53042525898E+03  0.53277958779E+03  0.47000000000E+01 0.  1.
<mgrwt>
<rscale>  0 0.26915652E+03</rscale>
<asrwt>0</asrwt>
<pdfrwt beam="1">  1       21 0.17144420E+00 0.26915652E+03</pdfrwt>
<pdfrwt beam="2">  1       21 0.25003470E-02 0.26915652E+03</pdfrwt>
<totfact> 0.17257151E+05</totfact>
</mgrwt>
</event>
<event>
 8    1  0.9705063E-006  0.3547438E+03  0.7546771E-02  0.1060685E+00
         21   -1    0    0  504  503  0.00000000000E+00  0.00000000000E+00  0.54802540916E+03  0.54802540916E+03  0.00000000000E+00 0.  1.
         21   -1    0    0  503  504 -0.00000000000E+00 -0.00000000000E+00 -0.57407541137E+02  0.57407541137E+02  0.00000000000E+00 0.  1.
         25    2    1    2    0    0  0.10711492280E+03  0.29689705664E+02  0.34599236152E+03  0.38430543674E+03  0.12499947668E+03 0.  0.
         25    2    1    2    0    0 -0.10711492280E+03 -0.29689705664E+02  0.14462550651E+03  0.22112751356E+03  0.12500301921E+03 0.  0.
          5    1    3    3  501    0 -0.80477062656E+01 -0.23166925170E+02  0.13352012721E+02  0.28316748430E+02  0.47000000000E+01 0.  1.
         -5    1    3    3    0  501  0.11516262907E+03  0.52856630833E+02  0.33264034880E+03  0.35598868831E+03  0.47000000000E+01 0.  1.
          5    1    4    4  502    0 -0.49909859748E+02  0.55164596086E+01 -0.10947488661E+02  0.51607779788E+02  0.47000000000E+01 0. -1.
         -5    1    4    4    0  502 -0.57205063055E+02 -0.35206165272E+02  0.15557299517E+03  0.16951973377E+03  0.47000000000E+01 0. -1.
<mgrwt>
<rscale>  0 0.35474380E+03</rscale>
<asrwt>0</asrwt>
<pdfrwt beam="1">  1       21 0.84311598E-01 0.35474380E+03</pdfrwt>
<pdfrwt beam="2">  1       21 0.88319298E-02 0.35474380E+03</pdfrwt>
<totfact> 0.11725468E+05</totfact>
</mgrwt>
</event>
<event>
 8    1  0.9705063E-006  0.3335230E+03  0.7546771E-02  0.1069589E+00
         21   -1    0    0  504  503  0.00000000000E+00  0.00000000000E+00  0.39947519303E+03  0.39947519303E+03  0.00000000000E+00 0. -1.
         21   -1    0    0  503  504 -0.00000000000E+00 -0.00000000000E+00 -0.69614844531E+02  0.69614844531E+02  0.00000000000E+00 0. -1.
         25    2    1    2    0    0  0.72736831321E+01  0.12816611671E+02  0.31879111317E+03  0.34274035810E+03  0.12500402886E+03 0.  0.
         25    2    1    2    0    0 -0.72736831321E+01 -0.12816611671E+02  0.11069235333E+02  0.12634967947E+03  0.12499816611E+03 0.  0.
          5    1    3    3  501    0 -0.71306739630E+01 -0.38953561429E+02  0.25964824884E+03  0.26269284266E+03  0.47000000000E+01 0. -1.
         -5    1    3    3    0  501  0.14404357095E+02  0.51770173100E+02  0.59142864327E+02  0.80047515433E+02  0.47000000000E+01 0. -1.
          5    1    4    4  502    0  0.48353739486E+02  0.51883683461E+01  0.37912361759E+02  0.61842060626E+02  0.47000000000E+01 0.  1.
         -5    1    4    4    0  502 -0.55627422618E+02 -0.18004980017E+02 -0.26843126425E+02  0.64507618843E+02  0.47000000000E+01 0.  1.
<mgrwt>
<rscale>  0 0.33352303E+03</rscale>
<asrwt>0</asrwt>
<pdfrwt beam="1">  1       21 0.61457720E-01 0.33352303E+03</pdfrwt>
<pdfrwt beam="2">  1       21 0.10709976E-01 0.33352303E+03</pdfrwt>
<totfact> 0.17009410E+05</totfact>
</mgrwt>
</event>
<event>
 8    1  0.9705063E-006  0.3989351E+03  0.7546771E-02  0.1044149E+00
         21   -1    0    0  504  503  0.00000000000E+00  0.00000000000E+00  0.12164349912E+03  0.12164349912E+03  0.00000000000E+00 0. -1.
         21   -1    0    0  503  504 -0.00000000000E+00 -0.00000000000E+00 -0.32708126903E+03  0.32708126903E+03  0.00000000000E+00 0. -1.
         25    2    1    2    0    0 -0.90370870368E+02  0.82711345684E+02 -0.21033052994E+03  0.27363163168E+03  0.12500910813E+03 0.  0.
         25    2    1    2    0    0  0.90370870368E+02 -0.82711345684E+02  0.48927600331E+01  0.17509313646E+03  0.12500242565E+03 0.  0.
          5    1    3    3  501    0  0.91340282409E+01  0.81022854176E+01  0.12694766764E+02  0.18229772464E+02  0.47000000000E+01 0.  1.
         -5    1    3    3    0  501 -0.99504898609E+02  0.74609060267E+02 -0.22302529671E+03  0.25540185922E+03  0.47000000000E+01 0.  1.
          5    1    4    4  502    0  0.11071411138E+03 -0.73227429735E+02  0.34895156185E+02  0.13733037847E+03  0.47000000000E+01 0.  1.
         -5    1    4    4    0  502 -0.20343241012E+02 -0.94839159490E+01 -0.30002396152E+02  0.37762757996E+02  0.47000000000E+01 0.  1.
<mgrwt>
<rscale>  0 0.39893513E+03</rscale>
<asrwt>0</asrwt>
<pdfrwt beam="1">  1       21 0.18714385E-01 0.39893513E+03</pdfrwt>
<pdfrwt beam="2">  1       21 0.50320195E-01 0.39893513E+03</pdfrwt>
<totfact> 0.92421174E+04</totfact>
</mgrwt>
</event>
<event>
 8    1  0.9705063E-006  0.6883426E+03  0.7546771E-02  0.9737378E-01
         21   -1    0    0  504  503  0.00000000000E+00  0.00000000000E+00  0.25915988786E+03  0.25915988786E+03  0.00000000000E+00 0. -1.
         21   -1    0    0  503  504 -0.00000000000E+00 -0.00000000000E+00 -0.45706874304E+03  0.45706874304E+03  0.00000000000E+00 0. -1.
         25    2    1    2    0    0 -0.22097493316E+03 -0.21945903941E+03 -0.17844573837E+03  0.38008073424E+03  0.12500516763E+03 0.  0.
         25    2    1    2    0    0  0.22097493316E+03  0.21945903941E+03 -0.19463116810E+02  0.33614789666E+03  0.12499761777E+03 0.  0.
          5    1    3    3  501    0 -0.43599072829E+02 -0.56406010906E+02  0.12613652579E+02  0.72551440022E+02  0.47000000000E+01 0.  1.
         -5    1    3    3    0  501 -0.17737586033E+03 -0.16305302851E+03 -0.19105939095E+03  0.30752929422E+03  0.47000000000E+01 0.  1.
          5    1    4    4  502    0  0.11616123849E+03  0.12412592117E+03  0.51395520195E+02  0.17766335337E+03  0.47000000000E+01 0.  1.
         -5    1    4    4    0  502  0.10481369467E+03  0.95333118242E+02 -0.70858637005E+02  0.15848454329E+03  0.47000000000E+01 0.  1.
<mgrwt>
<rscale>  0 0.68834260E+03</rscale>
<asrwt>0</asrwt>
<pdfrwt beam="1">  1       21 0.39870753E-01 0.68834260E+03</pdfrwt>
<pdfrwt beam="2">  1       21 0.70318267E-01 0.68834260E+03</pdfrwt>
<totfact> 0.93820765E+03</totfact>
</mgrwt>
</event>
<event>
 8    1  0.9705063E-006  0.3573042E+03  0.7546771E-02  0.1059656E+00
         21   -1    0    0  504  503  0.00000000000E+00  0.00000000000E+00  0.22303777729E+03  0.22303777729E+03  0.00000000000E+00 0. -1.
         21   -1    0    0  503  504 -0.00000000000E+00 -0.00000000000E+00 -0.14309938666E+03  0.14309938666E+03  0.00000000000E+00 0. -1.
         25    2    1    2    0    0 -0.52497337245E+02 -0.11347913483E+03  0.13680507210E+02  0.17732925785E+03  0.12500009981E+03 0.  0.
         25    2    1    2    0    0  0.52497337245E+02  0.11347913483E+03  0.66257883421E+02  0.18880790610E+03  0.12499933533E+03 0.  0.
          5    1    3    3  501    0 -0.71462505076E+02 -0.76440684688E+02 -0.37447649658E+02  0.11124065971E+03  0.47000000000E+01 0. -1.
         -5    1    3    3    0  501  0.18965167830E+02 -0.37038450138E+02  0.51128156868E+02  0.66088598140E+02  0.47000000000E+01 0. -1.
          5    1    4    4  502    0 -0.16284322284E+01 -0.23427678007E+00 -0.29884634775E+02  0.30296667685E+02  0.47000000000E+01 0.  1.
         -5    1    4    4    0  502  0.54125769474E+02  0.11371341161E+03  0.96142518197E+02  0.15851123842E+03  0.47000000000E+01 0.  1.
<mgrwt>
<rscale>  0 0.35730418E+03</rscale>
<asrwt>0</asrwt>
<pdfrwt beam="1">  1       21 0.34313504E-01 0.35730418E+03</pdfrwt>
<pdfrwt beam="2">  1       21 0.22015290E-01 0.35730418E+03</pdfrwt>
<totfact> 0.15093023E+05</totfact>
</mgrwt>
</event>
<event>
 8    1  0.9705063E-006  0.4296925E+03  0.7546771E-02  0.1033957E+00
         21   -1    0    0  504  503  0.00000000000E+00  0.00000000000E+00  0.51749862557E+02  0.51749862557E+02  0.00000000000E+00 0.  1.
         21   -1    0    0  503  504 -0.00000000000E+00 -0.00000000000E+00 -0.89196187877E+03  0.89196187877E+03  0.00000000000E+00 0.  1.
         25    2    1    2    0    0  0.48357068264E+02  0.24908239898E+01 -0.78885708893E+03  0.80016238654E+03  0.12497890951E+03 0.  0.
         25    2    1    2    0    0 -0.48357068264E+02 -0.24908239898E+01 -0.51354927280E+02  0.14354935478E+03  0.12499791377E+03 0.  0.
          5    1    3    3  501    0 -0.34353887744E+02 -0.14600147677E+02 -0.11454394683E+03  0.12056433830E+03  0.47000000000E+01 0. -1.
         -5    1    3    3    0  501  0.82710956008E+02  0.17090971666E+02 -0.67431314210E+03  0.67959804824E+03  0.47000000000E+01 0. -1.
          5    1    4    4  502    0  0.20183767680E+02 -0.10159725675E+02 -0.68535902545E+02  0.72317801690E+02  0.47000000000E+01 0. -1.
         -5    1    4    4    0  502 -0.68540835945E+02  0.76689016856E+01  0.17180975265E+02  0.71231553094E+02  0.47000000000E+01 0. -1.
<mgrwt>
<rscale>  0 0.42969247E+03</rscale>
<asrwt>0</asrwt>
<pdfrwt beam="1">  1       21 0.79615173E-02 0.42969247E+03</pdfrwt>
<pdfrwt beam="2">  1       21 0.13722491E+00 0.42969247E+03</pdfrwt>
<totfact> 0.41620735E+04</totfact>
</mgrwt>
</event>
<event>
 8    1  0.9705063E-006  0.2908552E+03  0.7546771E-02  0.1089903E+00
         21   -1    0    0  504  503  0.00000000000E+00  0.00000000000E+00  0.29528418560E+03  0.29528418560E+03  0.00000000000E+00 0. -1.
         21   -1    0    0  503  504 -0.00000000000E+00 -0.00000000000E+00 -0.71623147948E+02  0.71623147948E+02  0.00000000000E+00 0. -1.
         25    2    1    2    0    0  0.73275310030E+02 -0.12094214682E+02  0.10984760773E+03  0.18222936343E+03  0.12500201152E+03 0.  0.
         25    2    1    2    0    0 -0.73275310030E+02  0.12094214682E+02  0.11381342992E+03  0.18467797012E+03  0.12504764983E+03 0.  0.
          5    1    3    3  501    0  0.82767843723E+02 -0.12444807792E+02  0.13033866542E+02  0.84837261109E+02  0.47000000000E+01 0. -1.
         -5    1    3    3    0  501 -0.94925336930E+01  0.35059311022E+00  0.96813741189E+02  0.97392102320E+02  0.47000000000E+01 0. -1.
          5    1    4    4  502    0 -0.80316781259E+01 -0.29309828857E+02 -0.15136101285E+02  0.34274852053E+02  0.47000000000E+01 0. -1.
         -5    1    4    4    0  502 -0.65243631904E+02  0.41404043539E+02  0.12894953121E+03  0.15040311806E+03  0.47000000000E+01 0. -1.
<mgrwt>
<rscale>  0 0.29085517E+03</rscale>
<asrwt>0</asrwt>
<pdfrwt beam="1">  1       21 0.45428336E-01 0.29085517E+03</pdfrwt>
<pdfrwt beam="2">  1       21 0.11018946E-01 0.29085517E+03</pdfrwt>
<totfact> 0.31030448E+05</totfact>
</mgrwt>
</event>
<event>
 8    1  0.9705063E-006  0.2973841E+03  0.7546771E-02  0.1086556E+00
         21   -1    0    0  504  503  0.00000000000E+00  0.00000000000E+00  0.22833166211E+02  0.22833166211E+02  0.00000000000E+00 0. -1.
         21   -1    0    0  503  504 -0.00000000000E+00 -0.00000000000E+00 -0.96829895224E+03  0.96829895224E+03  0.00000000000E+00 0. -1.
         25    2    1    2    0    0 -0.63603925581E+02 -0.39025268826E+02 -0.37187450416E+03  0.39935470305E+03  0.12500040418E+03 0.  0.
         25    2    1    2    0    0  0.63603925581E+02  0.39025268826E+02 -0.57359128187E+03  0.59177741541E+03  0.12500047916E+03 0.  0.
          5    1    3    3  501    0 -0.58565619516E+02 -0.51922365462E+02 -0.99940155384E+02  0.12702751073E+03  0.47000000000E+01 0.  1.
         -5    1    3    3    0  501 -0.50383060653E+01  0.12897096636E+02 -0.27193434878E+03  0.27232719232E+03  0.47000000000E+01 0.  1.
          5    1    4    4  502    0 -0.34810681361E+02 -0.23849011076E+01 -0.20511442727E+03  0.20811412629E+03  0.47000000000E+01 0. -1.
         -5    1    4    4    0  502  0.98414606943E+02  0.41410169934E+02 -0.36847685460E+03  0.38366328911E+03  0.47000000000E+01 0. -1.
<mgrwt>
<rscale>  0 0.29738413E+03</rscale>
<asrwt>0</asrwt>
<pdfrwt beam="1">  1       21 0.35127941E-02 0.29738413E+03</pdfrwt>
<pdfrwt beam="2">  1       21 0.14896910E+00 0.29738413E+03</pdfrwt>
<totfact> 0.14242738E+05</totfact>
</mgrwt>
</event>
<event>
 8    1  0.9705063E-006  0.2839545E+03  0.7546771E-02  0.1093548E+00
         21   -1    0    0  504  503  0.00000000000E+00  0.00000000000E+00  0.37070694550E+03  0.37070694550E+03  0.00000000000E+00 0.  1.
         21   -1    0    0  503  504 -0.00000000000E+00 -0.00000000000E+00 -0.54375961526E+02  0.54375961526E+02  0.00000000000E+00 0.  1.
         25    2    1    2    0    0 -0.58210555920E+02 -0.27425845293E+02  0.18783862055E+03  0.23462167394E+03  0.12499334664E+03 0.  0.
         25    2    1    2    0    0  0.58210555920E+02  0.27425845293E+02  0.12849236342E+03  0.19046123308E+03  0.12499819214E+03 0.  0.
          5    1    3    3  501    0 -0.76631121906E+02  0.24400617850E+02  0.14023886025E+03  0.16173047616E+03  0.47000000000E+01 0. -1.
         -5    1    3    3    0  501  0.18420565985E+02 -0.51826463143E+02  0.47599760303E+02  0.72891197782E+02  0.47000000000E+01 0. -1.
          5    1    4    4  502    0  0.10646222027E+02  0.25504079539E+02  0.13873778039E+03  0.14154173175E+03  0.47000000000E+01 0. -1.
         -5    1    4    4    0  502  0.47564333894E+02  0.19217657536E+01 -0.10245416971E+02  0.48919501339E+02  0.47000000000E+01 0. -1.
<mgrwt>
<rscale>  0 0.28395455E+03</rscale>
<asrwt>0</asrwt>
<pdfrwt beam="1">  1       21 0.57031836E-01 0.28395455E+03</pdfrwt>
<pdfrwt beam="2">  1       21 0.83655328E-02 0.28395455E+03</pdfrwt>
<totfact> 0.31365900E+05</totfact>
</mgrwt>
</event>
<event>
 8    1  0.9705063E-006  0.3820843E+03  0.7546771E-02  0.1050166E+00
         21   -1    0    0  504  503  0.00000000000E+00  0.00000000000E+00  0.51608010625E+02  0.51608010625E+02  0.00000000000E+00 0.  1.
         21   -1    0    0  503  504 -0.00000000000E+00 -0.00000000000E+00 -0.70719835157E+03  0.70719835157E+03  0.00000000000E+00 0.  1.
         25    2    1    2    0    0 -0.12794327910E+03  0.66993815453E+02 -0.32033321746E+03  0.37295495580E+03  0.12499749945E+03 0.  0.
         25    2    1    2    0    0  0.12794327910E+03 -0.66993815453E+02 -0.33525712349E+03  0.38585140640E+03  0.12500525988E+03 0.  0.
          5    1    3    3  501    0 -0.45113902531E+02 -0.21901935517E+02 -0.31087592881E+02  0.59190264505E+02  0.47000000000E+01 0.  1.
         -5    1    3    3    0  501 -0.82829376566E+02  0.88895750970E+02 -0.28924562458E+03  0.31376469129E+03  0.47000000000E+01 0.  1.
          5    1    4    4  502    0  0.12162711597E+03 -0.61424211508E+02 -0.15949842385E+03  0.20982832580E+03  0.47000000000E+01 0. -1.
         -5    1    4    4    0  502  0.63161631234E+01 -0.55696039447E+01 -0.17575869964E+03  0.17602308060E+03  0.47000000000E+01 0. -1.
<mgrwt>
<rscale>  0 0.38208428E+03</rscale>
<asrwt>0</asrwt>
<pdfrwt beam="1">  1       21 0.79396943E-02 0.38208428E+03</pdfrwt>
<pdfrwt beam="2">  1       21 0.10879974E+00 0.38208428E+03</pdfrwt>
<totfact> 0.76414797E+04</totfact>
</mgrwt>
</event>
<event>
 8    1  0.9705063E-006  0.3240703E+03  0.7546771E-02  0.1073791E+00
         21   -1    0    0  504  503  0.00000000000E+00  0.00000000000E+00  0.80025853104E+02  0.80025853104E+02  0.00000000000E+00 0.  1.
         21   -1    0    0  503  504 -0.00000000000E+00 -0.00000000000E+00 -0.32808637826E+03  0.32808637826E+03  0.00000000000E+00 0.  1.
         25    2    1    2    0    0  0.14628638571E+02  0.29853319466E+02 -0.11271433289E+01  0.12935626258E+03  0.12500621771E+03 0.  0.
         25    2    1    2    0    0 -0.14628638571E+02 -0.29853319466E+02 -0.24693338183E+03  0.27875596879E+03  0.12499430917E+03 0.  0.
          5    1    3    3  501    0  0.18201531380E+02  0.18267945548E+02 -0.61892911975E+02  0.67214850530E+02  0.47000000000E+01 0. -1.
         -5    1    3    3    0  501 -0.35728928086E+01  0.11585373918E+02  0.60765768646E+02  0.62141412045E+02  0.47000000000E+01 0. -1.
          5    1    4    4  502    0  0.16742578454E+02  0.26949087579E+02 -0.18880924571E+03  0.19151393819E+03  0.47000000000E+01 0. -1.
         -5    1    4    4    0  502 -0.31371217025E+02 -0.56802407045E+02 -0.58124136112E+02  0.87242030595E+02  0.47000000000E+01 0. -1.
<mgrwt>
<rscale>  0 0.32407032E+03</rscale>
<asrwt>0</asrwt>
<pdfrwt beam="1">  1       21 0.12311670E-01 0.32407032E+03</pdfrwt>
<pdfrwt beam="2">  1       21 0.50474828E-01 0.32407032E+03</pdfrwt>
<totfact> 0.20232737E+05</totfact>
</mgrwt>
</event>
<event>
 8    1  0.9705063E-006  0.3171805E+03  0.7546771E-02  0.1076954E+00
         21   -1    0    0  504  503  0.00000000000E+00  0.00000000000E+00  0.85435686172E+02  0.85435686172E+02  0.00000000000E+00 0. -1.
         21   -1    0    0  503  504 -0.00000000000E+00 -0.00000000000E+00 -0.29438360933E+03  0.29438360933E+03  0.00000000000E+00 0. -1.
         25    2    1    2    0    0 -0.31755365124E+02 -0.45120660642E+02 -0.20091409466E+03  0.24295056509E+03  0.12495689823E+03 0.  0.
         25    2    1    2    0    0  0.31755365124E+02  0.45120660642E+02 -0.80338285030E+01  0.13686873041E+03  0.12499691889E+03 0.  0.
          5    1    3    3  501    0 -0.33129313441E+02 -0.33409823916E+02 -0.21720840765E+03  0.22229563670E+03  0.47000000000E+01 0. -1.
         -5    1    3    3    0  501  0.13739483175E+01 -0.11710836727E+02  0.16294312994E+02  0.20654928389E+02  0.47000000000E+01 0. -1.
          5    1    4    4  502    0  0.53692563242E+02  0.89656846829E+01  0.43642514089E+02  0.69928777233E+02  0.47000000000E+01 0. -1.
         -5    1    4    4    0  502 -0.21937198118E+02  0.36154975960E+02 -0.51676342592E+02  0.66939953179E+02  0.47000000000E+01 0. -1.
<mgrwt>
<rscale>  0 0.31718049E+03</rscale>
<asrwt>0</asrwt>
<pdfrwt beam="1">  1       21 0.13143952E-01 0.31718049E+03</pdfrwt>
<pdfrwt beam="2">  1       21 0.45289786E-01 0.31718049E+03</pdfrwt>
<totfact> 0.22582129E+05</totfact>
</mgrwt>
</event>
<event>
 8    1  0.9705063E-006  0.3704096E+03  0.7546771E-02  0.1054536E+00
         21   -1    0    0  504  503  0.00000000000E+00  0.00000000000E+00  0.11186295392E+04  0.11186295392E+04  0.00000000000E+00 0. -1.
         21   -1    0    0  503  504 -0.00000000000E+00 -0.00000000000E+00 -0.30663250641E+02  0.30663250641E+02  0.00000000000E+00 0. -1.
         25    2    1    2    0    0  0.79047356459E+02 -0.37159407589E+02  0.87010317450E+03  0.88336423245E+03  0.12499410693E+03 0.  0.
         25    2    1    2    0    0 -0.79047356459E+02  0.37159407589E+02  0.21786311411E+03  0.26592855744E+03  0.12499742012E+03 0.  0.
          5    1    3    3  501    0  0.19118496886E+02 -0.73322854322E+02  0.32412957778E+03  0.33290213439E+03  0.47000000000E+01 0.  1.
         -5    1    3    3    0  501  0.59928859573E+02  0.36163446733E+02  0.54597359672E+03  0.55046209806E+03  0.47000000000E+01 0.  1.
          5    1    4    4  502    0 -0.10186220505E+03 -0.46994897939E+01  0.12454135030E+03  0.16102991013E+03  0.47000000000E+01 0. -1.
         -5    1    4    4    0  502  0.22814848592E+02  0.41858897383E+02  0.93321763812E+02  0.10489864731E+03  0.47000000000E+01 0. -1.
<mgrwt>
<rscale>  0 0.37040960E+03</rscale>
<asrwt>0</asrwt>
<pdfrwt beam="1">  1       21 0.17209682E+00 0.37040960E+03</pdfrwt>
<pdfrwt beam="2">  1       21 0.47174240E-02 0.37040960E+03</pdfrwt>
<totfact> 0.56701789E+04</totfact>
</mgrwt>
</event>
<event>
 8    1  0.9705063E-006  0.2743096E+03  0.7546771E-02  0.1098838E+00
         21   -1    0    0  504  503  0.00000000000E+00  0.00000000000E+00  0.55187879444E+03  0.55187879444E+03  0.00000000000E+00 0. -1.
         21   -1    0    0  503  504 -0.00000000000E+00 -0.00000000000E+00 -0.34086177652E+02  0.34086177652E+02  0.00000000000E+00 0. -1.
         25    2    1    2    0    0  0.11239288381E+02  0.49095965031E+02  0.31338630513E+03  0.34113397221E+03  0.12499870147E+03 0.  0.
         25    2    1    2    0    0 -0.11239288381E+02 -0.49095965031E+02  0.20440631166E+03  0.24483099988E+03  0.12499417134E+03 0.  0.
          5    1    3    3  501    0  0.30697542114E+01  0.23808686935E+01 -0.11368785859E+02  0.12900822399E+02  0.47000000000E+01 0. -1.
         -5    1    3    3    0  501  0.81695341694E+01  0.46715096337E+02  0.32475509098E+03  0.32823314981E+03  0.47000000000E+01 0. -1.
          5    1    4    4  502    0  0.15476659301E+02  0.37742366927E+02  0.87848360548E+02  0.96971324088E+02  0.47000000000E+01 0. -1.
         -5    1    4    4    0  502 -0.26715947682E+02 -0.86838331958E+02  0.11655795111E+03  0.14785967579E+03  0.47000000000E+01 0. -1.
<mgrwt>
<rscale>  0 0.27430960E+03</rscale>
<asrwt>0</asrwt>
<pdfrwt beam="1">  1       21 0.84904423E-01 0.27430960E+03</pdfrwt>
<pdfrwt beam="2">  1       21 0.52440278E-02 0.27430960E+03</pdfrwt>
<totfact> 0.29162233E+05</totfact>
</mgrwt>
</event>
<event>
 8    1  0.9705063E-006  0.3686247E+03  0.7546771E-02  0.1055220E+00
         21   -1    0    0  504  503  0.00000000000E+00  0.00000000000E+00  0.85003434873E+02  0.85003434873E+02  0.00000000000E+00 0. -1.
         21   -1    0    0  503  504 -0.00000000000E+00 -0.00000000000E+00 -0.39964327924E+03  0.39964327924E+03  0.00000000000E+00 0. -1.
         25    2    1    2    0    0  0.99236215407E+02  0.71477642786E+02 -0.23385803423E+03  0.29201267132E+03  0.12499976067E+03 0.  0.
         25    2    1    2    0    0 -0.99236215407E+02 -0.71477642786E+02 -0.80781810135E+02  0.19263404280E+03  0.12500117491E+03 0.  0.
          5    1    3    3  501    0 -0.22733689421E+02 -0.27736038244E+01 -0.74043464494E+02  0.77646881117E+02  0.47000000000E+01 0. -1.
         -5    1    3    3    0  501  0.12196990483E+03  0.74251246610E+02 -0.15981456974E+03  0.21436579020E+03  0.47000000000E+01 0. -1.
          5    1    4    4  502    0 -0.10197467800E+03 -0.96487191869E+02 -0.88353963833E+02  0.16594314108E+03  0.47000000000E+01 0. -1.
         -5    1    4    4    0  502  0.27384625888E+01  0.25009549084E+02  0.75721536981E+01  0.26690901715E+02  0.47000000000E+01 0. -1.
<mgrwt>
<rscale>  0 0.36862475E+03</rscale>
<asrwt>0</asrwt>
<pdfrwt beam="1">  1       21 0.13077452E-01 0.36862475E+03</pdfrwt>
<pdfrwt beam="2">  1       21 0.61483581E-01 0.36862475E+03</pdfrwt>
<totfact> 0.11745132E+05</totfact>
</mgrwt>
</event>
<event>
 8    1  0.9705063E-006  0.3371342E+03  0.7546771E-02  0.1068023E+00
         21   -1    0    0  504  503  0.00000000000E+00  0.00000000000E+00  0.17697406232E+03  0.17697406232E+03  0.00000000000E+00 0. -1.
         21   -1    0    0  503  504 -0.00000000000E+00 -0.00000000000E+00 -0.16055951264E+03  0.16055951264E+03  0.00000000000E+00 0. -1.
         25    2    1    2    0    0 -0.72893977165E+02 -0.50614101800E+02 -0.61933987310E+02  0.16538337677E+03  0.12506207787E+03 0.  0.
         25    2    1    2    0    0  0.72893977165E+02  0.50614101800E+02  0.78348536990E+02  0.17215019819E+03  0.12498751250E+03 0.  0.
          5    1    3    3  501    0 -0.62961853767E+02 -0.82244821638E+02 -0.76515986362E+02  0.12886113411E+03  0.47000000000E+01 0. -1.
         -5    1    3    3    0  501 -0.99321233985E+01  0.31630719838E+02  0.14581999052E+02  0.36522242661E+02  0.47000000000E+01 0. -1.
          5    1    4    4  502    0  0.60860287171E+02  0.51678933619E+01 -0.18835417492E+02  0.64090128947E+02  0.47000000000E+01 0. -1.
         -5    1    4    4    0  502  0.12033689994E+02  0.45446208438E+02  0.97183954482E+02  0.10806006924E+03  0.47000000000E+01 0. -1.
<mgrwt>
<rscale>  0 0.33713421E+03</rscale>
<asrwt>0</asrwt>
<pdfrwt beam="1">  1       21 0.27226779E-01 0.33713421E+03</pdfrwt>
<pdfrwt beam="2">  1       21 0.24701463E-01 0.33713421E+03</pdfrwt>
<totfact> 0.19207091E+05</totfact>
</mgrwt>
</event>
<event>
 8    1  0.9705063E-006  0.3327662E+03  0.7546771E-02  0.1069919E+00
         21   -1    0    0  504  503  0.00000000000E+00  0.00000000000E+00  0.66525227381E+02  0.66525227381E+02  0.00000000000E+00 0.  1.
         21   -1    0    0  503  504 -0.00000000000E+00 -0.00000000000E+00 -0.41613284293E+03  0.41613284293E+03  0.00000000000E+00 0.  1.
         25    2    1    2    0    0 -0.77776146014E+02  0.41374217302E+01 -0.28707882167E+03  0.32265418528E+03  0.12500090512E+03 0.  0.
         25    2    1    2    0    0  0.77776146014E+02 -0.41374217302E+01 -0.62528793877E+02  0.16000388503E+03  0.12500058405E+03 0.  0.
          5    1    3    3  501    0 -0.10554000439E+03  0.25199606739E+02 -0.24374906453E+03  0.26685091187E+03  0.47000000000E+01 0.  1.
         -5    1    3    3    0  501  0.27763858379E+02 -0.21062185009E+02 -0.43329757139E+02  0.55803273409E+02  0.47000000000E+01 0.  1.
          5    1    4    4  502    0  0.57136687877E+02  0.31580442711E+02  0.19304983802E+02  0.68240001927E+02  0.47000000000E+01 0.  1.
         -5    1    4    4    0  502  0.20639458137E+02 -0.35717864441E+02 -0.81833777680E+02  0.91763883101E+02  0.47000000000E+01 0.  1.
<mgrwt>
<rscale>  0 0.33276618E+03</rscale>
<asrwt>0</asrwt>
<pdfrwt beam="1">  1       21 0.10234650E-01 0.33276618E+03</pdfrwt>
<pdfrwt beam="2">  1       21 0.64020439E-01 0.33276618E+03</pdfrwt>
<totfact> 0.16873835E+05</totfact>
</mgrwt>
</event>
<event>
 8    1  0.9705063E-006  0.3147255E+03  0.7546771E-02  0.1078103E+00
         21   -1    0    0  504  503  0.00000000000E+00  0.00000000000E+00  0.57527222706E+02  0.57527222706E+02  0.00000000000E+00 0. -1.
         21   -1    0    0  503  504 -0.00000000000E+00 -0.00000000000E+00 -0.43045765491E+03  0.43045765491E+03  0.00000000000E+00 0. -1.
         25    2    1    2    0    0 -0.62198479233E+02 -0.68224250013E+02 -0.22491128622E+03  0.27337493679E+03  0.12500228114E+03 0.  0.
         25    2    1    2    0    0  0.62198479233E+02  0.68224250013E+02 -0.14801914599E+03  0.21460994083E+03  0.12499824004E+03 0.  0.
          5    1    3    3  501    0  0.17102076155E+02 -0.97589082117E+01  0.69517290975E+01  0.21404061197E+02  0.47000000000E+01 0.  1.
         -5    1    3    3    0  501 -0.79300555388E+02 -0.58465341801E+02 -0.23186301531E+03  0.25197087559E+03  0.47000000000E+01 0.  1.
          5    1    4    4  502    0  0.50152402369E+02 -0.97126550706E+01 -0.12047719055E+03  0.13094442552E+03  0.47000000000E+01 0. -1.
         -5    1    4    4    0  502  0.12046076864E+02  0.77936905084E+02 -0.27541955436E+02  0.83665515304E+02  0.47000000000E+01 0. -1.
<mgrwt>
<rscale>  0 0.31472549E+03</rscale>
<asrwt>0</asrwt>
<pdfrwt beam="1">  1       21 0.88503417E-02 0.31472549E+03</pdfrwt>
<pdfrwt beam="2">  1       21 0.66224256E-01 0.31472549E+03</pdfrwt>
<totfact> 0.20367012E+05</totfact>
</mgrwt>
</event>
<event>
 8    1  0.9705063E-006  0.3455106E+03  0.7546771E-02  0.1064473E+00
         21   -1    0    0  504  503  0.00000000000E+00  0.00000000000E+00  0.40369935389E+02  0.40369935389E+02  0.00000000000E+00 0.  1.
         21   -1    0    0  503  504 -0.00000000000E+00 -0.00000000000E+00 -0.73927257258E+03  0.73927257258E+03  0.00000000000E+00 0.  1.
         25    2    1    2    0    0 -0.33369423605E+02  0.53304389644E+02 -0.12085048485E+03  0.18489521758E+03  0.12500610148E+03 0.  0.
         25    2    1    2    0    0  0.33369423605E+02 -0.53304389644E+02 -0.57805215234E+03  0.59474729039E+03  0.12500068886E+03 0.  0.
          5    1    3    3  501    0  0.31311113721E+02 -0.23049252320E+02 -0.26538984121E+02  0.47308155249E+02  0.47000000000E+01 0. -1.
         -5    1    3    3    0  501 -0.64680537326E+02  0.76353641964E+02 -0.94311500730E+02  0.13758706233E+03  0.47000000000E+01 0. -1.
          5    1    4    4  502    0 -0.13280323053E+02 -0.81320478862E+02 -0.28775575184E+03  0.29935739507E+03  0.47000000000E+01 0. -1.
         -5    1    4    4    0  502  0.46649746659E+02  0.28016089218E+02 -0.29029640050E+03  0.29538989532E+03  0.47000000000E+01 0. -1.
<mgrwt>
<rscale>  0 0.34551056E+03</rscale>
<asrwt>0</asrwt>
<pdfrwt beam="1">  1       21 0.62107593E-02 0.34551056E+03</pdfrwt>
<pdfrwt beam="2">  1       21 0.11373424E+00 0.34551056E+03</pdfrwt>
<totfact> 0.10627165E+05</totfact>
</mgrwt>
</event>
<event>
 8    1  0.9705063E-006  0.5772174E+03  0.7546771E-02  0.9953834E-01
         21   -1    0    0  504  503  0.00000000000E+00  0.00000000000E+00  0.87967359383E+02  0.87967359383E+02  0.00000000000E+00 0.  1.
         21   -1    0    0  503  504 -0.00000000000E+00 -0.00000000000E+00 -0.94688511614E+03  0.94688511614E+03  0.00000000000E+00 0.  1.
         25    2    1    2    0    0  0.31341593139E+01  0.32267553588E+01  0.36881515872E+02  0.13036249103E+03  0.12495558391E+03 0.  0.
         25    2    1    2    0    0 -0.31341593139E+01 -0.32267553588E+01 -0.89579927263E+03  0.90448998449E+03  0.12500224116E+03 0.  0.
          5    1    3    3  501    0 -0.57050969794E+02 -0.16456419163E+02  0.29411011122E+02  0.66428340799E+02  0.47000000000E+01 0. -1.
         -5    1    3    3    0  501  0.60185129107E+02  0.19683174522E+02  0.74705047504E+01  0.63934150234E+02  0.47000000000E+01 0. -1.
          5    1    4    4  502    0  0.50295283846E+02  0.48651659238E+01 -0.68312363926E+03  0.68500604518E+03  0.47000000000E+01 0. -1.
         -5    1    4    4    0  502 -0.53429443160E+02 -0.80919212826E+01 -0.21267563336E+03  0.21948393930E+03  0.47000000000E+01 0. -1.
<mgrwt>
<rscale>  0 0.57721741E+03</rscale>
<asrwt>0</asrwt>
<pdfrwt beam="1">  1       21 0.13533440E-01 0.57721741E+03</pdfrwt>
<pdfrwt beam="2">  1       21 0.14567463E+00 0.57721741E+03</pdfrwt>
<totfact> 0.13097079E+04</totfact>
</mgrwt>
</event>
<event>
 8    1  0.9705063E-006  0.4759314E+03  0.7546771E-02  0.1020259E+00
         21   -1    0    0  504  503  0.00000000000E+00  0.00000000000E+00  0.24728989836E+03  0.24728989836E+03  0.00000000000E+00 0. -1.
         21   -1    0    0  503  504 -0.00000000000E+00 -0.00000000000E+00 -0.22899303002E+03  0.22899303002E+03  0.00000000000E+00 0. -1.
         25    2    1    2    0    0 -0.19942134369E+02  0.64063415739E+02  0.20034150928E+03  0.24548674081E+03  0.12500083846E+03 0.  0.
         25    2    1    2    0    0  0.19942134369E+02 -0.64063415739E+02 -0.18204464094E+03  0.23079618757E+03  0.12499927576E+03 0.  0.
          5    1    3    3  501    0  0.54662733048E+01  0.58724749080E+02  0.20939362557E+03  0.21759195005E+03  0.47000000000E+01 0. -1.
         -5    1    3    3    0  501 -0.25408407674E+02  0.53386666587E+01 -0.90521162936E+01  0.27894790761E+02  0.47000000000E+01 0. -1.
          5    1    4    4  502    0 -0.49323663056E+00 -0.10000027329E+03 -0.13334200759E+03  0.16674075365E+03  0.47000000000E+01 0.  1.
         -5    1    4    4    0  502  0.20435371000E+02  0.35936857549E+02 -0.48702633353E+02  0.64055433914E+02  0.47000000000E+01 0.  1.
<mgrwt>
<rscale>  0 0.47593135E+03</rscale>
<asrwt>0</asrwt>
<pdfrwt beam="1">  1       21 0.38044600E-01 0.47593135E+03</pdfrwt>
<pdfrwt beam="2">  1       21 0.35229697E-01 0.47593135E+03</pdfrwt>
<totfact> 0.47367735E+04</totfact>
</mgrwt>
</event>
<event>
 8    1  0.9705063E-006  0.2720908E+03  0.7546771E-02  0.1100089E+00
         21   -1    0    0  504  503  0.00000000000E+00  0.00000000000E+00  0.66577314137E+01  0.66577314137E+01  0.00000000000E+00 0.  1.
         21   -1    0    0  503  504 -0.00000000000E+00 -0.00000000000E+00 -0.27799782280E+04  0.27799782280E+04  0.00000000000E+00 0.  1.
         25    2    1    2    0    0  0.25264588433E+02  0.10142642076E+02 -0.18607210463E+04  0.18651134877E+04  0.12499734799E+03 0.  0.
         25    2    1    2    0    0 -0.25264588433E+02 -0.10142642076E+02 -0.91259945027E+03  0.92152247176E+03  0.12499894684E+03 0.  0.
          5    1    3    3  501    0  0.65257459165E+02  0.85604398546E+01 -0.57709631157E+03  0.58085631608E+03  0.47000000000E+01 0. -1.
         -5    1    3    3    0  501 -0.39992870732E+02  0.15822022215E+01 -0.12836247348E+04  0.12842571716E+04  0.47000000000E+01 0. -1.
          5    1    4    4  502    0 -0.36097585605E+02 -0.61805696187E+02 -0.42006399209E+03  0.42614413902E+03  0.47000000000E+01 0.  1.
         -5    1    4    4    0  502  0.10832997171E+02  0.51663054111E+02 -0.49253545817E+03  0.49537833274E+03  0.47000000000E+01 0.  1.
<mgrwt>
<rscale>  0 0.27209078E+03</rscale>
<asrwt>0</asrwt>
<pdfrwt beam="1">  1       21 0.10242661E-02 0.27209078E+03</pdfrwt>
<pdfrwt beam="2">  1       21 0.42768906E+00 0.27209078E+03</pdfrwt>
<totfact> 0.19345040E+04</totfact>
</mgrwt>
</event>
<event>
 8    1  0.9705063E-006  0.4786375E+03  0.7546771E-02  0.1019510E+00
         21   -1    0    0  504  503  0.00000000000E+00  0.00000000000E+00  0.19870056988E+03  0.19870056988E+03  0.00000000000E+00 0.  1.
         21   -1    0    0  503  504 -0.00000000000E+00 -0.00000000000E+00 -0.28824008899E+03  0.28824008899E+03  0.00000000000E+00 0.  1.
         25    2    1    2    0    0  0.37359648529E+02  0.15620152976E+03  0.83324279204E+02  0.21991625793E+03  0.12500225503E+03 0.  0.
         25    2    1    2    0    0 -0.37359648529E+02 -0.15620152976E+03 -0.17286379832E+03  0.26702440094E+03  0.12500190676E+03 0.  0.
          5    1    3    3  501    0 -0.34197628364E+02  0.16551001450E+02  0.43521683440E+02  0.57962404748E+02  0.47000000000E+01 0.  1.
         -5    1    3    3    0  501  0.71557276893E+02  0.13965052831E+03  0.39802595764E+02  0.16195385319E+03  0.47000000000E+01 0.  1.
          5    1    4    4  502    0 -0.46410946240E+02 -0.75196971976E+02 -0.15634939253E+02  0.89861570489E+02  0.47000000000E+01 0. -1.
         -5    1    4    4    0  502  0.90512977109E+01 -0.81004557779E+02 -0.15722885906E+03  0.17716283045E+03  0.47000000000E+01 0. -1.
<mgrwt>
<rscale>  0 0.47863752E+03</rscale>
<asrwt>0</asrwt>
<pdfrwt beam="1">  1       21 0.30569319E-01 0.47863752E+03</pdfrwt>
<pdfrwt beam="2">  1       21 0.44344629E-01 0.47863752E+03</pdfrwt>
<totfact> 0.45850389E+04</totfact>
</mgrwt>
</event>
<event>
 8    1  0.9705063E-006  0.8795384E+03  0.7546771E-02  0.9451527E-01
         21   -1    0    0  504  503  0.00000000000E+00  0.00000000000E+00  0.64762715108E+03  0.64762715108E+03  0.00000000000E+00 0. -1.
         21   -1    0    0  503  504 -0.00000000000E+00 -0.00000000000E+00 -0.29862392329E+03  0.29862392329E+03  0.00000000000E+00 0. -1.
         25    2    1    2    0    0  0.14810678590E+03 -0.31390205909E+03  0.43204113119E+03  0.56811382761E+03  0.12499463732E+03 0.  0.
         25    2    1    2    0    0 -0.14810678590E+03  0.31390205909E+03 -0.83037903405E+02  0.37813724676E+03  0.12498944459E+03 0.  0.
          5    1    3    3  501    0  0.16433193534E+02 -0.49565731071E+00  0.67542778834E+02  0.69673614077E+02  0.47000000000E+01 0.  1.
         -5    1    3    3    0  501  0.13167359236E+03 -0.31340640177E+03  0.36449835235E+03  0.49844021353E+03  0.47000000000E+01 0.  1.
          5    1    4    4  502    0  0.12005896450E+02  0.94485253832E+02 -0.50268531541E+01  0.95493266747E+02  0.47000000000E+01 0.  1.
         -5    1    4    4    0  502 -0.16011268235E+03  0.21941680525E+03 -0.78011050251E+02  0.28264398001E+03  0.47000000000E+01 0.  1.
<mgrwt>
<rscale>  0 0.87953843E+03</rscale>
<asrwt>0</asrwt>
<pdfrwt beam="1">  1       21 0.99634946E-01 0.87953843E+03</pdfrwt>
<pdfrwt beam="2">  1       21 0.45942142E-01 0.87953843E+03</pdfrwt>
<totfact> 0.29499276E+03</totfact>
</mgrwt>
</event>
<event>
 8    1  0.9705063E-006  0.3326812E+03  0.7546771E-02  0.1069957E+00
         21   -1    0    0  504  503  0.00000000000E+00  0.00000000000E+00  0.38194883694E+02  0.38194883694E+02  0.00000000000E+00 0. -1.
         21   -1    0    0  503  504 -0.00000000000E+00 -0.00000000000E+00 -0.72442165481E+03  0.72442165481E+03  0.00000000000E+00 0. -1.
         25    2    1    2    0    0 -0.62435338443E+02 -0.82531577049E+02 -0.42685903548E+03  0.45666482241E+03  0.12499796459E+03 0.  0.
         25    2    1    2    0    0  0.62435338443E+02  0.82531577049E+02 -0.25936773563E+03  0.30595171610E+03  0.12500079039E+03 0.  0.
          5    1    3    3  501    0 -0.65640795549E+02 -0.19289500911E+02 -0.86264410244E+02  0.11020180289E+03  0.47000000000E+01 0. -1.
         -5    1    3    3    0  501  0.32054571058E+01 -0.63242076138E+02 -0.34059462524E+03  0.34646301951E+03  0.47000000000E+01 0. -1.
          5    1    4    4  502    0  0.41597081105E+02  0.44892397564E+02 -0.25519410644E+03  0.26247241088E+03  0.47000000000E+01 0. -1.
         -5    1    4    4    0  502  0.20838257338E+02  0.37639179485E+02 -0.41736291963E+01  0.43479305214E+02  0.47000000000E+01 0. -1.
<mgrwt>
<rscale>  0 0.33268123E+03</rscale>
<asrwt>0</asrwt>
<pdfrwt beam="1">  1       21 0.58761363E-02 0.33268123E+03</pdfrwt>
<pdfrwt beam="2">  1       21 0.11144948E+00 0.33268123E+03</pdfrwt>
<totfact> 0.12340736E+05</totfact>
</mgrwt>
</event>
<event>
 8    1  0.9705063E-006  0.2827695E+03  0.7546771E-02  0.1094186E+00
         21   -1    0    0  504  503  0.00000000000E+00  0.00000000000E+00  0.21830012161E+03  0.21830012161E+03  0.00000000000E+00 0.  1.
         21   -1    0    0  503  504 -0.00000000000E+00 -0.00000000000E+00 -0.91569573666E+02  0.91569573666E+02  0.00000000000E+00 0.  1.
         25    2    1    2    0    0 -0.51698950699E+02 -0.89760915253E+01  0.10736025806E+03  0.17291958168E+03  0.12498641924E+03 0.  0.
         25    2    1    2    0    0  0.51698950699E+02  0.89760915253E+01  0.19370289880E+02  0.13695011359E+03  0.12500709484E+03 0.  0.
          5    1    3    3  501    0  0.33595947229E+02  0.25298556423E+02  0.44807807951E+02  0.61632250330E+02  0.47000000000E+01 0. -1.
         -5    1    3    3    0  501 -0.85294897928E+02 -0.34274647949E+02  0.62552450110E+02  0.11128733135E+03  0.47000000000E+01 0. -1.
          5    1    4    4  502    0  0.85970108552E+02 -0.10380015381E+01  0.40545820684E+02  0.95173476277E+02  0.47000000000E+01 0.  1.
         -5    1    4    4    0  502 -0.34271157853E+02  0.10014093063E+02 -0.21175530804E+02  0.41776637315E+02  0.47000000000E+01 0.  1.
<mgrwt>
<rscale>  0 0.28276951E+03</rscale>
<asrwt>0</asrwt>
<pdfrwt beam="1">  1       21 0.33584634E-01 0.28276951E+03</pdfrwt>
<pdfrwt beam="2">  1       21 0.14087627E-01 0.28276951E+03</pdfrwt>
<totfact> 0.36816336E+05</totfact>
</mgrwt>
</event>
<event>
 8    1  0.9705063E-006  0.3205348E+03  0.7546771E-02  0.1075403E+00
         21   -1    0    0  504  503  0.00000000000E+00  0.00000000000E+00  0.98670858898E+03  0.98670858898E+03  0.00000000000E+00 0.  1.
         21   -1    0    0  503  504 -0.00000000000E+00 -0.00000000000E+00 -0.26031631393E+02  0.26031631393E+02  0.00000000000E+00 0.  1.
         25    2    1    2    0    0 -0.87274963518E+02 -0.35660450265E+02  0.37215994603E+03  0.40375292389E+03  0.12499924462E+03 0.  0.
         25    2    1    2    0    0  0.87274963518E+02  0.35660450265E+02  0.58851701156E+03  0.60898729648E+03  0.12499866963E+03 0.  0.
          5    1    3    3  501    0 -0.38571552132E+02 -0.36458522297E+02  0.34230824454E+03  0.34643038660E+03  0.47000000000E+01 0.  1.
         -5    1    3    3    0  501 -0.48703411386E+02  0.79807203209E+00  0.29851701487E+02  0.57322537289E+02  0.47000000000E+01 0.  1.
          5    1    4    4  502    0  0.91965563043E+02  0.72484768001E+02  0.40101018944E+03  0.41778339892E+03  0.47000000000E+01 0. -1.
         -5    1    4    4    0  502 -0.46905995250E+01 -0.36824317737E+02  0.18750682212E+03  0.19120389756E+03  0.47000000000E+01 0. -1.
<mgrwt>
<rscale>  0 0.32053477E+03</rscale>
<asrwt>0</asrwt>
<pdfrwt beam="1">  1       21 0.15180129E+00 0.32053477E+03</pdfrwt>
<pdfrwt beam="2">  1       21 0.40048671E-02 0.32053477E+03</pdfrwt>
<totfact> 0.10775201E+05</totfact>
</mgrwt>
</event>
<event>
 8    1  0.9705063E-006  0.3424804E+03  0.7546771E-02  0.1065744E+00
         21   -1    0    0  504  503  0.00000000000E+00  0.00000000000E+00  0.44077493589E+03  0.44077493589E+03  0.00000000000E+00 0. -1.
         21   -1    0    0  503  504 -0.00000000000E+00 -0.00000000000E+00 -0.66526481813E+02  0.66526481813E+02  0.00000000000E+00 0. -1.
         25    2    1    2    0    0  0.83261215692E+02 -0.22884136441E+02  0.70093822920E+02  0.16731476092E+03  0.12499988588E+03 0.  0.
         25    2    1    2    0    0 -0.83261215692E+02  0.22884136441E+02  0.30415463116E+03  0.33998665679E+03  0.12499909360E+03 0.  0.
          5    1    3    3  501    0  0.10971996477E+03  0.37989948347E+01  0.68340510446E+02  0.12940408957E+03  0.47000000000E+01 0. -1.
         -5    1    3    3    0  501 -0.26458749073E+02 -0.26683131275E+02  0.17533124744E+01  0.37910671345E+02  0.47000000000E+01 0. -1.
          5    1    4    4  502    0 -0.70192131022E+02  0.53272080050E+02  0.10106947754E+03  0.13417145397E+03  0.47000000000E+01 0.  1.
         -5    1    4    4    0  502 -0.13069084670E+02 -0.30387943609E+02  0.20308515362E+03  0.20581520282E+03  0.47000000000E+01 0.  1.
<mgrwt>
<rscale>  0 0.34248040E+03</rscale>
<asrwt>0</asrwt>
<pdfrwt beam="1">  1       21 0.67811527E-01 0.34248040E+03</pdfrwt>
<pdfrwt beam="2">  1       21 0.10234844E-01 0.34248040E+03</pdfrwt>
<totfact> 0.14824606E+05</totfact>
</mgrwt>
</event>
<event>
 8    1  0.9705063E-006  0.4000398E+03  0.7546771E-02  0.1043766E+00
         21   -1    0    0  504  503  0.00000000000E+00  0.00000000000E+00  0.17789955654E+03  0.17789955654E+03  0.00000000000E+00 0.  1.
         21   -1    0    0  503  504 -0.00000000000E+00 -0.00000000000E+00 -0.22489072730E+03  0.22489072730E+03  0.00000000000E+00 0.  1.
         25    2    1    2    0    0 -0.11921587721E+03  0.18040342933E+02  0.76407784658E+02  0.18974195730E+03  0.12500392575E+03 0.  0.
         25    2    1    2    0    0  0.11921587721E+03 -0.18040342933E+02 -0.12339895541E+03  0.21304832654E+03  0.12499763155E+03 0.  0.
          5    1    3    3  501    0 -0.53644850179E+02  0.63081412863E+02  0.72164221470E+02  0.10993998117E+03  0.47000000000E+01 0.  1.
         -5    1    3    3    0  501 -0.65571027028E+02 -0.45041069930E+02  0.42435631874E+01  0.79801976131E+02  0.47000000000E+01 0.  1.
          5    1    4    4  502    0  0.54583882878E+02 -0.65555718941E+02 -0.31707304085E+02  0.91128457072E+02  0.47000000000E+01 0. -1.
         -5    1    4    4    0  502  0.64631994330E+02  0.47515376008E+02 -0.91691651325E+02  0.12191986947E+03  0.47000000000E+01 0. -1.
<mgrwt>
<rscale>  0 0.40003980E+03</rscale>
<asrwt>0</asrwt>
<pdfrwt beam="1">  1       21 0.27369163E-01 0.40003980E+03</pdfrwt>
<pdfrwt beam="2">  1       21 0.34598573E-01 0.40003980E+03</pdfrwt>
<totfact> 0.96546085E+04</totfact>
</mgrwt>
</event>
<event>
 8    1  0.9705063E-006  0.3239601E+03  0.7546771E-02  0.1073841E+00
         21   -1    0    0  504  503  0.00000000000E+00  0.00000000000E+00  0.34120094901E+03  0.34120094901E+03  0.00000000000E+00 0.  1.
         21   -1    0    0  503  504 -0.00000000000E+00 -0.00000000000E+00 -0.76897615840E+02  0.76897615840E+02  0.00000000000E+00 0.  1.
         25    2    1    2    0    0  0.11684285722E+02  0.38596839803E+02  0.25444142541E+03  0.28634045016E+03  0.12499670339E+03 0.  0.
         25    2    1    2    0    0 -0.11684285722E+02 -0.38596839803E+02  0.98619077574E+01  0.13175811468E+03  0.12504681117E+03 0.  0.
          5    1    3    3  501    0  0.11269811847E+02 -0.30006410064E+02  0.18782756944E+03  0.19060083721E+03  0.47000000000E+01 0. -1.
         -5    1    3    3    0  501  0.41447387456E+00  0.68603249867E+02  0.66613855967E+02  0.95739612949E+02  0.47000000000E+01 0. -1.
          5    1    4    4  502    0 -0.39304270121E+02 -0.65632363734E+02 -0.23835853743E+02  0.80266249088E+02  0.47000000000E+01 0.  1.
         -5    1    4    4    0  502  0.27619984399E+02  0.27035523931E+02  0.33697761501E+02  0.51491865596E+02  0.47000000000E+01 0.  1.
<mgrwt>
<rscale>  0 0.32396012E+03</rscale>
<asrwt>0</asrwt>
<pdfrwt beam="1">  1       21 0.52492453E-01 0.32396012E+03</pdfrwt>
<pdfrwt beam="2">  1       21 0.11830403E-01 0.32396012E+03</pdfrwt>
<totfact> 0.20013356E+05</totfact>
</mgrwt>
</event>
<event>
 8    1  0.9705063E-006  0.2599066E+03  0.7546771E-02  0.1107199E+00
         21   -1    0    0  504  503  0.00000000000E+00  0.00000000000E+00  0.32833270869E+03  0.32833270869E+03  0.00000000000E+00 0.  1.
         21   -1    0    0  503  504 -0.00000000000E+00 -0.00000000000E+00 -0.51435222949E+02  0.51435222949E+02  0.00000000000E+00 0.  1.
         25    2    1    2    0    0  0.21696658279E+02  0.88365214847E+01  0.17741827690E+03  0.21830740804E+03  0.12502819815E+03 0.  0.
         25    2    1    2    0    0 -0.21696658279E+02 -0.88365214847E+01  0.99479208840E+02  0.16146052360E+03  0.12499823438E+03 0.  0.
          5    1    3    3  501    0 -0.19628021463E+02  0.68424587736E+01  0.17532551513E+03  0.17661598094E+03  0.47000000000E+01 0. -1.
         -5    1    3    3    0  501  0.41324679742E+02  0.19940627111E+01  0.20927617759E+01  0.41691427101E+02  0.47000000000E+01 0. -1.
          5    1    4    4  502    0  0.26006941899E+01  0.56480212661E+02  0.36897958479E+02  0.67678115905E+02  0.47000000000E+01 0. -1.
         -5    1    4    4    0  502 -0.24297352469E+02 -0.65316734145E+02  0.62581250361E+02  0.93782407695E+02  0.47000000000E+01 0. -1.
<mgrwt>
<rscale>  0 0.25990665E+03</rscale>
<asrwt>0</asrwt>
<pdfrwt beam="1">  1       21 0.50512723E-01 0.25990665E+03</pdfrwt>
<pdfrwt beam="2">  1       21 0.79131114E-02 0.25990665E+03</pdfrwt>
<totfact> 0.44976313E+05</totfact>
</mgrwt>
</event>
<event>
 8    1  0.9705063E-006  0.2778329E+03  0.7546771E-02  0.1096878E+00
         21   -1    0    0  504  503  0.00000000000E+00  0.00000000000E+00  0.37304792011E+02  0.37304792011E+02  0.00000000000E+00 0.  1.
         21   -1    0    0  503  504 -0.00000000000E+00 -0.00000000000E+00 -0.51730044912E+03  0.51730044912E+03  0.00000000000E+00 0.  1.
         25    2    1    2    0    0 -0.48240740401E+02  0.36154609686E+02 -0.22736820926E+03  0.26637591466E+03  0.12500200196E+03 0.  0.
         25    2    1    2    0    0  0.48240740401E+02 -0.36154609686E+02 -0.25262744785E+03  0.28822932647E+03  0.12498476865E+03 0.  0.
          5    1    3    3  501    0  0.22734735007E+02  0.49683801681E+02 -0.15322251189E+03  0.16274082609E+03  0.47000000000E+01 0.  1.
         -5    1    3    3    0  501 -0.70975475408E+02 -0.13529191995E+02 -0.74145697368E+02  0.10363508857E+03  0.47000000000E+01 0.  1.
          5    1    4    4  502    0 -0.25887551322E+02 -0.40453367457E+01 -0.17182220638E+03  0.17387205258E+03  0.47000000000E+01 0. -1.
         -5    1    4    4    0  502  0.74128291723E+02 -0.32109272940E+02 -0.80805241467E+02  0.11435727389E+03  0.47000000000E+01 0. -1.
<mgrwt>
<rscale>  0 0.27783294E+03</rscale>
<asrwt>0</asrwt>
<pdfrwt beam="1">  1       21 0.57391991E-02 0.27783294E+03</pdfrwt>
<pdfrwt beam="2">  1       21 0.79584680E-01 0.27783294E+03</pdfrwt>
<totfact> 0.28951926E+05</totfact>
</mgrwt>
</event>
<event>
 8    1  0.9705063E-006  0.3188326E+03  0.7546771E-02  0.1076188E+00
         21   -1    0    0  504  503  0.00000000000E+00  0.00000000000E+00  0.19752914802E+04  0.19752914802E+04  0.00000000000E+00 0.  1.
         21   -1    0    0  503  504 -0.00000000000E+00 -0.00000000000E+00 -0.12865724891E+02  0.12865724891E+02  0.00000000000E+00 0.  1.
         25    2    1    2    0    0  0.53467486588E+02  0.83240751853E+02  0.98182447888E+03  0.99468192741E+03  0.12500013801E+03 0.  0.
         25    2    1    2    0    0 -0.53467486588E+02 -0.83240751853E+02  0.98060127642E+03  0.99347527767E+03  0.12500587639E+03 0.  0.
          5    1    3    3  501    0  0.57011086612E+02  0.26234270534E+02  0.83030228514E+03  0.83268389900E+03  0.47000000000E+01 0. -1.
         -5    1    3    3    0  501 -0.35436000240E+01  0.57006481319E+02  0.15152219374E+03  0.16199802841E+03  0.47000000000E+01 0. -1.
          5    1    4    4  502    0 -0.19822943687E+02 -0.71510955625E+02  0.22395694270E+03  0.23597789739E+03  0.47000000000E+01 0. -1.
         -5    1    4    4    0  502 -0.33644542901E+02 -0.11729796228E+02  0.75664433372E+03  0.75749738028E+03  0.47000000000E+01 0. -1.
<mgrwt>
<rscale>  0 0.31883260E+03</rscale>
<asrwt>0</asrwt>
<pdfrwt beam="1">  1       21 0.30389076E+00 0.31883260E+03</pdfrwt>
<pdfrwt beam="2">  1       21 0.19793439E-02 0.31883260E+03</pdfrwt>
<totfact> 0.37026424E+04</totfact>
</mgrwt>
</event>
<event>
 8    1  0.9705063E-006  0.3054125E+03  0.7546771E-02  0.1082566E+00
         21   -1    0    0  504  503  0.00000000000E+00  0.00000000000E+00  0.63628496333E+02  0.63628496333E+02  0.00000000000E+00 0. -1.
         21   -1    0    0  503  504 -0.00000000000E+00 -0.00000000000E+00 -0.36648990921E+03  0.36648990921E+03  0.00000000000E+00 0. -1.
         25    2    1    2    0    0  0.11705685783E+02 -0.32314078762E+02 -0.37779686384E+02  0.13502617031E+03  0.12499415666E+03 0.  0.
         25    2    1    2    0    0 -0.11705685783E+02  0.32314078762E+02 -0.26508172649E+03  0.29509223523E+03  0.12501952971E+03 0.  0.
          5    1    3    3  501    0 -0.28671974185E+01 -0.11835503637E+02  0.45799322078E+02  0.47623186267E+02  0.47000000000E+01 0.  1.
         -5    1    3    3    0  501  0.14572883201E+02 -0.20478575125E+02 -0.83579008462E+02  0.87402984042E+02  0.47000000000E+01 0.  1.
          5    1    4    4  502    0 -0.42922242854E+02  0.11456678998E+02 -0.25064534936E+03  0.25459527800E+03  0.47000000000E+01 0. -1.
         -5    1    4    4    0  502  0.31216557071E+02  0.20857399763E+02 -0.14436377133E+02  0.40496957231E+02  0.47000000000E+01 0. -1.
<mgrwt>
<rscale>  0 0.30541252E+03</rscale>
<asrwt>0</asrwt>
<pdfrwt beam="1">  1       21 0.97889994E-02 0.30541252E+03</pdfrwt>
<pdfrwt beam="2">  1       21 0.56383063E-01 0.30541252E+03</pdfrwt>
<totfact> 0.24226988E+05</totfact>
</mgrwt>
</event>
<event>
 8    1  0.9705063E-006  0.4040317E+03  0.7546771E-02  0.1042393E+00
         21   -1    0    0  504  503  0.00000000000E+00  0.00000000000E+00  0.10369199580E+03  0.10369199580E+03  0.00000000000E+00 0. -1.
         21   -1    0    0  503  504 -0.00000000000E+00 -0.00000000000E+00 -0.39357332263E+03  0.39357332263E+03  0.00000000000E+00 0. -1.
         25    2    1    2    0    0  0.66878684584E+02 -0.14296110962E+03 -0.12476065583E+03  0.23686437110E+03  0.12501548600E+03 0.  0.
         25    2    1    2    0    0 -0.66878684584E+02  0.14296110962E+03 -0.16512067100E+03  0.26040094733E+03  0.12503271596E+03 0.  0.
          5    1    3    3  501    0  0.11417434657E+02 -0.42589164996E+02  0.22850448141E+02  0.49884143467E+02  0.47000000000E+01 0.  1.
         -5    1    3    3    0  501  0.55461249927E+02 -0.10037194463E+03 -0.14761110397E+03  0.18698022764E+03  0.47000000000E+01 0.  1.
          5    1    4    4  502    0 -0.97229061687E+02  0.13844573878E+03 -0.14867675445E+03  0.22527223606E+03  0.47000000000E+01 0.  1.
         -5    1    4    4    0  502  0.30350377103E+02  0.45153708437E+01 -0.16443916546E+02  0.35128711271E+02  0.47000000000E+01 0.  1.
<mgrwt>
<rscale>  0 0.40403170E+03</rscale>
<asrwt>0</asrwt>
<pdfrwt beam="1">  1       21 0.15952615E-01 0.40403170E+03</pdfrwt>
<pdfrwt beam="2">  1       21 0.60549741E-01 0.40403170E+03</pdfrwt>
<totfact> 0.83545848E+04</totfact>
</mgrwt>
</event>
<event>
 8    1  0.9705063E-006  0.3101173E+03  0.7546771E-02  0.1080290E+00
         21   -1    0    0  504  503  0.00000000000E+00  0.00000000000E+00  0.90367837479E+02  0.90367837479E+02  0.00000000000E+00 0.  1.
         21   -1    0    0  503  504 -0.00000000000E+00 -0.00000000000E+00 -0.26605907306E+03  0.26605907306E+03  0.00000000000E+00 0.  1.
         25    2    1    2    0    0  0.71672613382E+02 -0.39667214931E+02 -0.40354886264E+02  0.15480396469E+03  0.12500119675E+03 0.  0.
         25    2    1    2    0    0 -0.71672613382E+02  0.39667214931E+02 -0.13533634931E+03  0.20162294584E+03  0.12500173357E+03 0.  0.
          5    1    3    3  501    0 -0.45639125369E+01 -0.11633622087E+02  0.38956277364E+02  0.41180723726E+02  0.47000000000E+01 0.  1.
         -5    1    3    3    0  501  0.76236525919E+02 -0.28033592844E+02 -0.79311163629E+02  0.11362324097E+03  0.47000000000E+01 0.  1.
          5    1    4    4  502    0 -0.57192651064E+02 -0.20506312631E+02 -0.12450092652E+03  0.13861485815E+03  0.47000000000E+01 0.  1.
         -5    1    4    4    0  502 -0.14479962318E+02  0.60173527563E+02 -0.10835422789E+02  0.63008087696E+02  0.47000000000E+01 0.  1.
<mgrwt>
<rscale>  0 0.31011729E+03</rscale>
<asrwt>0</asrwt>
<pdfrwt beam="1">  1       21 0.13902744E-01 0.31011729E+03</pdfrwt>
<pdfrwt beam="2">  1       21 0.40932165E-01 0.31011729E+03</pdfrwt>
<totfact> 0.25154233E+05</totfact>
</mgrwt>
</event>
<event>
 8    1  0.9705063E-006  0.3106612E+03  0.7546771E-02  0.1080029E+00
         21   -1    0    0  504  503  0.00000000000E+00  0.00000000000E+00  0.11580639804E+04  0.11580639804E+04  0.00000000000E+00 0. -1.
         21   -1    0    0  503  504 -0.00000000000E+00 -0.00000000000E+00 -0.20834426288E+02  0.20834426288E+02  0.00000000000E+00 0. -1.
         25    2    1    2    0    0  0.24464244759E+02 -0.53290183020E+02  0.83855354421E+03  0.84984521386E+03  0.12500599239E+03 0.  0.
         25    2    1    2    0    0 -0.24464244759E+02  0.53290183020E+02  0.29867600990E+03  0.32905319283E+03  0.12502120597E+03 0.  0.
          5    1    3    3  501    0 -0.34974271523E+02  0.21929546807E+02  0.28923723110E+03  0.29220604126E+03  0.47000000000E+01 0.  1.
         -5    1    3    3    0  501  0.59438516282E+02 -0.75219729827E+02  0.54931631311E+03  0.55763917260E+03  0.47000000000E+01 0.  1.
          5    1    4    4  502    0  0.14272421813E+01 -0.38874610330E+02  0.12081385307E+03  0.12700924943E+03  0.47000000000E+01 0.  1.
         -5    1    4    4    0  502 -0.25891486940E+02  0.92164793350E+02  0.17786215684E+03  0.20204394340E+03  0.47000000000E+01 0.  1.
<mgrwt>
<rscale>  0 0.31066122E+03</rscale>
<asrwt>0</asrwt>
<pdfrwt beam="1">  1       21 0.17816364E+00 0.31066122E+03</pdfrwt>
<pdfrwt beam="2">  1       21 0.32052973E-02 0.31066122E+03</pdfrwt>
<totfact> 0.10085438E+05</totfact>
</mgrwt>
</event>
<event>
 8    1  0.9705063E-006  0.4385919E+03  0.7546771E-02  0.1031180E+00
         21   -1    0    0  504  503  0.00000000000E+00  0.00000000000E+00  0.30231445284E+03  0.30231445284E+03  0.00000000000E+00 0.  1.
         21   -1    0    0  503  504 -0.00000000000E+00 -0.00000000000E+00 -0.15907514381E+03  0.15907514381E+03  0.00000000000E+00 0.  1.
         25    2    1    2    0    0  0.28925634840E+02  0.16076694717E+03 -0.83821381851E+01  0.20585826716E+03  0.12499864904E+03 0.  0.
         25    2    1    2    0    0 -0.28925634840E+02 -0.16076694717E+03  0.15162144722E+03  0.25553132949E+03  0.12499797374E+03 0.  0.
          5    1    3    3  501    0  0.38047647706E+02  0.13891695398E+03 -0.54284927682E+02  0.15399508749E+03  0.47000000000E+01 0. -1.
         -5    1    3    3    0  501 -0.91220128652E+01  0.21849993197E+02  0.45902789497E+02  0.51863179665E+02  0.47000000000E+01 0. -1.
          5    1    4    4  502    0 -0.75786892915E+01  0.15224064685E+02 -0.56205516131E+01  0.18517269705E+02  0.47000000000E+01 0.  1.
         -5    1    4    4    0  502 -0.21346945549E+02 -0.17599101186E+03  0.15724199883E+03  0.23701405978E+03  0.47000000000E+01 0.  1.
<mgrwt>
<rscale>  0 0.43859191E+03</rscale>
<asrwt>0</asrwt>
<pdfrwt beam="1">  1       21 0.46509916E-01 0.43859191E+03</pdfrwt>
<pdfrwt beam="2">  1       21 0.24473099E-01 0.43859191E+03</pdfrwt>
<totfact> 0.64787424E+04</totfact>
</mgrwt>
</event>
<event>
 8    1  0.9705063E-006  0.3216787E+03  0.7546771E-02  0.1074879E+00
         21   -1    0    0  504  503  0.00000000000E+00  0.00000000000E+00  0.52236533533E+02  0.52236533533E+02  0.00000000000E+00 0. -1.
         21   -1    0    0  503  504 -0.00000000000E+00 -0.00000000000E+00 -0.49523388702E+03  0.49523388702E+03  0.00000000000E+00 0. -1.
         25    2    1    2    0    0  0.53501268420E+02  0.84316698177E+02 -0.24961154231E+03  0.29648237156E+03  0.12499673308E+03 0.  0.
         25    2    1    2    0    0 -0.53501268420E+02 -0.84316698177E+02 -0.19338581118E+03  0.25098804899E+03  0.12500094983E+03 0.  0.
          5    1    3    3  501    0  0.13302435619E+02  0.11020985808E+03 -0.15987623302E+03  0.19469377878E+03  0.47000000000E+01 0.  1.
         -5    1    3    3    0  501  0.40198832801E+02 -0.25893159899E+02 -0.89735309286E+02  0.10178859278E+03  0.47000000000E+01 0.  1.
          5    1    4    4  502    0 -0.23483827493E+02  0.46821898481E+01 -0.14148624017E+03  0.14357527368E+03  0.47000000000E+01 0. -1.
         -5    1    4    4    0  502 -0.30017440927E+02 -0.88998888025E+02 -0.51899571018E+02  0.10741277532E+03  0.47000000000E+01 0. -1.
<mgrwt>
<rscale>  0 0.32167873E+03</rscale>
<asrwt>0</asrwt>
<pdfrwt beam="1">  1       21 0.80363899E-02 0.32167873E+03</pdfrwt>
<pdfrwt beam="2">  1       21 0.76189827E-01 0.32167873E+03</pdfrwt>
<totfact> 0.17615184E+05</totfact>
</mgrwt>
</event>
<event>
 8    1  0.9705063E-006  0.2702230E+03  0.7546771E-02  0.1101152E+00
         21   -1    0    0  504  503  0.00000000000E+00  0.00000000000E+00  0.45233914827E+03  0.45233914827E+03  0.00000000000E+00 0. -1.
         21   -1    0    0  503  504 -0.00000000000E+00 -0.00000000000E+00 -0.40357133530E+02  0.40357133530E+02  0.00000000000E+00 0. -1.
         25    2    1    2    0    0  0.15390345234E+02  0.30090331330E+02  0.27620039261E+03  0.30507029323E+03  0.12505573224E+03 0.  0.
         25    2    1    2    0    0 -0.15390345234E+02 -0.30090331330E+02  0.13578162212E+03  0.18762598857E+03  0.12499828764E+03 0.  0.
          5    1    3    3  501    0 -0.51399529901E+02  0.20618914970E+02  0.78957983998E+02  0.96558296203E+02  0.47000000000E+01 0.  1.
         -5    1    3    3    0  501  0.66789875135E+02  0.94714163605E+01  0.19724240861E+03  0.20851199703E+03  0.47000000000E+01 0.  1.
          5    1    4    4  502    0  0.30499434304E+02 -0.28013982387E+02  0.13516543211E+03  0.14144533481E+03  0.47000000000E+01 0.  1.
         -5    1    4    4    0  502 -0.45889779537E+02 -0.20763489430E+01  0.61619001049E+00  0.46180653753E+02  0.47000000000E+01 0.  1.
<mgrwt>
<rscale>  0 0.27022296E+03</rscale>
<asrwt>0</asrwt>
<pdfrwt beam="1">  1       21 0.69590635E-01 0.27022296E+03</pdfrwt>
<pdfrwt beam="2">  1       21 0.62087901E-02 0.27022296E+03</pdfrwt>
<totfact> 0.34250146E+05</totfact>
</mgrwt>
</event>
<event>
 8    1  0.9705063E-006  0.2651811E+03  0.7546771E-02  0.1104070E+00
         21   -1    0    0  504  503  0.00000000000E+00  0.00000000000E+00  0.24658736230E+02  0.24658736230E+02  0.00000000000E+00 0. -1.
         21   -1    0    0  503  504 -0.00000000000E+00 -0.00000000000E+00 -0.71294245451E+03  0.71294245451E+03  0.00000000000E+00 0. -1.
         25    2    1    2    0    0 -0.36016724968E+02 -0.22637693484E+02 -0.31039077315E+03  0.33730565770E+03  0.12499201981E+03 0.  0.
         25    2    1    2    0    0  0.36016724968E+02  0.22637693484E+02 -0.37789294512E+03  0.40029553304E+03  0.12499506450E+03 0.  0.
          5    1    3    3  501    0  0.47691012843E+01 -0.14379387158E+02  0.68751229212E+01  0.17287811234E+02  0.47000000000E+01 0. -1.
         -5    1    3    3    0  501 -0.40785826252E+02 -0.82583063265E+01 -0.31726589607E+03  0.32001784647E+03  0.47000000000E+01 0. -1.
          5    1    4    4  502    0  0.23976456960E+02  0.57661963240E+02 -0.34469261159E+03  0.35033535217E+03  0.47000000000E+01 0. -1.
         -5    1    4    4    0  502  0.12040268008E+02 -0.35024269756E+02 -0.33200333533E+02  0.49960180868E+02  0.47000000000E+01 0. -1.
<mgrwt>
<rscale>  0 0.26518115E+03</rscale>
<asrwt>0</asrwt>
<pdfrwt beam="1">  1       21 0.37936513E-02 0.26518115E+03</pdfrwt>
<pdfrwt beam="2">  1       21 0.10968347E+00 0.26518115E+03</pdfrwt>
<totfact> 0.27561994E+05</totfact>
</mgrwt>
</event>
<event>
 8    1  0.9705063E-006  0.3232550E+03  0.7546771E-02  0.1074161E+00
         21   -1    0    0  504  503  0.00000000000E+00  0.00000000000E+00  0.38937122547E+03  0.38937122547E+03  0.00000000000E+00 0.  1.
         21   -1    0    0  503  504 -0.00000000000E+00 -0.00000000000E+00 -0.67091363479E+02  0.67091363479E+02  0.00000000000E+00 0.  1.
         25    2    1    2    0    0 -0.47571106400E+02  0.90182238524E+02  0.14674492903E+03  0.21806629146E+03  0.12499194760E+03 0.  0.
         25    2    1    2    0    0  0.47571106400E+02 -0.90182238524E+02  0.17553493296E+03  0.23839629749E+03  0.12499774261E+03 0.  0.
          5    1    3    3  501    0 -0.44978960595E+02  0.76913379229E+01 -0.40992727709E+01  0.46056026886E+02  0.47000000000E+01 0.  1.
         -5    1    3    3    0  501 -0.25921458046E+01  0.82490900601E+02  0.15084420180E+03  0.17201026457E+03  0.47000000000E+01 0.  1.
          5    1    4    4  502    0  0.85437913268E+02 -0.39173682712E+02  0.12820164204E+03  0.15903447885E+03  0.47000000000E+01 0.  1.
         -5    1    4    4    0  502 -0.37866806869E+02 -0.51008555812E+02  0.47333290920E+02  0.79361818640E+02  0.47000000000E+01 0.  1.
<mgrwt>
<rscale>  0 0.32325499E+03</rscale>
<asrwt>0</asrwt>
<pdfrwt beam="1">  1       21 0.59903264E-01 0.32325499E+03</pdfrwt>
<pdfrwt beam="2">  1       21 0.10321749E-01 0.32325499E+03</pdfrwt>
<totfact> 0.19260748E+05</totfact>
</mgrwt>
</event>
<event>
 8    1  0.9705063E-006  0.4737502E+03  0.7546771E-02  0.1020867E+00
         21   -1    0    0  504  503  0.00000000000E+00  0.00000000000E+00  0.35004239018E+02  0.35004239018E+02  0.00000000000E+00 0.  1.
         21   -1    0    0  503  504 -0.00000000000E+00 -0.00000000000E+00 -0.16029435635E+04  0.16029435635E+04  0.00000000000E+00 0.  1.
         25    2    1    2    0    0 -0.11628366156E+02  0.51114749170E+02 -0.14555953733E+04  0.14618928971E+04  0.12500006068E+03 0.  0.
         25    2    1    2    0    0  0.11628366156E+02 -0.51114749170E+02 -0.11234395115E+03  0.17605490544E+03  0.12500491946E+03 0.  0.
          5    1    3    3  501    0 -0.28723734887E+02 -0.27513420317E+02 -0.85183599317E+03  0.85277704619E+03  0.47000000000E+01 0.  1.
         -5    1    3    3    0  501  0.17095368730E+02  0.78628169487E+02 -0.60375938014E+03  0.60911585087E+03  0.47000000000E+01 0.  1.
          5    1    4    4  502    0 -0.32531766218E+02  0.28986543001E+02 -0.32681959705E+02  0.54669333072E+02  0.47000000000E+01 0.  1.
         -5    1    4    4    0  502  0.44160132374E+02 -0.80101292171E+02 -0.79661991442E+02  0.12138557237E+03  0.47000000000E+01 0.  1.
<mgrwt>
<rscale>  0 0.47375023E+03</rscale>
<asrwt>0</asrwt>
<pdfrwt beam="1">  1       21 0.53852679E-02 0.47375023E+03</pdfrwt>
<pdfrwt beam="2">  1       21 0.24660668E+00 0.47375023E+03</pdfrwt>
<totfact> 0.14123444E+04</totfact>
</mgrwt>
</event>
<event>
 8    1  0.9705063E-006  0.4813346E+03  0.7546771E-02  0.1018769E+00
         21   -1    0    0  504  503  0.00000000000E+00  0.00000000000E+00  0.22962479550E+04  0.22962479550E+04  0.00000000000E+00 0. -1.
         21   -1    0    0  503  504 -0.00000000000E+00 -0.00000000000E+00 -0.25224087298E+02  0.25224087298E+02  0.00000000000E+00 0. -1.
         25    2    1    2    0    0  0.39144479746E+02  0.18694529335E+03  0.76789269121E+03  0.80110749218E+03  0.12503277898E+03 0.  0.
         25    2    1    2    0    0 -0.39144479746E+02 -0.18694529335E+03  0.15031311765E+04  0.15203645502E+04  0.12499679399E+03 0.  0.
          5    1    3    3  501    0 -0.41578154203E+02  0.37267036545E+02  0.24112674516E+03  0.24755155453E+03  0.47000000000E+01 0. -1.
         -5    1    3    3    0  501  0.80722633949E+02  0.14967825680E+03  0.52676594605E+03  0.55355593765E+03  0.47000000000E+01 0. -1.
          5    1    4    4  502    0 -0.18601609844E+01 -0.13961655461E+02  0.12938386040E+02  0.19694665659E+02  0.47000000000E+01 0. -1.
         -5    1    4    4    0  502 -0.37284318762E+02 -0.17298363789E+03  0.14901927905E+04  0.15006698845E+04  0.47000000000E+01 0. -1.
<mgrwt>
<rscale>  0 0.48133464E+03</rscale>
<asrwt>0</asrwt>
<pdfrwt beam="1">  1       21 0.35326875E+00 0.48133464E+03</pdfrwt>
<pdfrwt beam="2">  1       21 0.38806306E-02 0.48133464E+03</pdfrwt>
<totfact> 0.55601648E+03</totfact>
</mgrwt>
</event>
<event>
 8    1  0.9705063E-006  0.2596127E+03  0.7546771E-02  0.1107376E+00
         21   -1    0    0  504  503  0.00000000000E+00  0.00000000000E+00  0.26287798892E+02  0.26287798892E+02  0.00000000000E+00 0. -1.
         21   -1    0    0  503  504 -0.00000000000E+00 -0.00000000000E+00 -0.64097007031E+03  0.64097007031E+03  0.00000000000E+00 0. -1.
         25    2    1    2    0    0 -0.11459236036E+02  0.32651927001E+02 -0.32077223738E+03  0.34600300975E+03  0.12500316817E+03 0.  0.
         25    2    1    2    0    0  0.11459236036E+02 -0.32651927001E+02 -0.29391003404E+03  0.32125485945E+03  0.12499645670E+03 0.  0.
          5    1    3    3  501    0  0.12204026188E+02 -0.36711019678E+02 -0.20665493559E+03  0.21029738378E+03  0.47000000000E+01 0.  1.
         -5    1    3    3    0  501 -0.23663262224E+02  0.69362946680E+02 -0.11411730179E+03  0.13570562596E+03  0.47000000000E+01 0.  1.
          5    1    4    4  502    0 -0.45341741189E+02  0.16834969229E+02 -0.72044381687E+02  0.86900935643E+02  0.47000000000E+01 0.  1.
         -5    1    4    4    0  502  0.56800977225E+02 -0.49486896231E+02 -0.22186565235E+03  0.23435392381E+03  0.47000000000E+01 0.  1.
<mgrwt>
<rscale>  0 0.25961273E+03</rscale>
<asrwt>0</asrwt>
<pdfrwt beam="1">  1       21 0.40442767E-02 0.25961273E+03</pdfrwt>
<pdfrwt beam="2">  1       21 0.98610780E-01 0.25961273E+03</pdfrwt>
<totfact> 0.32047751E+05</totfact>
</mgrwt>
</event>
<event>
 8    1  0.9705063E-006  0.2784111E+03  0.7546771E-02  0.1096560E+00
         21   -1    0    0  504  503  0.00000000000E+00  0.00000000000E+00  0.42856411820E+03  0.42856411820E+03  0.00000000000E+00 0.  1.
         21   -1    0    0  503  504 -0.00000000000E+00 -0.00000000000E+00 -0.45216537608E+02  0.45216537608E+02  0.00000000000E+00 0.  1.
         25    2    1    2    0    0 -0.14833155309E+02 -0.13742478762E+02  0.93275092486E+02  0.15727437107E+03  0.12500442672E+03 0.  0.
         25    2    1    2    0    0  0.14833155309E+02  0.13742478762E+02  0.29007248811E+03  0.31650628474E+03  0.12500120680E+03 0.  0.
          5    1    3    3  501    0 -0.22491890885E+02  0.66360674933E+01  0.12007175139E+03  0.12243054369E+03  0.47000000000E+01 0.  1.
         -5    1    3    3    0  501  0.76587355765E+01 -0.20378546255E+02 -0.26796658904E+02  0.34843827380E+02  0.47000000000E+01 0.  1.
          5    1    4    4  502    0  0.23113639175E+02 -0.19957661537E+02  0.75296174915E+01  0.31801473386E+02  0.47000000000E+01 0. -1.
         -5    1    4    4    0  502 -0.82804838659E+01  0.33700140299E+02  0.28254287062E+03  0.28470481135E+03  0.47000000000E+01 0. -1.
<mgrwt>
<rscale>  0 0.27841110E+03</rscale>
<asrwt>0</asrwt>
<pdfrwt beam="1">  1       21 0.65932938E-01 0.27841110E+03</pdfrwt>
<pdfrwt beam="2">  1       21 0.69563907E-02 0.27841110E+03</pdfrwt>
<totfact> 0.31632804E+05</totfact>
</mgrwt>
</event>
<event>
 8    1  0.9705063E-006  0.2615158E+03  0.7546771E-02  0.1106236E+00
         21   -1    0    0  504  503  0.00000000000E+00  0.00000000000E+00  0.45721863465E+02  0.45721863465E+02  0.00000000000E+00 0.  1.
         21   -1    0    0  503  504 -0.00000000000E+00 -0.00000000000E+00 -0.37394859526E+03  0.37394859526E+03  0.00000000000E+00 0.  1.
         25    2    1    2    0    0  0.42046190303E+01  0.31929133740E+02 -0.19758550562E+03  0.23601086180E+03  0.12499578574E+03 0.  0.
         25    2    1    2    0    0 -0.42046190303E+01 -0.31929133740E+02 -0.13064122617E+03  0.18365959693E+03  0.12500627650E+03 0.  0.
          5    1    3    3  501    0 -0.18167676428E+02  0.14644432820E+02 -0.20502441401E+03  0.20640160906E+03  0.47000000000E+01 0. -1.
         -5    1    3    3    0  501  0.22372295459E+02  0.17284700920E+02  0.74389083913E+01  0.29609252743E+02  0.47000000000E+01 0. -1.
          5    1    4    4  502    0  0.26288480143E+01 -0.76886746043E+02 -0.10789628288E+03  0.13259781453E+03  0.47000000000E+01 0.  1.
         -5    1    4    4    0  502 -0.68334670446E+01  0.44957612303E+02 -0.22744943290E+02  0.51061782392E+02  0.47000000000E+01 0.  1.
<mgrwt>
<rscale>  0 0.26151579E+03</rscale>
<asrwt>0</asrwt>
<pdfrwt beam="1">  1       21 0.70341328E-02 0.26151579E+03</pdfrwt>
<pdfrwt beam="2">  1       21 0.57530554E-01 0.26151579E+03</pdfrwt>
<totfact> 0.41882167E+05</totfact>
</mgrwt>
</event>
<event>
 8    1  0.9705063E-006  0.4232324E+03  0.7546771E-02  0.1036019E+00
         21   -1    0    0  504  503  0.00000000000E+00  0.00000000000E+00  0.28430545504E+03  0.28430545504E+03  0.00000000000E+00 0.  1.
         21   -1    0    0  503  504 -0.00000000000E+00 -0.00000000000E+00 -0.15751159983E+03  0.15751159983E+03  0.00000000000E+00 0.  1.
         25    2    1    2    0    0  0.11406608700E+03  0.37838522696E+02 -0.63230916383E+02  0.18456804329E+03  0.12499755123E+03 0.  0.
         25    2    1    2    0    0 -0.11406608700E+03 -0.37838522696E+02  0.19002477160E+03  0.25724901158E+03  0.12499925655E+03 0.  0.
          5    1    3    3  501    0  0.10217820133E+03 -0.28137187870E+02 -0.41911638033E+02  0.11406472536E+03  0.47000000000E+01 0.  1.
         -5    1    3    3    0  501  0.11887885674E+02  0.65975710566E+02 -0.21319278350E+02  0.70503317935E+02  0.47000000000E+01 0.  1.
          5    1    4    4  502    0 -0.30664845109E+01 -0.59493884428E+02  0.74644264604E+02  0.95617895029E+02  0.47000000000E+01 0. -1.
         -5    1    4    4    0  502 -0.11099960249E+03  0.21655361731E+02  0.11538050699E+03  0.16163111656E+03  0.47000000000E+01 0. -1.
<mgrwt>
<rscale>  0 0.42323236E+03</rscale>
<asrwt>0</asrwt>
<pdfrwt beam="1">  1       21 0.43739301E-01 0.42323236E+03</pdfrwt>
<pdfrwt beam="2">  1       21 0.24232554E-01 0.42323236E+03</pdfrwt>
<totfact> 0.75343773E+04</totfact>
</mgrwt>
</event>
<event>
 8    1  0.9705063E-006  0.4623096E+03  0.7546771E-02  0.1024113E+00
         21   -1    0    0  504  503  0.00000000000E+00  0.00000000000E+00  0.31435417115E+03  0.31435417115E+03  0.00000000000E+00 0.  1.
         21   -1    0    0  503  504 -0.00000000000E+00 -0.00000000000E+00 -0.16997560761E+03  0.16997560761E+03  0.00000000000E+00 0.  1.
         25    2    1    2    0    0 -0.18930234008E+03 -0.18597734586E+02  0.11446108382E+03  0.25476227732E+03  0.12498490528E+03 0.  0.
         25    2    1    2    0    0  0.18930234008E+03  0.18597734586E+02  0.29917479715E+02  0.22956750144E+03  0.12499972174E+03 0.  0.
          5    1    3    3  501    0 -0.11302501771E+03  0.23919379269E+02  0.12062717768E+03  0.16709218213E+03  0.47000000000E+01 0.  1.
         -5    1    3    3    0  501 -0.76277322361E+02 -0.42517113855E+02 -0.61660938650E+01  0.87670095190E+02  0.47000000000E+01 0.  1.
          5    1    4    4  502    0  0.11243181608E+03 -0.18546356979E+02  0.71377188314E+02  0.13454246035E+03  0.47000000000E+01 0.  1.
         -5    1    4    4    0  502  0.76870523991E+02  0.37144091565E+02 -0.41459708599E+02  0.95025041089E+02  0.47000000000E+01 0.  1.
<mgrwt>
<rscale>  0 0.46230960E+03</rscale>
<asrwt>0</asrwt>
<pdfrwt beam="1">  1       21 0.48362180E-01 0.46230960E+03</pdfrwt>
<pdfrwt beam="2">  1       21 0.26150094E-01 0.46230960E+03</pdfrwt>
<totfact> 0.52174249E+04</totfact>
</mgrwt>
</event>
<event>
 8    1  0.9705063E-006  0.2775186E+03  0.7546771E-02  0.1097052E+00
         21   -1    0    0  504  503  0.00000000000E+00  0.00000000000E+00  0.19010771833E+03  0.19010771833E+03  0.00000000000E+00 0.  1.
         21   -1    0    0  503  504 -0.00000000000E+00 -0.00000000000E+00 -0.10128019991E+03  0.10128019991E+03  0.00000000000E+00 0.  1.
         25    2    1    2    0    0 -0.66256908460E+01 -0.41235329615E+02  0.89995256734E+02  0.15958656384E+03  0.12499789173E+03 0.  0.
         25    2    1    2    0    0  0.66256908460E+01  0.41235329615E+02 -0.11677383202E+01  0.13180135440E+03  0.12500392483E+03 0.  0.
          5    1    3    3  501    0 -0.20728317173E+02 -0.74671907868E+02  0.19328301246E+02  0.80007688297E+02  0.47000000000E+01 0. -1.
         -5    1    3    3    0  501  0.14102626327E+02  0.33436578254E+02  0.70666955488E+02  0.79578875542E+02  0.47000000000E+01 0. -1.
          5    1    4    4  502    0  0.62456245619E+02  0.35912372989E+02  0.13933249256E+02  0.73530310657E+02  0.47000000000E+01 0.  1.
         -5    1    4    4    0  502 -0.55830554773E+02  0.53229566255E+01 -0.15100987577E+02  0.58271043746E+02  0.47000000000E+01 0.  1.
<mgrwt>
<rscale>  0 0.27751863E+03</rscale>
<asrwt>0</asrwt>
<pdfrwt beam="1">  1       21 0.29247341E-01 0.27751863E+03</pdfrwt>
<pdfrwt beam="2">  1       21 0.15581569E-01 0.27751863E+03</pdfrwt>
<totfact> 0.40256892E+05</totfact>
</mgrwt>
</event>
<event>
 8    1  0.9705063E-006  0.2954038E+03  0.7546771E-02  0.1087561E+00
         21   -1    0    0  504  503  0.00000000000E+00  0.00000000000E+00  0.47387900558E+03  0.47387900558E+03  0.00000000000E+00 0. -1.
         21   -1    0    0  503  504 -0.00000000000E+00 -0.00000000000E+00 -0.46036739622E+02  0.46036739622E+02  0.00000000000E+00 0. -1.
         25    2    1    2    0    0 -0.74616316598E+02 -0.23453559536E+02  0.22899688245E+03  0.27236382113E+03  0.12499925892E+03 0.  0.
         25    2    1    2    0    0  0.74616316598E+02  0.23453559536E+02  0.19884538350E+03  0.24755192407E+03  0.12499921765E+03 0.  0.
          5    1    3    3  501    0 -0.69616315134E+02  0.30412243028E+02  0.66632588527E+02  0.10115991159E+03  0.47000000000E+01 0. -1.
         -5    1    3    3    0  501 -0.50000014642E+01 -0.53865802564E+02  0.16236429393E+03  0.17120390954E+03  0.47000000000E+01 0. -1.
          5    1    4    4  502    0  0.23754332989E+02 -0.37308039102E+02  0.14491216369E+03  0.15158424490E+03  0.47000000000E+01 0.  1.
         -5    1    4    4    0  502  0.50861983608E+02  0.60761598638E+02  0.53933219817E+02  0.95967679171E+02  0.47000000000E+01 0.  1.
<mgrwt>
<rscale>  0 0.29540375E+03</rscale>
<asrwt>0</asrwt>
<pdfrwt beam="1">  1       21 0.72904459E-01 0.29540375E+03</pdfrwt>
<pdfrwt beam="2">  1       21 0.70825757E-02 0.29540375E+03</pdfrwt>
<totfact> 0.24425763E+05</totfact>
</mgrwt>
</event>
<event>
 8    1  0.9705063E-006  0.2593778E+03  0.7546771E-02  0.1107518E+00
         21   -1    0    0  504  503  0.00000000000E+00  0.00000000000E+00  0.68965101258E+02  0.68965101258E+02  0.00000000000E+00 0. -1.
         21   -1    0    0  503  504 -0.00000000000E+00 -0.00000000000E+00 -0.24388010071E+03  0.24388010071E+03  0.00000000000E+00 0. -1.
         25    2    1    2    0    0 -0.21928362713E+02  0.21290460607E+02 -0.10702858868E+03  0.16735633828E+03  0.12497555107E+03 0.  0.
         25    2    1    2    0    0  0.21928362713E+02 -0.21290460607E+02 -0.67886410777E+02  0.14548886369E+03  0.12499723151E+03 0.  0.
          5    1    3    3  501    0 -0.34849746292E+02 -0.44459435023E+02 -0.26745003274E+02  0.62677997569E+02  0.47000000000E+01 0.  1.
         -5    1    3    3    0  501  0.12921383579E+02  0.65749895629E+02 -0.80283585401E+02  0.10467834071E+03  0.47000000000E+01 0.  1.
          5    1    4    4  502    0  0.61706199372E+02  0.53970496980E+01 -0.74394793126E+02  0.96919855709E+02  0.47000000000E+01 0. -1.
         -5    1    4    4    0  502 -0.39777836659E+02 -0.26687510305E+02  0.65083823485E+01  0.48569007982E+02  0.47000000000E+01 0. -1.
<mgrwt>
<rscale>  0 0.25937784E+03</rscale>
<asrwt>0</asrwt>
<pdfrwt beam="1">  1       21 0.10610016E-01 0.25937784E+03</pdfrwt>
<pdfrwt beam="2">  1       21 0.37520015E-01 0.25937784E+03</pdfrwt>
<totfact> 0.49405044E+05</totfact>
</mgrwt>
</event>
<event>
 8    1  0.9705063E-006  0.2793847E+03  0.7546771E-02  0.1096025E+00
         21   -1    0    0  504  503  0.00000000000E+00  0.00000000000E+00  0.37222189485E+03  0.37222189485E+03  0.00000000000E+00 0.  1.
         21   -1    0    0  503  504 -0.00000000000E+00 -0.00000000000E+00 -0.52425608272E+02  0.52425608272E+02  0.00000000000E+00 0.  1.
         25    2    1    2    0    0 -0.41948035028E+02  0.54252620936E+01  0.22952373653E+03  0.26476378248E+03  0.12501857369E+03 0.  0.
         25    2    1    2    0    0  0.41948035028E+02 -0.54252620936E+01  0.90272550049E+02  0.15988372065E+03  0.12499839889E+03 0.  0.
          5    1    3    3  501    0  0.22548527641E+02 -0.44013772849E+02  0.10236819997E+03  0.11378482616E+03  0.47000000000E+01 0. -1.
         -5    1    3    3    0  501 -0.64496562669E+02  0.49439034943E+02  0.12715553656E+03  0.15097895632E+03  0.47000000000E+01 0. -1.
          5    1    4    4  502    0 -0.40113408791E+02  0.20720895137E+02  0.25956175588E+02  0.52290095728E+02  0.47000000000E+01 0. -1.
         -5    1    4    4    0  502  0.82061443819E+02 -0.26146157230E+02  0.64316374461E+02  0.10759362492E+03  0.47000000000E+01 0. -1.
<mgrwt>
<rscale>  0 0.27938475E+03</rscale>
<asrwt>0</asrwt>
<pdfrwt beam="1">  1       21 0.57264905E-01 0.27938475E+03</pdfrwt>
<pdfrwt beam="2">  1       21 0.80654784E-02 0.27938475E+03</pdfrwt>
<totfact> 0.33185731E+05</totfact>
</mgrwt>
</event>
<event>
 8    1  0.9705063E-006  0.2609541E+03  0.7546771E-02  0.1106571E+00
         21   -1    0    0  504  503  0.00000000000E+00  0.00000000000E+00  0.13367424538E+02  0.13367424538E+02  0.00000000000E+00 0. -1.
         21   -1    0    0  503  504 -0.00000000000E+00 -0.00000000000E+00 -0.12735636098E+04  0.12735636098E+04  0.00000000000E+00 0. -1.
         25    2    1    2    0    0 -0.36742656694E+02  0.67427389847E+01 -0.62049571631E+03  0.63406173897E+03  0.12499546999E+03 0.  0.
         25    2    1    2    0    0  0.36742656694E+02 -0.67427389847E+01 -0.63970046895E+03  0.65286929536E+03  0.12500455794E+03 0.  0.
          5    1    3    3  501    0  0.24424569244E+01 -0.37321429630E+02 -0.62851856905E+02  0.73289157601E+02  0.47000000000E+01 0.  1.
         -5    1    3    3    0  501 -0.39185113619E+02  0.44064168615E+02 -0.55764385941E+03  0.56077258137E+03  0.47000000000E+01 0.  1.
          5    1    4    4  502    0 -0.30974465812E+02  0.34499901260E+02 -0.32381475460E+03  0.32715095295E+03  0.47000000000E+01 0. -1.
         -5    1    4    4    0  502  0.67717122506E+02 -0.41242640245E+02 -0.31588571435E+03  0.32571834241E+03  0.47000000000E+01 0. -1.
<mgrwt>
<rscale>  0 0.26095414E+03</rscale>
<asrwt>0</asrwt>
<pdfrwt beam="1">  1       21 0.20565270E-02 0.26095414E+03</pdfrwt>
<pdfrwt beam="2">  1       21 0.19593285E+00 0.26095414E+03</pdfrwt>
<totfact> 0.16253164E+05</totfact>
</mgrwt>
</event>
<event>
 8    1  0.9705063E-006  0.3089038E+03  0.7546771E-02  0.1080873E+00
         21   -1    0    0  504  503  0.00000000000E+00  0.00000000000E+00  0.58719126773E+03  0.58719126773E+03  0.00000000000E+00 0. -1.
         21   -1    0    0  503  504 -0.00000000000E+00 -0.00000000000E+00 -0.40626264038E+02  0.40626264038E+02  0.00000000000E+00 0. -1.
         25    2    1    2    0    0  0.22026664835E+02 -0.25491898769E+02  0.44449679883E+03  0.46296570796E+03  0.12499932684E+03 0.  0.
         25    2    1    2    0    0 -0.22026664835E+02  0.25491898769E+02  0.10206820486E+03  0.16485182381E+03  0.12499277780E+03 0.  0.
          5    1    3    3  501    0  0.16711217903E+02  0.49873940517E+02  0.21081960244E+03  0.21733308427E+03  0.47000000000E+01 0.  1.
         -5    1    3    3    0  501  0.53154469322E+01 -0.75365839287E+02  0.23367719639E+03  0.24563262369E+03  0.47000000000E+01 0.  1.
          5    1    4    4  502    0 -0.15192211052E+01  0.36128942130E+02  0.12605249093E+03  0.13122091663E+03  0.47000000000E+01 0. -1.
         -5    1    4    4    0  502 -0.20507443730E+02 -0.10637043361E+02 -0.23984286062E+02  0.33630907179E+02  0.47000000000E+01 0. -1.
<mgrwt>
<rscale>  0 0.30890379E+03</rscale>
<asrwt>0</asrwt>
<pdfrwt beam="1">  1       21 0.90337112E-01 0.30890379E+03</pdfrwt>
<pdfrwt beam="2">  1       21 0.62501949E-02 0.30890379E+03</pdfrwt>
<totfact> 0.18502950E+05</totfact>
</mgrwt>
</event>
<event>
 8    1  0.9705063E-006  0.4525858E+03  0.7546771E-02  0.1026954E+00
         21   -1    0    0  504  503  0.00000000000E+00  0.00000000000E+00  0.19456093763E+03  0.19456093763E+03  0.00000000000E+00 0. -1.
         21   -1    0    0  503  504 -0.00000000000E+00 -0.00000000000E+00 -0.26320013858E+03  0.26320013858E+03  0.00000000000E+00 0. -1.
         25    2    1    2    0    0 -0.16073673786E+03 -0.45001164309E+02 -0.12319730374E+03  0.24220656447E+03  0.12500016215E+03 0.  0.
         25    2    1    2    0    0  0.16073673786E+03  0.45001164309E+02  0.54558102799E+02  0.21555451174E+03  0.12500302902E+03 0.  0.
          5    1    3    3  501    0 -0.96475068199E+02 -0.10616994480E+02 -0.13691801704E+03  0.16789518381E+03  0.47000000000E+01 0.  1.
         -5    1    3    3    0  501 -0.64261669659E+02 -0.34384169830E+02  0.13720713299E+02  0.74311380660E+02  0.47000000000E+01 0.  1.
          5    1    4    4  502    0  0.98956389216E+02 -0.36922028767E+02  0.24395579711E+02  0.10850270727E+03  0.47000000000E+01 0. -1.
         -5    1    4    4    0  502  0.61780348641E+02  0.81923193076E+02  0.30162523088E+02  0.10705180447E+03  0.47000000000E+01 0. -1.
<mgrwt>
<rscale>  0 0.45258575E+03</rscale>
<asrwt>0</asrwt>
<pdfrwt beam="1">  1       21 0.29932452E-01 0.45258575E+03</pdfrwt>
<pdfrwt beam="2">  1       21 0.40492329E-01 0.45258575E+03</pdfrwt>
<totfact> 0.58067934E+04</totfact>
</mgrwt>
</event>
<event>
 8    1  0.9705063E-006  0.3384545E+03  0.7546771E-02  0.1067456E+00
         21   -1    0    0  504  503  0.00000000000E+00  0.00000000000E+00  0.22772175467E+03  0.22772175467E+03  0.00000000000E+00 0.  1.
         21   -1    0    0  503  504 -0.00000000000E+00 -0.00000000000E+00 -0.12575813570E+03  0.12575813570E+03  0.00000000000E+00 0.  1.
         25    2    1    2    0    0 -0.10149026151E+03  0.51932550235E+02  0.55027224005E+02  0.17790730411E+03  0.12500300204E+03 0.  0.
         25    2    1    2    0    0  0.10149026151E+03 -0.51932550235E+02  0.46936394969E+02  0.17557258627E+03  0.12500177967E+03 0.  0.
          5    1    3    3  501    0 -0.82804903341E+02  0.65836120657E+02 -0.12211599770E+02  0.10659390212E+03  0.47000000000E+01 0.  1.
         -5    1    3    3    0  501 -0.18685358167E+02 -0.13903570422E+02  0.67238823775E+02  0.71313401987E+02  0.47000000000E+01 0.  1.
          5    1    4    4  502    0  0.33720362359E+02 -0.71516213295E+02  0.65157380812E+02  0.10256317992E+03  0.47000000000E+01 0.  1.
         -5    1    4    4    0  502  0.67769899149E+02  0.19583663060E+02 -0.18220985844E+02  0.73009406344E+02  0.47000000000E+01 0.  1.
<mgrwt>
<rscale>  0 0.33845451E+03</rscale>
<asrwt>0</asrwt>
<pdfrwt beam="1">  1       21 0.35034116E-01 0.33845451E+03</pdfrwt>
<pdfrwt beam="2">  1       21 0.19347405E-01 0.33845451E+03</pdfrwt>
<totfact> 0.18571441E+05</totfact>
</mgrwt>
</event>
<event>
 8    1  0.9705063E-006  0.3154962E+03  0.7546771E-02  0.1077741E+00
         21   -1    0    0  504  503  0.00000000000E+00  0.00000000000E+00  0.49288140022E+03  0.49288140022E+03  0.00000000000E+00 0.  1.
         21   -1    0    0  503  504 -0.00000000000E+00 -0.00000000000E+00 -0.50487723147E+02  0.50487723147E+02  0.00000000000E+00 0.  1.
         25    2    1    2    0    0 -0.48463620019E+02 -0.26709339146E+02  0.85612925232E+02  0.16129625770E+03  0.12499919407E+03 0.  0.
         25    2    1    2    0    0  0.48463620019E+02  0.26709339146E+02  0.35678075184E+03  0.38207286567E+03  0.12500023414E+03 0.  0.
          5    1    3    3  501    0  0.75056676115E+01 -0.38783127088E+02  0.95084893159E+02  0.10307130008E+03  0.47000000000E+01 0.  1.
         -5    1    3    3    0  501 -0.55969287631E+02  0.12073787942E+02 -0.94719679267E+01  0.58224957617E+02  0.47000000000E+01 0.  1.
          5    1    4    4  502    0  0.61594129316E+02 -0.73399000436E+01  0.33184327433E+03  0.33762369528E+03  0.47000000000E+01 0.  1.
         -5    1    4    4    0  502 -0.13130509297E+02  0.34049239190E+02  0.24937477518E+02  0.44449170394E+02  0.47000000000E+01 0.  1.
<mgrwt>
<rscale>  0 0.31549618E+03</rscale>
<asrwt>0</asrwt>
<pdfrwt beam="1">  1       21 0.75827905E-01 0.31549618E+03</pdfrwt>
<pdfrwt beam="2">  1       21 0.77673423E-02 0.31549618E+03</pdfrwt>
<totfact> 0.18932058E+05</totfact>
</mgrwt>
</event>
<event>
 8    1  0.9705063E-006  0.3038991E+03  0.7546771E-02  0.1083308E+00
         21   -1    0    0  504  503  0.00000000000E+00  0.00000000000E+00  0.19354483676E+02  0.19354483676E+02  0.00000000000E+00 0. -1.
         21   -1    0    0  503  504 -0.00000000000E+00 -0.00000000000E+00 -0.11929359681E+04  0.11929359681E+04  0.00000000000E+00 0. -1.
         25    2    1    2    0    0 -0.55243294719E+02 -0.36956717063E+02 -0.36661986715E+03  0.39300480337E+03  0.12500011172E+03 0.  0.
         25    2    1    2    0    0  0.55243294719E+02  0.36956717063E+02 -0.80696161725E+03  0.81928564839E+03  0.12499720555E+03 0.  0.
          5    1    3    3  501    0  0.14214548549E+02 -0.49931204181E+02 -0.65714616923E+02  0.83878956948E+02  0.47000000000E+01 0. -1.
         -5    1    3    3    0  501 -0.69457843268E+02  0.12974487117E+02 -0.30090525023E+03  0.30912584642E+03  0.47000000000E+01 0. -1.
          5    1    4    4  502    0  0.54247849836E+02  0.31045469311E+02 -0.80898069477E+03  0.81140526550E+03  0.47000000000E+01 0.  1.
         -5    1    4    4    0  502  0.99544488348E+00  0.59112477527E+01  0.20190775149E+01  0.78803828918E+01  0.47000000000E+01 0.  1.
<mgrwt>
<rscale>  0 0.30389906E+03</rscale>
<asrwt>0</asrwt>
<pdfrwt beam="1">  1       21 0.29776133E-02 0.30389906E+03</pdfrwt>
<pdfrwt beam="2">  1       21 0.18352858E+00 0.30389906E+03</pdfrwt>
<totfact> 0.10498728E+05</totfact>
</mgrwt>
</event>
<event>
 8    1  0.9705063E-006  0.3748739E+03  0.7546771E-02  0.1052845E+00
         21   -1    0    0  504  503  0.00000000000E+00  0.00000000000E+00  0.23274293530E+03  0.23274293530E+03  0.00000000000E+00 0.  1.
         21   -1    0    0  503  504 -0.00000000000E+00 -0.00000000000E+00 -0.15095029935E+03  0.15095029935E+03  0.00000000000E+00 0.  1.
         25    2    1    2    0    0 -0.85963792888E+02 -0.67893931888E+02  0.12957186676E+03  0.21074480743E+03  0.12500058212E+03 0.  0.
         25    2    1    2    0    0  0.85963792888E+02  0.67893931888E+02 -0.47779230811E+02  0.17294842721E+03  0.12501577462E+03 0.  0.
          5    1    3    3  501    0 -0.86640428261E+02 -0.10077352837E+03  0.10428799344E+03  0.16899687395E+03  0.47000000000E+01 0.  1.
         -5    1    3    3    0  501  0.67663537284E+00  0.32879596482E+02  0.25283873316E+02  0.41747933483E+02  0.47000000000E+01 0.  1.
          5    1    4    4  502    0  0.11724068213E+03  0.52748537407E+02 -0.49495029192E+02  0.13783915866E+03  0.47000000000E+01 0. -1.
         -5    1    4    4    0  502 -0.31276889238E+02  0.15145394481E+02  0.17157983810E+01  0.35109268555E+02  0.47000000000E+01 0. -1.
<mgrwt>
<rscale>  0 0.37487393E+03</rscale>
<asrwt>0</asrwt>
<pdfrwt beam="1">  1       21 0.35806605E-01 0.37487393E+03</pdfrwt>
<pdfrwt beam="2">  1       21 0.23223123E-01 0.37487393E+03</pdfrwt>
<totfact> 0.12457655E+05</totfact>
</mgrwt>
</event>
<event>
 8    1  0.9705063E-006  0.2686795E+03  0.7546771E-02  0.1102038E+00
         21   -1    0    0  504  503  0.00000000000E+00  0.00000000000E+00  0.29655919601E+03  0.29655919601E+03  0.00000000000E+00 0. -1.
         21   -1    0    0  503  504 -0.00000000000E+00 -0.00000000000E+00 -0.60855180751E+02  0.60855180751E+02  0.00000000000E+00 0. -1.
         25    2    1    2    0    0 -0.45966003356E+02  0.73866437786E+01  0.13908303505E+03  0.19271021088E+03  0.12500279504E+03 0.  0.
         25    2    1    2    0    0  0.45966003356E+02 -0.73866437786E+01  0.96620980202E+02  0.16470416588E+03  0.12499764986E+03 0.  0.
          5    1    3    3  501    0 -0.84557982138E+02 -0.29691512870E+01  0.59524514816E+02  0.10355735641E+03  0.47000000000E+01 0. -1.
         -5    1    3    3    0  501  0.38591978782E+02  0.10355795066E+02  0.79558520238E+02  0.89152854470E+02  0.47000000000E+01 0. -1.
          5    1    4    4  502    0  0.84750909167E+01  0.10248172641E+02  0.11731115214E+03  0.11815603508E+03  0.47000000000E+01 0. -1.
         -5    1    4    4    0  502  0.37490912439E+02 -0.17634816420E+02 -0.20690171943E+02  0.46548130797E+02  0.47000000000E+01 0. -1.
<mgrwt>
<rscale>  0 0.26867946E+03</rscale>
<asrwt>0</asrwt>
<pdfrwt beam="1">  1       21 0.45624491E-01 0.26867946E+03</pdfrwt>
<pdfrwt beam="2">  1       21 0.93623357E-02 0.26867946E+03</pdfrwt>
<totfact> 0.41300769E+05</totfact>
</mgrwt>
</event>
<event>
 8    1  0.9705063E-006  0.2952187E+03  0.7546771E-02  0.1087655E+00
         21   -1    0    0  504  503  0.00000000000E+00  0.00000000000E+00  0.90156450499E+02  0.90156450499E+02  0.00000000000E+00 0. -1.
         21   -1    0    0  503  504 -0.00000000000E+00 -0.00000000000E+00 -0.24167451064E+03  0.24167451064E+03  0.00000000000E+00 0. -1.
         25    2    1    2    0    0  0.59913329696E+02 -0.50690555981E+02 -0.77991415094E+02  0.16693865071E+03  0.12500685074E+03 0.  0.
         25    2    1    2    0    0 -0.59913329696E+02  0.50690555981E+02 -0.73526645050E+02  0.16489231043E+03  0.12499666782E+03 0.  0.
          5    1    3    3  501    0  0.80015805795E+02 -0.29132789081E+02 -0.98826630474E+02  0.13053750981E+03  0.47000000000E+01 0. -1.
         -5    1    3    3    0  501 -0.20102476099E+02 -0.21557766900E+02  0.20835215380E+02  0.36401140901E+02  0.47000000000E+01 0. -1.
          5    1    4    4  502    0  0.13635982625E+02  0.29650832065E+02 -0.81420046605E+02  0.87843188998E+02  0.47000000000E+01 0. -1.
         -5    1    4    4    0  502 -0.73549312321E+02  0.21039723916E+02  0.78934015545E+01  0.77049121432E+02  0.47000000000E+01 0. -1.
<mgrwt>
<rscale>  0 0.29521867E+03</rscale>
<asrwt>0</asrwt>
<pdfrwt beam="1">  1       21 0.13870223E-01 0.29521867E+03</pdfrwt>
<pdfrwt beam="2">  1       21 0.37180694E-01 0.29521867E+03</pdfrwt>
<totfact> 0.30810748E+05</totfact>
</mgrwt>
</event>
<event>
 8    1  0.9705063E-006  0.2984244E+03  0.7546771E-02  0.1086031E+00
         21   -1    0    0  504  503  0.00000000000E+00  0.00000000000E+00  0.35475595408E+02  0.35475595408E+02  0.00000000000E+00 0.  1.
         21   -1    0    0  503  504 -0.00000000000E+00 -0.00000000000E+00 -0.62759415619E+03  0.62759415619E+03  0.00000000000E+00 0.  1.
         25    2    1    2    0    0 -0.64821747179E+02  0.32729992849E+02 -0.21398152588E+03  0.25823940373E+03  0.12500553940E+03 0.  0.
         25    2    1    2    0    0  0.64821747179E+02 -0.32729992849E+02 -0.37813703491E+03  0.40483034788E+03  0.12500752799E+03 0.  0.
          5    1    3    3  501    0 -0.22162076227E+02 -0.23246667928E+02  0.49294811693E+00  0.32463798150E+02  0.47000000000E+01 0.  1.
         -5    1    3    3    0  501 -0.42659670953E+02  0.55976660778E+02 -0.21447447400E+03  0.22577560558E+03  0.47000000000E+01 0.  1.
          5    1    4    4  502    0  0.53882757653E+02 -0.68446343988E+02 -0.14931271730E+03  0.17292955538E+03  0.47000000000E+01 0.  1.
         -5    1    4    4    0  502  0.10938989527E+02  0.35716351139E+02 -0.22882431761E+03  0.23190079249E+03  0.47000000000E+01 0.  1.
<mgrwt>
<rscale>  0 0.29842437E+03</rscale>
<asrwt>0</asrwt>
<pdfrwt beam="1">  1       21 0.54577844E-02 0.29842437E+03</pdfrwt>
<pdfrwt beam="2">  1       21 0.96552938E-01 0.29842437E+03</pdfrwt>
<totfact> 0.20030214E+05</totfact>
</mgrwt>
</event>
<event>
 8    1  0.9705063E-006  0.4092280E+03  0.7546771E-02  0.1040630E+00
         21   -1    0    0  504  503  0.00000000000E+00  0.00000000000E+00  0.61651013739E+02  0.61651013739E+02  0.00000000000E+00 0.  1.
         21   -1    0    0  503  504 -0.00000000000E+00 -0.00000000000E+00 -0.67909476363E+03  0.67909476363E+03  0.00000000000E+00 0.  1.
         25    2    1    2    0    0 -0.13573416969E+03  0.14846993753E+02 -0.46649094123E+03  0.50188017903E+03  0.12500287118E+03 0.  0.
         25    2    1    2    0    0  0.13573416969E+03 -0.14846993753E+02 -0.15095280866E+03  0.23886559834E+03  0.12500330229E+03 0.  0.
          5    1    3    3  501    0 -0.13595702474E+02 -0.38687133071E+02 -0.19559655950E+03  0.19990408070E+03  0.47000000000E+01 0.  1.
         -5    1    3    3    0  501 -0.12213846722E+03  0.53534126825E+02 -0.27089438173E+03  0.30197609833E+03  0.47000000000E+01 0.  1.
          5    1    4    4  502    0  0.75315472449E+02 -0.55859804602E+02 -0.13422640996E+03  0.16380341050E+03  0.47000000000E+01 0. -1.
         -5    1    4    4    0  502  0.60418697245E+02  0.41012810848E+02 -0.16726398704E+02  0.75062187845E+02  0.47000000000E+01 0. -1.
<mgrwt>
<rscale>  0 0.40922796E+03</rscale>
<asrwt>0</asrwt>
<pdfrwt beam="1">  1       21 0.94847711E-02 0.40922796E+03</pdfrwt>
<pdfrwt beam="2">  1       21 0.10447612E+00 0.40922796E+03</pdfrwt>
<totfact> 0.61137631E+04</totfact>
</mgrwt>
</event>
<event>
 8    1  0.9705063E-006  0.2908642E+03  0.7546771E-02  0.1089899E+00
         21   -1    0    0  504  503  0.00000000000E+00  0.00000000000E+00  0.23910982079E+03  0.23910982079E+03  0.00000000000E+00 0. -1.
         21   -1    0    0  503  504 -0.00000000000E+00 -0.00000000000E+00 -0.88455155302E+02  0.88455155302E+02  0.00000000000E+00 0. -1.
         25    2    1    2    0    0  0.45497608489E+02 -0.45753627347E+02  0.11688998156E+03  0.18289919704E+03  0.12500168678E+03 0.  0.
         25    2    1    2    0    0 -0.45497608489E+02  0.45753627347E+02  0.33764683926E+02  0.14466577904E+03  0.12499882780E+03 0.  0.
          5    1    3    3  501    0  0.88884008557E+02 -0.31752831374E+02  0.84573614050E+02  0.12682032751E+03  0.47000000000E+01 0. -1.
         -5    1    3    3    0  501 -0.43386400068E+02 -0.14000795973E+02  0.32316367508E+02  0.56078869529E+02  0.47000000000E+01 0. -1.
          5    1    4    4  502    0 -0.41763430938E+02  0.36799614178E+02 -0.40895744900E+02  0.69231118136E+02  0.47000000000E+01 0.  1.
         -5    1    4    4    0  502 -0.37341775508E+01  0.89540131698E+01  0.74660428826E+02  0.75434660908E+02  0.47000000000E+01 0.  1.
<mgrwt>
<rscale>  0 0.29086420E+03</rscale>
<asrwt>0</asrwt>
<pdfrwt beam="1">  1       21 0.36786126E-01 0.29086420E+03</pdfrwt>
<pdfrwt beam="2">  1       21 0.13608486E-01 0.29086420E+03</pdfrwt>
<totfact> 0.32623299E+05</totfact>
</mgrwt>
</event>
<event>
 8    1  0.9705063E-006  0.2888704E+03  0.7546771E-02  0.1090940E+00
         21   -1    0    0  504  503  0.00000000000E+00  0.00000000000E+00  0.16804468071E+04  0.16804468071E+04  0.00000000000E+00 0.  1.
         21   -1    0    0  503  504 -0.00000000000E+00 -0.00000000000E+00 -0.12414271558E+02  0.12414271558E+02  0.00000000000E+00 0.  1.
         25    2    1    2    0    0 -0.35690101780E+02 -0.55035188536E+02  0.10130920149E+04  0.10228798036E+04  0.12500002627E+03 0.  0.
         25    2    1    2    0    0  0.35690101780E+02  0.55035188536E+02  0.65494052064E+03  0.66998127508E+03  0.12500067215E+03 0.  0.
          5    1    3    3  501    0  0.43738949789E+02 -0.95645015818E+00  0.37576583987E+03  0.37833327495E+03  0.47000000000E+01 0. -1.
         -5    1    3    3    0  501 -0.79429051570E+02 -0.54078738378E+02  0.63732617502E+03  0.64454652861E+03  0.47000000000E+01 0. -1.
          5    1    4    4  502    0  0.49743490566E+02 -0.25241054218E+02  0.19599963125E+03  0.20383687380E+03  0.47000000000E+01 0. -1.
         -5    1    4    4    0  502 -0.14053388785E+02  0.80276242754E+02  0.45894088939E+03  0.46614440128E+03  0.47000000000E+01 0. -1.
<mgrwt>
<rscale>  0 0.28887037E+03</rscale>
<asrwt>0</asrwt>
<pdfrwt beam="1">  1       21 0.25853010E+00 0.28887037E+03</pdfrwt>
<pdfrwt beam="2">  1       21 0.19098893E-02 0.28887037E+03</pdfrwt>
<totfact> 0.74045963E+04</totfact>
</mgrwt>
</event>
<event>
 8    1  0.9705063E-006  0.5742808E+03  0.7546771E-02  0.9960250E-01
         21   -1    0    0  504  503  0.00000000000E+00  0.00000000000E+00  0.74389364275E+03  0.74389364275E+03  0.00000000000E+00 0. -1.
         21   -1    0    0  503  504 -0.00000000000E+00 -0.00000000000E+00 -0.11083522678E+03  0.11083522678E+03  0.00000000000E+00 0. -1.
         25    2    1    2    0    0 -0.66416825034E-02  0.19316834047E+03  0.57220696874E+03  0.61673285190E+03  0.12499835090E+03 0.  0.
         25    2    1    2    0    0  0.66416825034E-02 -0.19316834047E+03  0.60851447236E+02  0.23799601763E+03  0.12500079189E+03 0.  0.
          5    1    3    3  501    0 -0.61457249072E+02  0.11535158026E+03  0.32022650830E+03  0.34590473710E+03  0.47000000000E+01 0. -1.
         -5    1    3    3    0  501  0.61450607389E+02  0.77816760215E+02  0.25198046044E+03  0.27082811479E+03  0.47000000000E+01 0. -1.
          5    1    4    4  502    0  0.61310884549E+02 -0.11678575510E+03  0.32553256361E+02  0.13594021355E+03  0.47000000000E+01 0. -1.
         -5    1    4    4    0  502 -0.61304242867E+02 -0.76382585371E+02  0.28298190875E+02  0.10205580409E+03  0.47000000000E+01 0. -1.
<mgrwt>
<rscale>  0 0.57428084E+03</rscale>
<asrwt>0</asrwt>
<pdfrwt beam="1">  1       21 0.11444517E+00 0.57428084E+03</pdfrwt>
<pdfrwt beam="2">  1       21 0.17051574E-01 0.57428084E+03</pdfrwt>
<totfact> 0.15996820E+04</totfact>
</mgrwt>
</event>
<event>
 8    1  0.9705063E-006  0.3231999E+03  0.7546771E-02  0.1074186E+00
         21   -1    0    0  504  503  0.00000000000E+00  0.00000000000E+00  0.53252289668E+02  0.53252289668E+02  0.00000000000E+00 0.  1.
         21   -1    0    0  503  504 -0.00000000000E+00 -0.00000000000E+00 -0.49039290187E+03  0.49039290187E+03  0.00000000000E+00 0.  1.
         25    2    1    2    0    0 -0.15466378587E+02  0.95432310304E+02 -0.16171230638E+03  0.22610332251E+03  0.12500123078E+03 0.  0.
         25    2    1    2    0    0  0.15466378587E+02 -0.95432310304E+02 -0.27542830582E+03  0.31754186903E+03  0.12500220888E+03 0.  0.
          5    1    3    3  501    0 -0.40717733171E+02  0.25090407535E+02 -0.14017323946E+03  0.14818262181E+03  0.47000000000E+01 0.  1.
         -5    1    3    3    0  501  0.25251354584E+02  0.70341902769E+02 -0.21539066918E+02  0.77920700697E+02  0.47000000000E+01 0.  1.
          5    1    4    4  502    0  0.28266173790E+02  0.19077766749E+02 -0.27336063982E+02  0.43957799750E+02  0.47000000000E+01 0. -1.
         -5    1    4    4    0  502 -0.12799795203E+02 -0.11451007705E+03 -0.24809224184E+03  0.27358406928E+03  0.47000000000E+01 0. -1.
<mgrwt>
<rscale>  0 0.32319991E+03</rscale>
<asrwt>0</asrwt>
<pdfrwt beam="1">  1       21 0.81926600E-02 0.32319991E+03</pdfrwt>
<pdfrwt beam="2">  1       21 0.75445061E-01 0.32319991E+03</pdfrwt>
<totfact> 0.17404946E+05</totfact>
</mgrwt>
</event>
<event>
 8    1  0.9705063E-006  0.2833995E+03  0.7546771E-02  0.1093847E+00
         21   -1    0    0  504  503  0.00000000000E+00  0.00000000000E+00  0.49060705143E+02  0.49060705143E+02  0.00000000000E+00 0. -1.
         21   -1    0    0  503  504 -0.00000000000E+00 -0.00000000000E+00 -0.40926478874E+03  0.40926478874E+03  0.00000000000E+00 0. -1.
         25    2    1    2    0    0 -0.16080321770E+02  0.62863610993E+02 -0.20539983556E+03  0.24904199157E+03  0.12498964270E+03 0.  0.
         25    2    1    2    0    0  0.16080321770E+02 -0.62863610993E+02 -0.15480424804E+03  0.20928350231E+03  0.12499927518E+03 0.  0.
          5    1    3    3  501    0 -0.27734964193E+02 -0.33389234166E+02 -0.68113717824E+02  0.80905115740E+02  0.47000000000E+01 0. -1.
         -5    1    3    3    0  501  0.11654642423E+02  0.96252845159E+02 -0.13728611774E+03  0.16813687583E+03  0.47000000000E+01 0. -1.
          5    1    4    4  502    0  0.35711014412E+02  0.95214606261E+01 -0.12150636787E+03  0.12708981940E+03  0.47000000000E+01 0.  1.
         -5    1    4    4    0  502 -0.19630692643E+02 -0.72385071619E+02 -0.33297880170E+02  0.82193682913E+02  0.47000000000E+01 0.  1.
<mgrwt>
<rscale>  0 0.28339950E+03</rscale>
<asrwt>0</asrwt>
<pdfrwt beam="1">  1       21 0.75478006E-02 0.28339950E+03</pdfrwt>
<pdfrwt beam="2">  1       21 0.62963815E-01 0.28339950E+03</pdfrwt>
<totfact> 0.30321395E+05</totfact>
</mgrwt>
</event>
<event>
 8    1  0.9705063E-006  0.3436063E+03  0.7546771E-02  0.1065270E+00
         21   -1    0    0  504  503  0.00000000000E+00  0.00000000000E+00  0.75624768925E+02  0.75624768925E+02  0.00000000000E+00 0. -1.
         21   -1    0    0  503  504 -0.00000000000E+00 -0.00000000000E+00 -0.39029960650E+03  0.39029960650E+03  0.00000000000E+00 0. -1.
         25    2    1    2    0    0  0.60810864699E+02  0.90232409826E+02 -0.95918252468E+02  0.19148207425E+03  0.12500089821E+03 0.  0.
         25    2    1    2    0    0 -0.60810864699E+02 -0.90232409826E+02 -0.21875658510E+03  0.27444230118E+03  0.12499713636E+03 0.  0.
          5    1    3    3  501    0  0.86729815147E+01  0.33204519599E+02  0.28560977545E+02  0.44895213202E+02  0.47000000000E+01 0. -1.
         -5    1    3    3    0  501  0.52137883184E+02  0.57027890227E+02 -0.12447923001E+03  0.14658686105E+03  0.47000000000E+01 0. -1.
          5    1    4    4  502    0 -0.42894104286E+02 -0.74744578903E+02 -0.23155419103E+03  0.24711553906E+03  0.47000000000E+01 0. -1.
         -5    1    4    4    0  502 -0.17916760413E+02 -0.15487830923E+02  0.12797605929E+02  0.27326762119E+02  0.47000000000E+01 0. -1.
<mgrwt>
<rscale>  0 0.34360627E+03</rscale>
<asrwt>0</asrwt>
<pdfrwt beam="1">  1       21 0.11634580E-01 0.34360627E+03</pdfrwt>
<pdfrwt beam="2">  1       21 0.60046094E-01 0.34360627E+03</pdfrwt>
<totfact> 0.15379508E+05</totfact>
</mgrwt>
</event>
<event>
 8    1  0.9705063E-006  0.3122708E+03  0.7546771E-02  0.1079263E+00
         21   -1    0    0  504  503  0.00000000000E+00  0.00000000000E+00  0.38058633872E+02  0.38058633872E+02  0.00000000000E+00 0. -1.
         21   -1    0    0  503  504 -0.00000000000E+00 -0.00000000000E+00 -0.64054472551E+03  0.64054472551E+03  0.00000000000E+00 0. -1.
         25    2    1    2    0    0 -0.92313873139E+02  0.48324951459E+00 -0.26830294106E+03  0.31005437785E+03  0.12500065735E+03 0.  0.
         25    2    1    2    0    0  0.92313873139E+02 -0.48324951459E+00 -0.33418315058E+03  0.36854898153E+03  0.12501155528E+03 0.  0.
          5    1    3    3  501    0 -0.71745218469E+02  0.17814277032E+02 -0.27253691470E+03  0.28242376797E+03  0.47000000000E+01 0.  1.
         -5    1    3    3    0  501 -0.20568654670E+02 -0.17331027517E+02  0.42339736379E+01  0.27630609883E+02  0.47000000000E+01 0.  1.
          5    1    4    4  502    0  0.57485219350E+02 -0.12561733929E+02 -0.32493538446E+03  0.33025360206E+03  0.47000000000E+01 0.  1.
         -5    1    4    4    0  502  0.34828653789E+02  0.12078484414E+02 -0.92477661218E+01  0.38295379470E+02  0.47000000000E+01 0.  1.
<mgrwt>
<rscale>  0 0.31227076E+03</rscale>
<asrwt>0</asrwt>
<pdfrwt beam="1">  1       21 0.58551743E-02 0.31227076E+03</pdfrwt>
<pdfrwt beam="2">  1       21 0.98545344E-01 0.31227076E+03</pdfrwt>
<totfact> 0.16843620E+05</totfact>
</mgrwt>
</event>
<event>
 8    1  0.9705063E-006  0.3021466E+03  0.7546771E-02  0.1084172E+00
         21   -1    0    0  504  503  0.00000000000E+00  0.00000000000E+00  0.81061145527E+02  0.81061145527E+02  0.00000000000E+00 0.  1.
         21   -1    0    0  503  504 -0.00000000000E+00 -0.00000000000E+00 -0.28155470165E+03  0.28155470165E+03  0.00000000000E+00 0.  1.
         25    2    1    2    0    0  0.25334541511E+02  0.58863701388E+02 -0.33509839492E+02  0.14440498049E+03  0.12499245862E+03 0.  0.
         25    2    1    2    0    0 -0.25334541511E+02 -0.58863701388E+02 -0.16698371663E+03  0.21821086669E+03  0.12500258552E+03 0.  0.
          5    1    3    3  501    0 -0.78335104562E+00 -0.38873030267E+02 -0.10538823582E+02  0.40557156255E+02  0.47000000000E+01 0. -1.
         -5    1    3    3    0  501  0.26117892557E+02  0.97736731655E+02 -0.22971015910E+02  0.10384782423E+03  0.47000000000E+01 0. -1.
          5    1    4    4  502    0 -0.74300646063E+02 -0.51733336269E+02 -0.10372069842E+03  0.13775702293E+03  0.47000000000E+01 0. -1.
         -5    1    4    4    0  502  0.48966104551E+02 -0.71303651193E+01 -0.63263018207E+02  0.80453843751E+02  0.47000000000E+01 0. -1.
<mgrwt>
<rscale>  0 0.30214663E+03</rscale>
<asrwt>0</asrwt>
<pdfrwt beam="1">  1       21 0.12470945E-01 0.30214663E+03</pdfrwt>
<pdfrwt beam="2">  1       21 0.43316108E-01 0.30214663E+03</pdfrwt>
<totfact> 0.27332364E+05</totfact>
</mgrwt>
</event>
<event>
 8    1  0.9705063E-006  0.3367253E+03  0.7546771E-02  0.1068199E+00
         21   -1    0    0  504  503  0.00000000000E+00  0.00000000000E+00  0.20189466578E+02  0.20189466578E+02  0.00000000000E+00 0.  1.
         21   -1    0    0  503  504 -0.00000000000E+00 -0.00000000000E+00 -0.14039985325E+04  0.14039985325E+04  0.00000000000E+00 0.  1.
         25    2    1    2    0    0  0.74806737919E+02 -0.59338767437E+01 -0.33576804484E+03  0.36605455161E+03  0.12499798352E+03 0.  0.
         25    2    1    2    0    0 -0.74806737919E+02  0.59338767437E+01 -0.10480410210E+04  0.10581334474E+04  0.12500060743E+03 0.  0.
          5    1    3    3  501    0  0.20290099848E+02  0.54299049989E+02 -0.19467463331E+03  0.20317573142E+03  0.47000000000E+01 0. -1.
         -5    1    3    3    0  501  0.54516638071E+02 -0.60232926732E+02 -0.14109341153E+03  0.16287882019E+03  0.47000000000E+01 0. -1.
          5    1    4    4  502    0 -0.48209371072E+02 -0.58435524264E+02 -0.56433048248E+03  0.56941183463E+03  0.47000000000E+01 0. -1.
         -5    1    4    4    0  502 -0.26597366847E+02  0.64369401008E+02 -0.48371053856E+03  0.48872161281E+03  0.47000000000E+01 0. -1.
<mgrwt>
<rscale>  0 0.33672530E+03</rscale>
<asrwt>0</asrwt>
<pdfrwt beam="1">  1       21 0.31060718E-02 0.33672530E+03</pdfrwt>
<pdfrwt beam="2">  1       21 0.21599978E+00 0.33672530E+03</pdfrwt>
<totfact> 0.59032502E+04</totfact>
</mgrwt>
</event>
<event>
 8    1  0.9705063E-006  0.2730057E+03  0.7546771E-02  0.1099572E+00
         21   -1    0    0  504  503  0.00000000000E+00  0.00000000000E+00  0.23788368205E+03  0.23788368205E+03  0.00000000000E+00 0.  1.
         21   -1    0    0  503  504 -0.00000000000E+00 -0.00000000000E+00 -0.78328340621E+02  0.78328340621E+02  0.00000000000E+00 0.  1.
         25    2    1    2    0    0  0.52081935757E+02  0.87017808841E+01  0.96958331231E+02  0.16677941327E+03  0.12500482260E+03 0.  0.
         25    2    1    2    0    0 -0.52081935757E+02 -0.87017808841E+01  0.62597010193E+02  0.14943260940E+03  0.12499388002E+03 0.  0.
          5    1    3    3  501    0  0.36054556623E+02 -0.55005566971E+02  0.28649919181E+02  0.71891941970E+02  0.47000000000E+01 0. -1.
         -5    1    3    3    0  501  0.16027379135E+02  0.63707347856E+02  0.68308412050E+02  0.94887471299E+02  0.47000000000E+01 0. -1.
          5    1    4    4  502    0 -0.45973151129E+02 -0.64505753308E+02  0.35985161618E+02  0.87129470853E+02  0.47000000000E+01 0.  1.
         -5    1    4    4    0  502 -0.61087846289E+01  0.55803972424E+02  0.26611848575E+02  0.62303138545E+02  0.47000000000E+01 0.  1.
<mgrwt>
<rscale>  0 0.27300574E+03</rscale>
<asrwt>0</asrwt>
<pdfrwt beam="1">  1       21 0.36597489E-01 0.27300574E+03</pdfrwt>
<pdfrwt beam="2">  1       21 0.12050514E-01 0.27300574E+03</pdfrwt>
<totfact> 0.41234602E+05</totfact>
</mgrwt>
</event>
<event>
 8    1  0.9705063E-006  0.3093379E+03  0.7546771E-02  0.1080664E+00
         21   -1    0    0  504  503  0.00000000000E+00  0.00000000000E+00  0.28164162780E+03  0.28164162780E+03  0.00000000000E+00 0. -1.
         21   -1    0    0  503  504 -0.00000000000E+00 -0.00000000000E+00 -0.84939465655E+02  0.84939465655E+02  0.00000000000E+00 0. -1.
         25    2    1    2    0    0  0.12425437484E+02 -0.46573948960E+02  0.18994864789E+03  0.23244262074E+03  0.12500223552E+03 0.  0.
         25    2    1    2    0    0 -0.12425437484E+02  0.46573948960E+02  0.67535142554E+01  0.13413847271E+03  0.12499598269E+03 0.  0.
          5    1    3    3  501    0  0.47887638514E+02 -0.62051001166E+02  0.66209702061E+02  0.10271011301E+03  0.47000000000E+01 0.  1.
         -5    1    3    3    0  501 -0.35462201030E+02  0.15477052206E+02  0.12373894583E+03  0.12973250773E+03  0.47000000000E+01 0.  1.
          5    1    4    4  502    0 -0.38244665757E+02  0.76035678705E+02 -0.18589320849E+02  0.87245239094E+02  0.47000000000E+01 0.  1.
         -5    1    4    4    0  502  0.25819228273E+02 -0.29461729745E+02  0.25342835105E+02  0.46893233620E+02  0.47000000000E+01 0.  1.
<mgrwt>
<rscale>  0 0.30933793E+03</rscale>
<asrwt>0</asrwt>
<pdfrwt beam="1">  1       21 0.43329481E-01 0.30933793E+03</pdfrwt>
<pdfrwt beam="2">  1       21 0.13067610E-01 0.30933793E+03</pdfrwt>
<totfact> 0.25055777E+05</totfact>
</mgrwt>
</event>
<event>
 8    1  0.9705063E-006  0.2658551E+03  0.7546771E-02  0.1103676E+00
         21   -1    0    0  504  503  0.00000000000E+00  0.00000000000E+00  0.96406867651E+02  0.96406867651E+02  0.00000000000E+00 0. -1.
         21   -1    0    0  503  504 -0.00000000000E+00 -0.00000000000E+00 -0.18328291007E+03  0.18328291007E+03  0.00000000000E+00 0. -1.
         25    2    1    2    0    0 -0.18572139381E+02  0.36322433776E+02 -0.63952642932E+02  0.14621785945E+03  0.12500191330E+03 0.  0.
         25    2    1    2    0    0  0.18572139381E+02 -0.36322433776E+02 -0.22923399490E+02  0.13347191827E+03  0.12500010867E+03 0.  0.
          5    1    3    3  501    0 -0.55146745959E+02  0.13981095180E+02  0.12507390749E+02  0.58439365462E+02  0.47000000000E+01 0. -1.
         -5    1    3    3    0  501  0.36574606578E+02  0.22341338597E+02 -0.76460033681E+02  0.87778493990E+02  0.47000000000E+01 0. -1.
          5    1    4    4  502    0 -0.14299748596E+02  0.41569407846E+02 -0.20577116389E+02  0.48764804905E+02  0.47000000000E+01 0. -1.
         -5    1    4    4    0  502  0.32871887977E+02 -0.77891841622E+02 -0.23462831008E+01  0.84707113366E+02  0.47000000000E+01 0. -1.
<mgrwt>
<rscale>  0 0.26585508E+03</rscale>
<asrwt>0</asrwt>
<pdfrwt beam="1">  1       21 0.14831826E-01 0.26585508E+03</pdfrwt>
<pdfrwt beam="2">  1       21 0.28197371E-01 0.26585508E+03</pdfrwt>
<totfact> 0.47438635E+05</totfact>
</mgrwt>
</event>
<event>
 8    1  0.9705063E-006  0.2926439E+03  0.7546771E-02  0.1088977E+00
         21   -1    0    0  504  503  0.00000000000E+00  0.00000000000E+00  0.10055814041E+03  0.10055814041E+03  0.00000000000E+00 0.  1.
         21   -1    0    0  503  504 -0.00000000000E+00 -0.00000000000E+00 -0.21291271858E+03  0.21291271858E+03  0.00000000000E+00 0.  1.
         25    2    1    2    0    0 -0.47701190279E+02  0.15882931421E+02 -0.11732214434E+03  0.17864671977E+03  0.12498997508E+03 0.  0.
         25    2    1    2    0    0  0.47701190279E+02 -0.15882931421E+02  0.49675661677E+01  0.13482413922E+03  0.12500080295E+03 0.  0.
          5    1    3    3  501    0  0.98436024325E+01  0.29235012098E+02  0.14281169994E+02  0.34316530384E+02  0.47000000000E+01 0. -1.
         -5    1    3    3    0  501 -0.57544792712E+02 -0.13352080677E+02 -0.13160331433E+03  0.14433018939E+03  0.47000000000E+01 0. -1.
          5    1    4    4  502    0  0.79586988610E+02 -0.40999377493E+02  0.18961200783E+02  0.91633262771E+02  0.47000000000E+01 0. -1.
         -5    1    4    4    0  502 -0.31885798331E+02  0.25116446071E+02 -0.13993634616E+02  0.43190876447E+02  0.47000000000E+01 0. -1.
<mgrwt>
<rscale>  0 0.29264386E+03</rscale>
<asrwt>0</asrwt>
<pdfrwt beam="1">  1       21 0.15470483E-01 0.29264386E+03</pdfrwt>
<pdfrwt beam="2">  1       21 0.32755803E-01 0.29264386E+03</pdfrwt>
<totfact> 0.32523107E+05</totfact>
</mgrwt>
</event>
<event>
 8    1  0.9705063E-006  0.2735928E+03  0.7546771E-02  0.1099241E+00
         21   -1    0    0  504  503  0.00000000000E+00  0.00000000000E+00  0.19354882775E+02  0.19354882775E+02  0.00000000000E+00 0. -1.
         21   -1    0    0  503  504 -0.00000000000E+00 -0.00000000000E+00 -0.96684940818E+03  0.96684940818E+03  0.00000000000E+00 0. -1.
         25    2    1    2    0    0 -0.19545021425E+02 -0.14326855198E+02 -0.65405886450E+03  0.66633538056E+03  0.12499029763E+03 0.  0.
         25    2    1    2    0    0  0.19545021425E+02  0.14326855198E+02 -0.29343566090E+03  0.31986891039E+03  0.12499746441E+03 0.  0.
          5    1    3    3  501    0  0.41167521640E+02 -0.26878485242E+02 -0.45797450146E+03  0.46062995104E+03  0.47000000000E+01 0.  1.
         -5    1    3    3    0  501 -0.60712543065E+02  0.12551630044E+02 -0.19608436304E+03  0.20570542952E+03  0.47000000000E+01 0.  1.
          5    1    4    4  502    0  0.29566189565E+01 -0.43938972564E+02 -0.41445955819E+02  0.60656674484E+02  0.47000000000E+01 0.  1.
         -5    1    4    4    0  502  0.16588402468E+02  0.58265827762E+02 -0.25198970508E+03  0.25921223591E+03  0.47000000000E+01 0.  1.
<mgrwt>
<rscale>  0 0.27359281E+03</rscale>
<asrwt>0</asrwt>
<pdfrwt beam="1">  1       21 0.29776735E-02 0.27359281E+03</pdfrwt>
<pdfrwt beam="2">  1       21 0.14874610E+00 0.27359281E+03</pdfrwt>
<totfact> 0.18999328E+05</totfact>
</mgrwt>
</event>
<event>
 8    1  0.9705063E-006  0.4716116E+03  0.7546771E-02  0.1021466E+00
         21   -1    0    0  504  503  0.00000000000E+00  0.00000000000E+00  0.20338893669E+03  0.20338893669E+03  0.00000000000E+00 0.  1.
         21   -1    0    0  503  504 -0.00000000000E+00 -0.00000000000E+00 -0.27338941554E+03  0.27338941554E+03  0.00000000000E+00 0.  1.
         25    2    1    2    0    0  0.22320092833E+02 -0.72327633475E+02  0.15208637760E+03  0.21092530510E+03  0.12501897844E+03 0.  0.
         25    2    1    2    0    0 -0.22320092833E+02  0.72327633475E+02 -0.22208685645E+03  0.26585304713E+03  0.12500319096E+03 0.  0.
          5    1    3    3  501    0  0.12969700426E+02 -0.10765373956E+03  0.10372504697E+03  0.15012833224E+03  0.47000000000E+01 0.  1.
         -5    1    3    3    0  501  0.93503924078E+01  0.35326106084E+02  0.48361330631E+02  0.60796972865E+02  0.47000000000E+01 0.  1.
          5    1    4    4  502    0 -0.57821612128E+02  0.37301437592E+02 -0.19915763684E+03  0.21076192822E+03  0.47000000000E+01 0.  1.
         -5    1    4    4    0  502  0.35501519294E+02  0.35026195883E+02 -0.22929219606E+02  0.55091118903E+02  0.47000000000E+01 0.  1.
<mgrwt>
<rscale>  0 0.47161163E+03</rscale>
<asrwt>0</asrwt>
<pdfrwt beam="1">  1       21 0.31290606E-01 0.47161163E+03</pdfrwt>
<pdfrwt beam="2">  1       21 0.42059910E-01 0.47161163E+03</pdfrwt>
<totfact> 0.48939468E+04</totfact>
</mgrwt>
</event>
<event>
 8    1  0.9705063E-006  0.4374826E+03  0.7546771E-02  0.1031522E+00
         21   -1    0    0  504  503  0.00000000000E+00  0.00000000000E+00  0.88120624394E+03  0.88120624394E+03  0.00000000000E+00 0.  1.
         21   -1    0    0  503  504 -0.00000000000E+00 -0.00000000000E+00 -0.54298019797E+02  0.54298019797E+02  0.00000000000E+00 0.  1.
         25    2    1    2    0    0 -0.11285242265E+03 -0.77801107537E+02  0.16559984617E+03  0.24867120378E+03  0.12500150762E+03 0.  0.
         25    2    1    2    0    0  0.11285242265E+03  0.77801107537E+02  0.66130837797E+03  0.68683305995E+03  0.12498879885E+03 0.  0.
          5    1    3    3  501    0 -0.35989203986E+02 -0.13884786608E+02  0.14011030267E+03  0.14539943953E+03  0.47000000000E+01 0. -1.
         -5    1    3    3    0  501 -0.76863218660E+02 -0.63916320930E+02  0.25489543507E+02  0.10327176425E+03  0.47000000000E+01 0. -1.
          5    1    4    4  502    0  0.90971263640E+02 -0.10144887731E+02  0.26975424667E+03  0.28490021613E+03  0.47000000000E+01 0. -1.
         -5    1    4    4    0  502  0.21881159006E+02  0.87945995269E+02  0.39155413129E+03  0.40193284381E+03  0.47000000000E+01 0. -1.
<mgrwt>
<rscale>  0 0.43748259E+03</rscale>
<asrwt>0</asrwt>
<pdfrwt beam="1">  1       21 0.13557018E+00 0.43748259E+03</pdfrwt>
<pdfrwt beam="2">  1       21 0.83535422E-02 0.43748259E+03</pdfrwt>
<totfact> 0.39377727E+04</totfact>
</mgrwt>
</event>
<event>
 8    1  0.9705063E-006  0.2762513E+03  0.7546771E-02  0.1097754E+00
         21   -1    0    0  504  503  0.00000000000E+00  0.00000000000E+00  0.48801021824E+03  0.48801021824E+03  0.00000000000E+00 0. -1.
         21   -1    0    0  503  504 -0.00000000000E+00 -0.00000000000E+00 -0.39094871776E+02  0.39094871776E+02  0.00000000000E+00 0. -1.
         25    2    1    2    0    0 -0.27845058329E+02  0.40994779694E+02  0.28471349279E+03  0.31486993547E+03  0.12500153620E+03 0.  0.
         25    2    1    2    0    0  0.27845058329E+02 -0.40994779694E+02  0.16420185368E+03  0.21223515455E+03  0.12500237134E+03 0.  0.
          5    1    3    3  501    0 -0.60586774783E+02  0.55753077746E+02  0.11609682667E+03  0.14240690335E+03  0.47000000000E+01 0. -1.
         -5    1    3    3    0  501  0.32741716455E+02 -0.14758298052E+02  0.16861666611E+03  0.17246303212E+03  0.47000000000E+01 0. -1.
          5    1    4    4  502    0  0.77701694427E+02 -0.27249850820E+02  0.97595840671E+02  0.12777772029E+03  0.47000000000E+01 0. -1.
         -5    1    4    4    0  502 -0.49856636098E+02 -0.13744928875E+02  0.66606013009E+02  0.84457434260E+02  0.47000000000E+01 0. -1.
<mgrwt>
<rscale>  0 0.27625131E+03</rscale>
<asrwt>0</asrwt>
<pdfrwt beam="1">  1       21 0.75078491E-01 0.27625131E+03</pdfrwt>
<pdfrwt beam="2">  1       21 0.60145960E-02 0.27625131E+03</pdfrwt>
<totfact> 0.30489254E+05</totfact>
</mgrwt>
</event>
<event>
 8    1  0.9705063E-006  0.3468104E+03  0.7546771E-02  0.1063932E+00
         21   -1    0    0  504  503  0.00000000000E+00  0.00000000000E+00  0.40623768516E+03  0.40623768516E+03  0.00000000000E+00 0.  1.
         21   -1    0    0  503  504 -0.00000000000E+00 -0.00000000000E+00 -0.74019122994E+02  0.74019122994E+02  0.00000000000E+00 0.  1.
         25    2    1    2    0    0 -0.35412070768E+02 -0.74158267652E+02  0.44661048940E+02  0.15611329690E+03  0.12499315485E+03 0.  0.
         25    2    1    2    0    0  0.35412070768E+02  0.74158267652E+02  0.28755751322E+03  0.32414351125E+03  0.12500491614E+03 0.  0.
          5    1    3    3  501    0 -0.49952176580E+02 -0.98756255099E+02  0.10405943372E+02  0.11125822003E+03  0.47000000000E+01 0.  1.
         -5    1    3    3    0  501  0.14540105812E+02  0.24597987447E+02  0.34255105568E+02  0.44855076869E+02  0.47000000000E+01 0.  1.
          5    1    4    4  502    0 -0.42522480741E+02  0.20214473537E+02  0.14797828903E+03  0.15535910123E+03  0.47000000000E+01 0. -1.
         -5    1    4    4    0  502  0.77934551510E+02  0.53943794115E+02  0.13957922419E+03  0.16878441003E+03  0.47000000000E+01 0. -1.
<mgrwt>
<rscale>  0 0.34681036E+03</rscale>
<asrwt>0</asrwt>
<pdfrwt beam="1">  1       21 0.62498104E-01 0.34681036E+03</pdfrwt>
<pdfrwt beam="2">  1       21 0.11387558E-01 0.34681036E+03</pdfrwt>
<totfact> 0.14637924E+05</totfact>
</mgrwt>
</event>
<event>
 8    1  0.9705063E-006  0.2698424E+03  0.7546771E-02  0.1101370E+00
         21   -1    0    0  504  503  0.00000000000E+00  0.00000000000E+00  0.54236220049E+03  0.54236220049E+03  0.00000000000E+00 0. -1.
         21   -1    0    0  503  504 -0.00000000000E+00 -0.00000000000E+00 -0.33563782906E+02  0.33563782906E+02  0.00000000000E+00 0. -1.
         25    2    1    2    0    0 -0.37677693307E+02 -0.65825371586E+01  0.32568750399E+03  0.35094272384E+03  0.12500202718E+03 0.  0.
         25    2    1    2    0    0  0.37677693307E+02  0.65825371586E+01  0.18311091360E+03  0.22498325955E+03  0.12499968812E+03 0.  0.
          5    1    3    3  501    0 -0.50116471507E+02  0.50980826010E+02  0.17861821918E+03  0.19245067825E+03  0.47000000000E+01 0.  1.
         -5    1    3    3    0  501  0.12438778200E+02 -0.57563363169E+02  0.14706928481E+03  0.15849204559E+03  0.47000000000E+01 0.  1.
          5    1    4    4  502    0  0.11362796753E+02 -0.58800367338E+02  0.82644812035E+02  0.10217069690E+03  0.47000000000E+01 0.  1.
         -5    1    4    4    0  502  0.26314896555E+02  0.65382904496E+02  0.10046610156E+03  0.12281256265E+03  0.47000000000E+01 0.  1.
<mgrwt>
<rscale>  0 0.26984238E+03</rscale>
<asrwt>0</asrwt>
<pdfrwt beam="1">  1       21 0.83440332E-01 0.26984238E+03</pdfrwt>
<pdfrwt beam="2">  1       21 0.51636593E-02 0.26984238E+03</pdfrwt>
<totfact> 0.31200403E+05</totfact>
</mgrwt>
</event>
<event>
 8    1  0.9705063E-006  0.2728819E+03  0.7546771E-02  0.1099641E+00
         21   -1    0    0  504  503  0.00000000000E+00  0.00000000000E+00  0.18584947833E+03  0.18584947833E+03  0.00000000000E+00 0.  1.
         21   -1    0    0  503  504 -0.00000000000E+00 -0.00000000000E+00 -0.10016779009E+03  0.10016779009E+03  0.00000000000E+00 0.  1.
         25    2    1    2    0    0 -0.12271619467E+02  0.20120728868E+02  0.94566496165E+02  0.15850253125E+03  0.12499917536E+03 0.  0.
         25    2    1    2    0    0  0.12271619467E+02 -0.20120728868E+02 -0.88848079238E+01  0.12751473717E+03  0.12500252801E+03 0.  0.
          5    1    3    3  501    0 -0.15756158068E+02  0.55594802402E+02  0.69284781552E+00  0.57979380898E+02  0.47000000000E+01 0.  1.
         -5    1    3    3    0  501  0.34845386015E+01 -0.35474073534E+02  0.93873648350E+02  0.10052315035E+03  0.47000000000E+01 0.  1.
          5    1    4    4  502    0 -0.12491809992E+02  0.50472524509E+02 -0.52070904709E+01  0.52466416290E+02  0.47000000000E+01 0.  1.
         -5    1    4    4    0  502  0.24763429459E+02 -0.70593253377E+02 -0.36777174529E+01  0.75048320878E+02  0.47000000000E+01 0.  1.
<mgrwt>
<rscale>  0 0.27288189E+03</rscale>
<asrwt>0</asrwt>
<pdfrwt beam="1">  1       21 0.28592227E-01 0.27288189E+03</pdfrwt>
<pdfrwt beam="2">  1       21 0.15410429E-01 0.27288189E+03</pdfrwt>
<totfact> 0.42982063E+05</totfact>
</mgrwt>
</event>
<event>
 8    1  0.9705063E-006  0.2971630E+03  0.7546771E-02  0.1086667E+00
         21   -1    0    0  504  503  0.00000000000E+00  0.00000000000E+00  0.36476766907E+03  0.36476766907E+03  0.00000000000E+00 0. -1.
         21   -1    0    0  503  504 -0.00000000000E+00 -0.00000000000E+00 -0.60521990274E+02  0.60521990274E+02  0.00000000000E+00 0. -1.
         25    2    1    2    0    0 -0.60765921871E+02 -0.18755848926E+02  0.22236243009E+03  0.26288981907E+03  0.12498690941E+03 0.  0.
         25    2    1    2    0    0  0.60765921871E+02  0.18755848926E+02  0.81883248703E+02  0.16239984028E+03  0.12499825028E+03 0.  0.
          5    1    3    3  501    0 -0.76506851773E+02  0.29171528098E+02  0.93208155351E+02  0.12415364128E+03  0.47000000000E+01 0.  1.
         -5    1    3    3    0  501  0.15740929902E+02 -0.47927377024E+02  0.12915427474E+03  0.13873617779E+03  0.47000000000E+01 0.  1.
          5    1    4    4  502    0 -0.39423129426E+00  0.42569540430E+02  0.86411349124E+02  0.96443415784E+02  0.47000000000E+01 0.  1.
         -5    1    4    4    0  502  0.61160153165E+02 -0.23813691503E+02 -0.45281004211E+01  0.65956424491E+02  0.47000000000E+01 0.  1.
<mgrwt>
<rscale>  0 0.29716302E+03</rscale>
<asrwt>0</asrwt>
<pdfrwt beam="1">  1       21 0.56118102E-01 0.29716302E+03</pdfrwt>
<pdfrwt beam="2">  1       21 0.93110757E-02 0.29716302E+03</pdfrwt>
<totfact> 0.26798498E+05</totfact>
</mgrwt>
</event>
<event>
 8    1  0.9705063E-006  0.2753502E+03  0.7546771E-02  0.1098256E+00
         21   -1    0    0  504  503  0.00000000000E+00  0.00000000000E+00  0.27917495843E+03  0.27917495843E+03  0.00000000000E+00 0.  1.
         21   -1    0    0  503  504 -0.00000000000E+00 -0.00000000000E+00 -0.67894461115E+02  0.67894461115E+02  0.00000000000E+00 0.  1.
         25    2    1    2    0    0 -0.91513003582E+00 -0.49999196907E+02  0.69399278883E+02  0.15145579151E+03  0.12498735823E+03 0.  0.
         25    2    1    2    0    0  0.91513003582E+00  0.49999196907E+02  0.14188121843E+03  0.19561362803E+03  0.12503461191E+03 0.  0.
          5    1    3    3  501    0 -0.20218994065E+02 -0.36980215530E+02  0.10237768668E+03  0.11081346846E+03  0.47000000000E+01 0.  1.
         -5    1    3    3    0  501  0.19303864029E+02 -0.13018981377E+02 -0.32978407794E+02  0.40642323054E+02  0.47000000000E+01 0.  1.
          5    1    4    4  502    0 -0.48808115193E+02 -0.16127159849E+02  0.49614024503E+02  0.71595801699E+02  0.47000000000E+01 0. -1.
         -5    1    4    4    0  502  0.49723245228E+02  0.66126356756E+02  0.92267193927E+02  0.12401782634E+03  0.47000000000E+01 0. -1.
<mgrwt>
<rscale>  0 0.27535020E+03</rscale>
<asrwt>0</asrwt>
<pdfrwt beam="1">  1       21 0.42949993E-01 0.27535020E+03</pdfrwt>
<pdfrwt beam="2">  1       21 0.10445302E-01 0.27535020E+03</pdfrwt>
<totfact> 0.38463346E+05</totfact>
</mgrwt>
</event>
<event>
 8    1  0.9705063E-006  0.2520442E+03  0.7546771E-02  0.1112020E+00
         21   -1    0    0  504  503  0.00000000000E+00  0.00000000000E+00  0.86433554908E+03  0.86433554908E+03  0.00000000000E+00 0.  1.
         21   -1    0    0  503  504 -0.00000000000E+00 -0.00000000000E+00 -0.18374309905E+02  0.18374309905E+02  0.00000000000E+00 0.  1.
         25    2    1    2    0    0 -0.13107922217E+01 -0.30209140325E+00  0.47893115498E+03  0.49497657217E+03  0.12499978541E+03 0.  0.
         25    2    1    2    0    0  0.13107922217E+01  0.30209140325E+00  0.36703008420E+03  0.38773328682E+03  0.12499683822E+03 0.  0.
          5    1    3    3  501    0 -0.50104305474E+02  0.74137207575E+01  0.38857960953E+03  0.39189489360E+03  0.47000000000E+01 0.  1.
         -5    1    3    3    0  501  0.48793513253E+02 -0.77158121607E+01  0.90351545441E+02  0.10308167857E+03  0.47000000000E+01 0.  1.
          5    1    4    4  502    0  0.28947970575E+01  0.12154865493E+02  0.37322885516E+03  0.37346752058E+03  0.47000000000E+01 0.  1.
         -5    1    4    4    0  502 -0.15840048358E+01 -0.11852774090E+02 -0.61987709595E+01  0.14265766238E+02  0.47000000000E+01 0.  1.
<mgrwt>
<rscale>  0 0.25204420E+03</rscale>
<asrwt>0</asrwt>
<pdfrwt beam="1">  1       21 0.13297467E+00 0.25204420E+03</pdfrwt>
<pdfrwt beam="2">  1       21 0.28268176E-02 0.25204420E+03</pdfrwt>
<totfact> 0.27948809E+05</totfact>
</mgrwt>
</event>
<event>
 8    1  0.9705063E-006  0.2763069E+03  0.7546771E-02  0.1097723E+00
         21   -1    0    0  504  503  0.00000000000E+00  0.00000000000E+00  0.44168544253E+02  0.44168544253E+02  0.00000000000E+00 0.  1.
         21   -1    0    0  503  504 -0.00000000000E+00 -0.00000000000E+00 -0.43212585728E+03  0.43212585728E+03  0.00000000000E+00 0.  1.
         25    2    1    2    0    0  0.54121372528E+02  0.65871758604E+01 -0.23210998593E+03  0.26920398562E+03  0.12499290562E+03 0.  0.
         25    2    1    2    0    0 -0.54121372528E+02 -0.65871758604E+01 -0.15584732710E+03  0.20709041591E+03  0.12500214858E+03 0.  0.
          5    1    3    3  501    0  0.15036514402E+02  0.17061940103E+02 -0.22695834208E+03  0.22814334443E+03  0.47000000000E+01 0. -1.
         -5    1    3    3    0  501  0.39084858126E+02 -0.10474764242E+02 -0.51516438455E+01  0.41060641191E+02  0.47000000000E+01 0. -1.
          5    1    4    4  502    0 -0.74410803733E+02 -0.38423743989E+02 -0.14503048840E+03  0.16753890408E+03  0.47000000000E+01 0.  1.
         -5    1    4    4    0  502  0.20289431205E+02  0.31836568129E+02 -0.10816838694E+02  0.39551511831E+02  0.47000000000E+01 0.  1.
<mgrwt>
<rscale>  0 0.27630686E+03</rscale>
<asrwt>0</asrwt>
<pdfrwt beam="1">  1       21 0.67951604E-02 0.27630686E+03</pdfrwt>
<pdfrwt beam="2">  1       21 0.66480904E-01 0.27630686E+03</pdfrwt>
<totfact> 0.32368525E+05</totfact>
</mgrwt>
</event>
<event>
 8    1  0.9705063E-006  0.4506817E+03  0.7546771E-02  0.1027519E+00
         21   -1    0    0  504  503  0.00000000000E+00  0.00000000000E+00  0.77381662484E+02  0.77381662484E+02  0.00000000000E+00 0. -1.
         21   -1    0    0  503  504 -0.00000000000E+00 -0.00000000000E+00 -0.65620837772E+03  0.65620837772E+03  0.00000000000E+00 0. -1.
         25    2    1    2    0    0 -0.13656077535E+03 -0.73699812884E+02 -0.46073675485E+03  0.50196352858E+03  0.12493405847E+03 0.  0.
         25    2    1    2    0    0  0.13656077535E+03  0.73699812884E+02 -0.11808996038E+03  0.23162651162E+03  0.12500037745E+03 0.  0.
          5    1    3    3  501    0  0.22859417236E+02 -0.19725547126E+02 -0.61476461282E+02  0.68651988008E+02  0.47000000000E+01 0. -1.
         -5    1    3    3    0  501 -0.15942019258E+03 -0.53974265759E+02 -0.39926029357E+03  0.43331154057E+03  0.47000000000E+01 0. -1.
          5    1    4    4  502    0  0.17801496615E+02 -0.19129468156E+02 -0.67540916578E+02  0.72572000427E+02  0.47000000000E+01 0.  1.
         -5    1    4    4    0  502  0.11875927873E+03  0.92829281040E+02 -0.50549043802E+02  0.15905451120E+03  0.47000000000E+01 0.  1.
<mgrwt>
<rscale>  0 0.45068168E+03</rscale>
<asrwt>0</asrwt>
<pdfrwt beam="1">  1       21 0.11904871E-01 0.45068168E+03</pdfrwt>
<pdfrwt beam="2">  1       21 0.10095514E+00 0.45068168E+03</pdfrwt>
<totfact> 0.43683187E+04</totfact>
</mgrwt>
</event>
<event>
 8    1  0.9705063E-006  0.3253954E+03  0.7546771E-02  0.1073193E+00
         21   -1    0    0  504  503  0.00000000000E+00  0.00000000000E+00  0.14545207577E+03  0.14545207577E+03  0.00000000000E+00 0. -1.
         21   -1    0    0  503  504 -0.00000000000E+00 -0.00000000000E+00 -0.18198805528E+03  0.18198805528E+03  0.00000000000E+00 0. -1.
         25    2    1    2    0    0  0.72399670001E+02 -0.21279691283E+02 -0.90499255247E+02  0.17177748786E+03  0.12499141034E+03 0.  0.
         25    2    1    2    0    0 -0.72399670001E+02  0.21279691283E+02  0.53963275737E+02  0.15566264320E+03  0.12499714349E+03 0.  0.
          5    1    3    3  501    0 -0.67748267015E+01 -0.14832954548E+02  0.25787206694E+02  0.30870452646E+02  0.47000000000E+01 0.  1.
         -5    1    3    3    0  501  0.79174496702E+02 -0.64467367347E+01 -0.11628646194E+03  0.14090703522E+03  0.47000000000E+01 0.  1.
          5    1    4    4  502    0 -0.30648014648E+02  0.73018251947E+02  0.27719187202E+02  0.84032191798E+02  0.47000000000E+01 0. -1.
         -5    1    4    4    0  502 -0.41751655353E+02 -0.51738560664E+02  0.26244088535E+02  0.71630451397E+02  0.47000000000E+01 0. -1.
<mgrwt>
<rscale>  0 0.32539539E+03</rscale>
<asrwt>0</asrwt>
<pdfrwt beam="1">  1       21 0.22377242E-01 0.32539539E+03</pdfrwt>
<pdfrwt beam="2">  1       21 0.27998163E-01 0.32539539E+03</pdfrwt>
<totfact> 0.22039520E+05</totfact>
</mgrwt>
</event>
<event>
 8    1  0.9705063E-006  0.2678666E+03  0.7546771E-02  0.1102507E+00
         21   -1    0    0  504  503  0.00000000000E+00  0.00000000000E+00  0.23701342246E+03  0.23701342246E+03  0.00000000000E+00 0.  1.
         21   -1    0    0  503  504 -0.00000000000E+00 -0.00000000000E+00 -0.75683994367E+02  0.75683994367E+02  0.00000000000E+00 0.  1.
         25    2    1    2    0    0 -0.43392572143E+02 -0.60529234040E+01  0.10379144544E+03  0.16828366593E+03  0.12500869919E+03 0.  0.
         25    2    1    2    0    0  0.43392572143E+02  0.60529234040E+01  0.57537982656E+02  0.14441375090E+03  0.12500063521E+03 0.  0.
          5    1    3    3  501    0 -0.50756245108E+02 -0.57438976289E+02  0.80301323005E+02  0.11111176756E+03  0.47000000000E+01 0. -1.
         -5    1    3    3    0  501  0.73636729649E+01  0.51386052885E+02  0.23490122436E+02  0.57171898365E+02  0.47000000000E+01 0. -1.
          5    1    4    4  502    0  0.56642243134E+02 -0.48670903244E+02  0.23405964942E+02  0.78403633364E+02  0.47000000000E+01 0. -1.
         -5    1    4    4    0  502 -0.13249670991E+02  0.54723826648E+02  0.34132017713E+02  0.66010117539E+02  0.47000000000E+01 0. -1.
<mgrwt>
<rscale>  0 0.26786655E+03</rscale>
<asrwt>0</asrwt>
<pdfrwt beam="1">  1       21 0.36463603E-01 0.26786655E+03</pdfrwt>
<pdfrwt beam="2">  1       21 0.11643692E-01 0.26786655E+03</pdfrwt>
<totfact> 0.44231737E+05</totfact>
</mgrwt>
</event>
<event>
 8    1  0.9705063E-006  0.4977865E+03  0.7546771E-02  0.1014358E+00
         21   -1    0    0  504  503  0.00000000000E+00  0.00000000000E+00  0.33994040009E+03  0.33994040009E+03  0.00000000000E+00 0.  1.
         21   -1    0    0  503  504 -0.00000000000E+00 -0.00000000000E+00 -0.18223152087E+03  0.18223152087E+03  0.00000000000E+00 0.  1.
         25    2    1    2    0    0  0.17367815989E+02 -0.61320583199E+02  0.29449675782E+03  0.32621637083E+03  0.12500770087E+03 0.  0.
         25    2    1    2    0    0 -0.17367815989E+02  0.61320583199E+02 -0.13678787860E+03  0.19595555013E+03  0.12500319572E+03 0.  0.
          5    1    3    3  501    0  0.10235546193E+02  0.20595027299E+02  0.19784792462E+03  0.19923557120E+03  0.47000000000E+01 0. -1.
         -5    1    3    3    0  501  0.71322697960E+01 -0.81915610499E+02  0.96648833192E+02  0.12698079962E+03  0.47000000000E+01 0. -1.
          5    1    4    4  502    0  0.41317164435E+02  0.69382716382E+02 -0.78584699490E+02  0.11277727787E+03  0.47000000000E+01 0. -1.
         -5    1    4    4    0  502 -0.58684980425E+02 -0.80621331824E+01 -0.58203179108E+02  0.83178272266E+02  0.47000000000E+01 0. -1.
<mgrwt>
<rscale>  0 0.49778652E+03</rscale>
<asrwt>0</asrwt>
<pdfrwt beam="1">  1       21 0.52298523E-01 0.49778652E+03</pdfrwt>
<pdfrwt beam="2">  1       21 0.28035619E-01 0.49778652E+03</pdfrwt>
<totfact> 0.38224990E+04</totfact>
</mgrwt>
</event>
<event>
 8    1  0.9705063E-006  0.6828541E+03  0.7546771E-02  0.9747012E-01
         21   -1    0    0  504  503  0.00000000000E+00  0.00000000000E+00  0.39735279842E+03  0.39735279842E+03  0.00000000000E+00 0.  1.
         21   -1    0    0  503  504 -0.00000000000E+00 -0.00000000000E+00 -0.29337265152E+03  0.29337265152E+03  0.00000000000E+00 0.  1.
         25    2    1    2    0    0 -0.67717031761E+02  0.30268923589E+03  0.12163574992E+03  0.35584624283E+03  0.12499969186E+03 0.  0.
         25    2    1    2    0    0  0.67717031761E+02 -0.30268923589E+03 -0.17655603013E+02  0.33487920711E+03  0.12500397243E+03 0.  0.
          5    1    3    3  501    0  0.20945218256E+02  0.26472676842E+02 -0.12371448358E+02  0.36258068364E+02  0.47000000000E+01 0. -1.
         -5    1    3    3    0  501 -0.88662250017E+02  0.27621655904E+03  0.13400719828E+03  0.31958817447E+03  0.47000000000E+01 0. -1.
          5    1    4    4  502    0  0.75382709631E+02 -0.29053618797E+03  0.13238088382E+02  0.30048488550E+03  0.47000000000E+01 0.  1.
         -5    1    4    4    0  502 -0.76656778703E+01 -0.12153047920E+02 -0.30893691395E+02  0.34394321609E+02  0.47000000000E+01 0.  1.
<mgrwt>
<rscale>  0 0.68285414E+03</rscale>
<asrwt>0</asrwt>
<pdfrwt beam="1">  1       21 0.61131199E-01 0.68285414E+03</pdfrwt>
<pdfrwt beam="2">  1       21 0.45134254E-01 0.68285414E+03</pdfrwt>
<totfact> 0.99195687E+03</totfact>
</mgrwt>
</event>
<event>
 8    1  0.9705063E-006  0.4912498E+03  0.7546771E-02  0.1016088E+00
         21   -1    0    0  504  503  0.00000000000E+00  0.00000000000E+00  0.21785703568E+03  0.21785703568E+03  0.00000000000E+00 0. -1.
         21   -1    0    0  503  504 -0.00000000000E+00 -0.00000000000E+00 -0.27693199088E+03  0.27693199088E+03  0.00000000000E+00 0. -1.
         25    2    1    2    0    0  0.21034655770E+03 -0.17729780679E+02 -0.17404208280E+02  0.24594867149E+03  0.12501129183E+03 0.  0.
         25    2    1    2    0    0 -0.21034655770E+03  0.17729780679E+02 -0.41670746923E+02  0.24884035507E+03  0.12500020681E+03 0.  0.
          5    1    3    3  501    0  0.12770352460E+03  0.37017294282E+00  0.50457112520E+02  0.13739118395E+03  0.47000000000E+01 0.  1.
         -5    1    3    3    0  501  0.82643033097E+02 -0.18099953621E+02 -0.67861320800E+02  0.10855748754E+03  0.47000000000E+01 0.  1.
          5    1    4    4  502    0 -0.17208588786E+03  0.42999758917E+02 -0.74300151754E+02  0.19236718695E+03  0.47000000000E+01 0. -1.
         -5    1    4    4    0  502 -0.38260669842E+02 -0.25269978238E+02  0.32629404831E+02  0.56473168111E+02  0.47000000000E+01 0. -1.
<mgrwt>
<rscale>  0 0.49124976E+03</rscale>
<asrwt>0</asrwt>
<pdfrwt beam="1">  1       21 0.33516467E-01 0.49124976E+03</pdfrwt>
<pdfrwt beam="2">  1       21 0.42604921E-01 0.49124976E+03</pdfrwt>
<totfact> 0.41337628E+04</totfact>
</mgrwt>
</event>
<event>
 8    1  0.9705063E-006  0.3443130E+03  0.7546771E-02  0.1064974E+00
         21   -1    0    0  504  503  0.00000000000E+00  0.00000000000E+00  0.64110304133E+02  0.64110304133E+02  0.00000000000E+00 0.  1.
         21   -1    0    0  503  504 -0.00000000000E+00 -0.00000000000E+00 -0.46229485130E+03  0.46229485130E+03  0.00000000000E+00 0.  1.
         25    2    1    2    0    0  0.69953761787E+02 -0.64661230518E+02 -0.91627603851E+02  0.18191168906E+03  0.12498656452E+03 0.  0.
         25    2    1    2    0    0 -0.69953761787E+02  0.64661230518E+02 -0.30655694331E+03  0.34449346637E+03  0.12499594136E+03 0.  0.
          5    1    3    3  501    0  0.35039964498E+02 -0.42923548654E+01 -0.10488773635E+03  0.11076890656E+03  0.47000000000E+01 0. -1.
         -5    1    3    3    0  501  0.34913797289E+02 -0.60368875653E+02  0.13260132503E+02  0.71142782506E+02  0.47000000000E+01 0. -1.
          5    1    4    4  502    0  0.27365321120E+01 -0.13819435155E+02  0.45040761033E+01  0.15519088167E+02  0.47000000000E+01 0. -1.
         -5    1    4    4    0  502 -0.72690293899E+02  0.78480665673E+02 -0.31106101942E+03  0.32897437820E+03  0.47000000000E+01 0. -1.
<mgrwt>
<rscale>  0 0.34431302E+03</rscale>
<asrwt>0</asrwt>
<pdfrwt beam="1">  1       21 0.98631238E-02 0.34431302E+03</pdfrwt>
<pdfrwt beam="2">  1       21 0.71122284E-01 0.34431302E+03</pdfrwt>
<totfact> 0.14233304E+05</totfact>
</mgrwt>
</event>
<event>
 8    1  0.9705063E-006  0.2853062E+03  0.7546771E-02  0.1092826E+00
         21   -1    0    0  504  503  0.00000000000E+00  0.00000000000E+00  0.94820324759E+02  0.94820324759E+02  0.00000000000E+00 0.  1.
         21   -1    0    0  503  504 -0.00000000000E+00 -0.00000000000E+00 -0.21461549668E+03  0.21461549668E+03  0.00000000000E+00 0.  1.
         25    2    1    2    0    0 -0.10333352929E+02  0.65284322357E+02 -0.39391441667E+02  0.14677655147E+03  0.12499139753E+03 0.  0.
         25    2    1    2    0    0  0.10333352929E+02 -0.65284322357E+02 -0.80403730250E+02  0.16265926996E+03  0.12499782934E+03 0.  0.
          5    1    3    3  501    0  0.56073627610E+02  0.43705754699E+02 -0.23353020078E+02  0.74979318841E+02  0.47000000000E+01 0. -1.
         -5    1    3    3    0  501 -0.66406980539E+02  0.21578567658E+02 -0.16038421589E+02  0.71797232631E+02  0.47000000000E+01 0. -1.
          5    1    4    4  502    0 -0.12229876325E+02  0.33527495085E+02 -0.52143666066E+01  0.36372275441E+02  0.47000000000E+01 0.  1.
         -5    1    4    4    0  502  0.22563229253E+02 -0.98811817442E+02 -0.75189363643E+02  0.12628699452E+03  0.47000000000E+01 0.  1.
<mgrwt>
<rscale>  0 0.28530623E+03</rscale>
<asrwt>0</asrwt>
<pdfrwt beam="1">  1       21 0.14587742E-01 0.28530623E+03</pdfrwt>
<pdfrwt beam="2">  1       21 0.33017768E-01 0.28530623E+03</pdfrwt>
<totfact> 0.35712455E+05</totfact>
</mgrwt>
</event>
<event>
 8    1  0.9705063E-006  0.3032637E+03  0.7546771E-02  0.1083620E+00
         21   -1    0    0  504  503  0.00000000000E+00  0.00000000000E+00  0.23779880573E+03  0.23779880573E+03  0.00000000000E+00 0.  1.
         21   -1    0    0  503  504 -0.00000000000E+00 -0.00000000000E+00 -0.96687676227E+02  0.96687676227E+02  0.00000000000E+00 0.  1.
         25    2    1    2    0    0 -0.29179920294E+02 -0.31561728340E+02  0.15251178029E+03  0.20182512787E+03  0.12500371462E+03 0.  0.
         25    2    1    2    0    0  0.29179920294E+02  0.31561728340E+02 -0.11400650786E+02  0.13266135408E+03  0.12498579753E+03 0.  0.
          5    1    3    3  501    0  0.40771350231E+02 -0.44710378981E+02  0.65100080745E+02  0.89002424131E+02  0.47000000000E+01 0.  1.
         -5    1    3    3    0  501 -0.69951270525E+02  0.13148650641E+02  0.87411699542E+02  0.11282270374E+03  0.47000000000E+01 0.  1.
          5    1    4    4  502    0  0.47791568368E+02 -0.33931978371E+02  0.12929726889E+02  0.60205323690E+02  0.47000000000E+01 0.  1.
         -5    1    4    4    0  502 -0.18611648073E+02  0.65493706711E+02 -0.24330377676E+02  0.72456030395E+02  0.47000000000E+01 0.  1.
<mgrwt>
<rscale>  0 0.30326367E+03</rscale>
<asrwt>0</asrwt>
<pdfrwt beam="1">  1       21 0.36584431E-01 0.30326367E+03</pdfrwt>
<pdfrwt beam="2">  1       21 0.14875027E-01 0.30326367E+03</pdfrwt>
<totfact> 0.27958821E+05</totfact>
</mgrwt>
</event>
<event>
 8    1  0.9705063E-006  0.2896847E+03  0.7546771E-02  0.1090514E+00
         21   -1    0    0  504  503  0.00000000000E+00  0.00000000000E+00  0.21668058816E+02  0.21668058816E+02  0.00000000000E+00 0.  1.
         21   -1    0    0  503  504 -0.00000000000E+00 -0.00000000000E+00 -0.96821320329E+03  0.96821320329E+03  0.00000000000E+00 0.  1.
         25    2    1    2    0    0  0.19034453925E+02  0.32544731972E+02 -0.25923010974E+03  0.29027471674E+03  0.12505075516E+03 0.  0.
         25    2    1    2    0    0 -0.19034453925E+02 -0.32544731972E+02 -0.68731503473E+03  0.69960654537E+03  0.12500356529E+03 0.  0.
          5    1    3    3  501    0 -0.19753774498E+02  0.58783509736E+02 -0.63177940140E+02  0.88652437892E+02  0.47000000000E+01 0. -1.
         -5    1    3    3    0  501  0.38788228423E+02 -0.26238777764E+02 -0.19605216960E+03  0.20162227885E+03  0.47000000000E+01 0. -1.
          5    1    4    4  502    0 -0.85735299330E+01 -0.63166762386E+02 -0.17600887579E+03  0.18725586677E+03  0.47000000000E+01 0. -1.
         -5    1    4    4    0  502 -0.10460923992E+02  0.30622030414E+02 -0.51130615895E+03  0.51235067859E+03  0.47000000000E+01 0. -1.
<mgrwt>
<rscale>  0 0.28968466E+03</rscale>
<asrwt>0</asrwt>
<pdfrwt beam="1">  1       21 0.33335481E-02 0.28968466E+03</pdfrwt>
<pdfrwt beam="2">  1       21 0.14895585E+00 0.28968466E+03</pdfrwt>
<totfact> 0.15593104E+05</totfact>
</mgrwt>
</event>
<event>
 8    1  0.9705063E-006  0.3362836E+03  0.7546771E-02  0.1068390E+00
         21   -1    0    0  504  503  0.00000000000E+00  0.00000000000E+00  0.35484683113E+04  0.35484683113E+04  0.00000000000E+00 0. -1.
         21   -1    0    0  503  504 -0.00000000000E+00 -0.00000000000E+00 -0.79672865659E+01  0.79672865659E+01  0.00000000000E+00 0. -1.
         25    2    1    2    0    0 -0.76754238871E+02  0.42998003176E+02  0.25113981855E+04  0.25160456326E+04  0.12499895056E+03 0.  0.
         25    2    1    2    0    0  0.76754238871E+02 -0.42998003176E+02  0.10291028392E+04  0.10403899653E+04  0.12497433609E+03 0.  0.
          5    1    3    3  501    0 -0.10356060157E+03  0.48462893485E+02  0.15378813654E+04  0.15421331442E+04  0.47000000000E+01 0.  1.
         -5    1    3    3    0  501  0.26806362694E+02 -0.54648903090E+01  0.97351682007E+03  0.97391248840E+03  0.47000000000E+01 0.  1.
          5    1    4    4  502    0  0.29009567682E+02  0.34888371283E+02  0.59540758227E+03  0.59715243656E+03  0.47000000000E+01 0.  1.
         -5    1    4    4    0  502  0.47744671189E+02 -0.77886374458E+02  0.43369525694E+03  0.44323752870E+03  0.47000000000E+01 0.  1.
<mgrwt>
<rscale>  0 0.33628359E+03</rscale>
<asrwt>0</asrwt>
<pdfrwt beam="1">  1       21 0.54591694E+00 0.33628359E+03</pdfrwt>
<pdfrwt beam="2">  1       21 0.12257392E-02 0.33628359E+03</pdfrwt>
<totfact> 0.20453739E+03</totfact>
</mgrwt>
</event>
<event>
 8    1  0.9705063E-006  0.3349487E+03  0.7546771E-02  0.1068968E+00
         21   -1    0    0  504  503  0.00000000000E+00  0.00000000000E+00  0.37925641372E+03  0.37925641372E+03  0.00000000000E+00 0. -1.
         21   -1    0    0  503  504 -0.00000000000E+00 -0.00000000000E+00 -0.73954324723E+02  0.73954324723E+02  0.00000000000E+00 0. -1.
         25    2    1    2    0    0  0.63285050878E+02 -0.91730697708E+02  0.15022401997E+03  0.22496757300E+03  0.12499453651E+03 0.  0.
         25    2    1    2    0    0 -0.63285050878E+02  0.91730697708E+02  0.15507806903E+03  0.22824316545E+03  0.12500486596E+03 0.  0.
          5    1    3    3  501    0 -0.36534962206E+02 -0.11335465613E+02  0.43484399305E+02  0.58105758983E+02  0.47000000000E+01 0. -1.
         -5    1    3    3    0  501  0.99820013084E+02 -0.80395232095E+02  0.10673962066E+03  0.16686181401E+03  0.47000000000E+01 0. -1.
          5    1    4    4  502    0 -0.23996350276E+02  0.42041425743E+02 -0.11490486320E+02  0.49974269188E+02  0.47000000000E+01 0. -1.
         -5    1    4    4    0  502 -0.39288700602E+02  0.49689271966E+02  0.16656855535E+03  0.17826889626E+03  0.47000000000E+01 0. -1.
<mgrwt>
<rscale>  0 0.33494866E+03</rscale>
<asrwt>0</asrwt>
<pdfrwt beam="1">  1       21 0.58347139E-01 0.33494866E+03</pdfrwt>
<pdfrwt beam="2">  1       21 0.11377589E-01 0.33494866E+03</pdfrwt>
<totfact> 0.17075017E+05</totfact>
</mgrwt>
</event>
<event>
 8    1  0.9705063E-006  0.2735008E+03  0.7546771E-02  0.1099293E+00
         21   -1    0    0  504  503  0.00000000000E+00  0.00000000000E+00  0.12257449858E+03  0.12257449858E+03  0.00000000000E+00 0.  1.
         21   -1    0    0  503  504 -0.00000000000E+00 -0.00000000000E+00 -0.15256574160E+03  0.15256574160E+03  0.00000000000E+00 0.  1.
         25    2    1    2    0    0  0.52503334136E+02 -0.12256901648E+02 -0.19192884628E+01  0.13614634041E+03  0.12500124242E+03 0.  0.
         25    2    1    2    0    0 -0.52503334136E+02  0.12256901648E+02 -0.28071954558E+02  0.13899389976E+03  0.12499775119E+03 0.  0.
          5    1    3    3  501    0 -0.22804326546E+02 -0.46541774628E+02 -0.95781342191E+01  0.52915071104E+02  0.47000000000E+01 0. -1.
         -5    1    3    3    0  501  0.75307660683E+02  0.34284872981E+02  0.76588457563E+01  0.83231269311E+02  0.47000000000E+01 0. -1.
          5    1    4    4  502    0  0.34446797274E+02  0.20259115822E+02  0.13134267202E+02  0.42327444894E+02  0.47000000000E+01 0. -1.
         -5    1    4    4    0  502 -0.86950131410E+02 -0.80022141747E+01 -0.41206221760E+02  0.96666454863E+02  0.47000000000E+01 0. -1.
<mgrwt>
<rscale>  0 0.27350078E+03</rscale>
<asrwt>0</asrwt>
<pdfrwt beam="1">  1       21 0.18857615E-01 0.27350078E+03</pdfrwt>
<pdfrwt beam="2">  1       21 0.23471652E-01 0.27350078E+03</pdfrwt>
<totfact> 0.43273202E+05</totfact>
</mgrwt>
</event>
<event>
 8    1  0.9705063E-006  0.2898285E+03  0.7546771E-02  0.1090439E+00
         21   -1    0    0  504  503  0.00000000000E+00  0.00000000000E+00  0.13680934948E+03  0.13680934948E+03  0.00000000000E+00 0.  1.
         21   -1    0    0  503  504 -0.00000000000E+00 -0.00000000000E+00 -0.15349925395E+03  0.15349925395E+03  0.00000000000E+00 0.  1.
         25    2    1    2    0    0 -0.22341304695E+02  0.68814875376E+02 -0.20066344381E+02  0.14584326350E+03  0.12503190938E+03 0.  0.
         25    2    1    2    0    0  0.22341304695E+02 -0.68814875376E+02  0.33764399080E+01  0.14446533994E+03  0.12499685247E+03 0.  0.
          5    1    3    3  501    0 -0.62685566989E+00  0.10315627418E+03 -0.10194107229E+02  0.10376714159E+03  0.47000000000E+01 0. -1.
         -5    1    3    3    0  501 -0.21714449025E+02 -0.34341398808E+02 -0.98722371524E+01  0.42076121910E+02  0.47000000000E+01 0. -1.
          5    1    4    4  502    0 -0.32665522130E+02  0.20077477787E+02 -0.71885391213E+01  0.39292576207E+02  0.47000000000E+01 0.  1.
         -5    1    4    4    0  502  0.55006826825E+02 -0.88892353164E+02  0.10564979029E+02  0.10517276373E+03  0.47000000000E+01 0.  1.
<mgrwt>
<rscale>  0 0.28982845E+03</rscale>
<asrwt>0</asrwt>
<pdfrwt beam="1">  1       21 0.21047592E-01 0.28982845E+03</pdfrwt>
<pdfrwt beam="2">  1       21 0.23615270E-01 0.28982845E+03</pdfrwt>
<totfact> 0.34670849E+05</totfact>
</mgrwt>
</event>
<event>
 8    1  0.9705063E-006  0.2769193E+03  0.7546771E-02  0.1097384E+00
         21   -1    0    0  504  503  0.00000000000E+00  0.00000000000E+00  0.49687106839E+02  0.49687106839E+02  0.00000000000E+00 0. -1.
         21   -1    0    0  503  504 -0.00000000000E+00 -0.00000000000E+00 -0.38583600268E+03  0.38583600268E+03  0.00000000000E+00 0. -1.
         25    2    1    2    0    0  0.21837962743E+02 -0.53275274553E+02 -0.14419742657E+03  0.19933346014E+03  0.12500311598E+03 0.  0.
         25    2    1    2    0    0 -0.21837962743E+02  0.53275274553E+02 -0.19195146927E+03  0.23618964938E+03  0.12500012970E+03 0.  0.
          5    1    3    3  501    0  0.27866304616E+02 -0.43561893832E+02  0.26248412443E+01  0.51991819729E+02  0.47000000000E+01 0. -1.
         -5    1    3    3    0  501 -0.60283418728E+01 -0.97133807215E+01 -0.14682226782E+03  0.14734164041E+03  0.47000000000E+01 0. -1.
          5    1    4    4  502    0 -0.29984088269E+02 -0.30011022873E+02 -0.25220226952E+02  0.49576777736E+02  0.47000000000E+01 0. -1.
         -5    1    4    4    0  502  0.81461255257E+01  0.83286297426E+02 -0.16673124232E+03  0.18661287165E+03  0.47000000000E+01 0. -1.
<mgrwt>
<rscale>  0 0.27691930E+03</rscale>
<asrwt>0</asrwt>
<pdfrwt beam="1">  1       21 0.76441705E-02 0.27691930E+03</pdfrwt>
<pdfrwt beam="2">  1       21 0.59359383E-01 0.27691930E+03</pdfrwt>
<totfact> 0.33757008E+05</totfact>
</mgrwt>
</event>
<event>
 8    1  0.9705063E-006  0.4170165E+03  0.7546771E-02  0.1038042E+00
         21   -1    0    0  504  503  0.00000000000E+00  0.00000000000E+00  0.12317652603E+03  0.12317652603E+03  0.00000000000E+00 0. -1.
         21   -1    0    0  503  504 -0.00000000000E+00 -0.00000000000E+00 -0.35295433038E+03  0.35295433038E+03  0.00000000000E+00 0. -1.
         25    2    1    2    0    0 -0.63339862710E+02  0.58923093906E+02 -0.27783453376E+03  0.31669963876E+03  0.12499105504E+03 0.  0.
         25    2    1    2    0    0  0.63339862710E+02 -0.58923093906E+02  0.48056729403E+02  0.15943121765E+03  0.12499997886E+03 0.  0.
          5    1    3    3  501    0 -0.74058413274E+01  0.12907331869E+02 -0.22828381339E+03  0.22881659721E+03  0.47000000000E+01 0.  1.
         -5    1    3    3    0  501 -0.55934021382E+02  0.46015762037E+02 -0.49550720369E+02  0.87883041555E+02  0.47000000000E+01 0.  1.
          5    1    4    4  502    0  0.19752268874E+02  0.39296223602E+02  0.10091087467E+02  0.45368109519E+02  0.47000000000E+01 0.  1.
         -5    1    4    4    0  502  0.43587593836E+02 -0.98219317508E+02  0.37965641936E+02  0.11406310813E+03  0.47000000000E+01 0.  1.
<mgrwt>
<rscale>  0 0.41701649E+03</rscale>
<asrwt>0</asrwt>
<pdfrwt beam="1">  1       21 0.18950235E-01 0.41701649E+03</pdfrwt>
<pdfrwt beam="2">  1       21 0.54300666E-01 0.41701649E+03</pdfrwt>
<totfact> 0.76412693E+04</totfact>
</mgrwt>
</event>
<event>
 8    1  0.9705063E-006  0.2527455E+03  0.7546771E-02  0.1111582E+00
         21   -1    0    0  504  503  0.00000000000E+00  0.00000000000E+00  0.17083797393E+03  0.17083797393E+03  0.00000000000E+00 0.  1.
         21   -1    0    0  503  504 -0.00000000000E+00 -0.00000000000E+00 -0.93480842933E+02  0.93480842933E+02  0.00000000000E+00 0.  1.
         25    2    1    2    0    0 -0.23281524727E+01  0.16652915054E+02  0.47149115149E+02  0.13465062299E+03  0.12500004535E+03 0.  0.
         25    2    1    2    0    0  0.23281524727E+01 -0.16652915054E+02  0.30208015845E+02  0.12966819387E+03  0.12497430298E+03 0.  0.
          5    1    3    3  501    0  0.52237631621E+02  0.40611585440E+02  0.25771997748E+02  0.71164295101E+02  0.47000000000E+01 0.  1.
         -5    1    3    3    0  501 -0.54565784094E+02 -0.23958670385E+02  0.21377117401E+02  0.63486327889E+02  0.47000000000E+01 0.  1.
          5    1    4    4  502    0 -0.47035510778E+02  0.29914688965E+02  0.25506534150E+02  0.61480900891E+02  0.47000000000E+01 0. -1.
         -5    1    4    4    0  502  0.49363663251E+02 -0.46567604020E+02  0.47014816947E+01  0.68187292979E+02  0.47000000000E+01 0. -1.
<mgrwt>
<rscale>  0 0.25274555E+03</rscale>
<asrwt>0</asrwt>
<pdfrwt beam="1">  1       21 0.26282765E-01 0.25274555E+03</pdfrwt>
<pdfrwt beam="2">  1       21 0.14381668E-01 0.25274555E+03</pdfrwt>
<totfact> 0.57657409E+05</totfact>
</mgrwt>
</event>
<event>
 8    1  0.9705063E-006  0.4311621E+03  0.7546771E-02  0.1033493E+00
         21   -1    0    0  504  503  0.00000000000E+00  0.00000000000E+00  0.19230649031E+03  0.19230649031E+03  0.00000000000E+00 0. -1.
         21   -1    0    0  503  504 -0.00000000000E+00 -0.00000000000E+00 -0.24167249172E+03  0.24167249172E+03  0.00000000000E+00 0. -1.
         25    2    1    2    0    0  0.62893877662E+02 -0.16394971711E+03 -0.20752930178E+02  0.21654265691E+03  0.12499955426E+03 0.  0.
         25    2    1    2    0    0 -0.62893877662E+02  0.16394971711E+03 -0.28613071236E+02  0.21743632511E+03  0.12499879218E+03 0.  0.
          5    1    3    3  501    0  0.53336706701E+02 -0.10018925780E+03  0.46963887338E+02  0.12292431970E+03  0.47000000000E+01 0.  1.
         -5    1    3    3    0  501  0.95571709608E+01 -0.63760459308E+02 -0.67716817516E+02  0.93618337213E+02  0.47000000000E+01 0.  1.
          5    1    4    4  502    0  0.25387059773E+02 -0.10980601551E+01  0.71614577132E+01  0.26815760601E+02  0.47000000000E+01 0.  1.
         -5    1    4    4    0  502 -0.88280937434E+02  0.16504777726E+03 -0.35774528949E+02  0.19062056451E+03  0.47000000000E+01 0.  1.
<mgrwt>
<rscale>  0 0.43116210E+03</rscale>
<asrwt>0</asrwt>
<pdfrwt beam="1">  1       21 0.29585614E-01 0.43116210E+03</pdfrwt>
<pdfrwt beam="2">  1       21 0.37180383E-01 0.43116210E+03</pdfrwt>
<totfact> 0.71104818E+04</totfact>
</mgrwt>
</event>
<event>
 8    1  0.9705063E-006  0.3521170E+03  0.7546771E-02  0.1061749E+00
         21   -1    0    0  504  503  0.00000000000E+00  0.00000000000E+00  0.35100989662E+03  0.35100989662E+03  0.00000000000E+00 0.  1.
         21   -1    0    0  503  504 -0.00000000000E+00 -0.00000000000E+00 -0.88306922140E+02  0.88306922140E+02  0.00000000000E+00 0.  1.
         25    2    1    2    0    0 -0.27566303016E+01  0.21143767513E+02 -0.21002421015E+02  0.12855376791E+03  0.12502124476E+03 0.  0.
         25    2    1    2    0    0  0.27566303016E+01 -0.21143767513E+02  0.28370539549E+03  0.31076305085E+03  0.12502105593E+03 0.  0.
          5    1    3    3  501    0  0.41780593691E+02 -0.28430904355E+02  0.14651857627E+02  0.52827088350E+02  0.47000000000E+01 0. -1.
         -5    1    3    3    0  501 -0.44537223992E+02  0.49574671868E+02 -0.35654278642E+02  0.75726679560E+02  0.47000000000E+01 0. -1.
          5    1    4    4  502    0  0.37427293001E+02  0.20554680462E+02  0.32873696862E+02  0.54093133536E+02  0.47000000000E+01 0. -1.
         -5    1    4    4    0  502 -0.34670662700E+02 -0.41698447975E+02  0.25083169863E+03  0.25666991731E+03  0.47000000000E+01 0. -1.
<mgrwt>
<rscale>  0 0.35211705E+03</rscale>
<asrwt>0</asrwt>
<pdfrwt beam="1">  1       21 0.54001522E-01 0.35211705E+03</pdfrwt>
<pdfrwt beam="2">  1       21 0.13585681E-01 0.35211705E+03</pdfrwt>
<totfact> 0.14559399E+05</totfact>
</mgrwt>
</event>
<event>
 8    1  0.9705063E-006  0.2615980E+03  0.7546771E-02  0.1106187E+00
         21   -1    0    0  504  503  0.00000000000E+00  0.00000000000E+00  0.17311403969E+03  0.17311403969E+03  0.00000000000E+00 0. -1.
         21   -1    0    0  503  504 -0.00000000000E+00 -0.00000000000E+00 -0.98827238298E+02  0.98827238298E+02  0.00000000000E+00 0. -1.
         25    2    1    2    0    0  0.17054548000E+02 -0.27797867140E+02  0.58458435911E+02  0.14179509578E+03  0.12499952574E+03 0.  0.
         25    2    1    2    0    0 -0.17054548000E+02  0.27797867140E+02  0.15828365479E+02  0.13014618220E+03  0.12499565018E+03 0.  0.
          5    1    3    3  501    0 -0.89031454535E+01  0.25247479194E+02  0.75423055936E+02  0.80171245290E+02  0.47000000000E+01 0. -1.
         -5    1    3    3    0  501  0.25957693454E+02 -0.53045346334E+02 -0.16964620025E+02  0.61623850494E+02  0.47000000000E+01 0. -1.
          5    1    4    4  502    0 -0.25833048944E+02  0.14645123085E+02 -0.52149401727E+02  0.60195316665E+02  0.47000000000E+01 0.  1.
         -5    1    4    4    0  502  0.87785009437E+01  0.13152744056E+02  0.67977767206E+02  0.69950865537E+02  0.47000000000E+01 0.  1.
<mgrwt>
<rscale>  0 0.26159803E+03</rscale>
<asrwt>0</asrwt>
<pdfrwt beam="1">  1       21 0.26632929E-01 0.26159803E+03</pdfrwt>
<pdfrwt beam="2">  1       21 0.15204191E-01 0.26159803E+03</pdfrwt>
<totfact> 0.50683826E+05</totfact>
</mgrwt>
</event>
<event>
 8    1  0.9705063E-006  0.6967792E+03  0.7546771E-02  0.9722756E-01
         21   -1    0    0  504  503  0.00000000000E+00  0.00000000000E+00  0.28177645215E+03  0.28177645215E+03  0.00000000000E+00 0. -1.
         21   -1    0    0  503  504 -0.00000000000E+00 -0.00000000000E+00 -0.43075034984E+03  0.43075034984E+03  0.00000000000E+00 0. -1.
         25    2    1    2    0    0  0.24624557370E+03 -0.47686459037E+01  0.14265822340E+03  0.31086327262E+03  0.12499993203E+03 0.  0.
         25    2    1    2    0    0 -0.24624557370E+03  0.47686459037E+01 -0.29163212110E+03  0.40166352937E+03  0.12499869686E+03 0.  0.
          5    1    3    3  501    0  0.19071371770E+03 -0.16483491273E+02  0.16189887815E+03  0.25075239650E+03  0.47000000000E+01 0.  1.
         -5    1    3    3    0  501  0.55531856000E+02  0.11714845369E+02 -0.19240654746E+02  0.60110876120E+02  0.47000000000E+01 0.  1.
          5    1    4    4  502    0 -0.25488210218E+03  0.22013251969E+02 -0.26412053673E+03  0.36773797356E+03  0.47000000000E+01 0.  1.
         -5    1    4    4    0  502  0.86365284800E+01 -0.17244606065E+02 -0.27511584369E+02  0.33925555810E+02  0.47000000000E+01 0.  1.
<mgrwt>
<rscale>  0 0.69677918E+03</rscale>
<asrwt>0</asrwt>
<pdfrwt beam="1">  1       21 0.43350224E-01 0.69677918E+03</pdfrwt>
<pdfrwt beam="2">  1       21 0.66269284E-01 0.69677918E+03</pdfrwt>
<totfact> 0.89937228E+03</totfact>
</mgrwt>
</event>
<event>
 8    1  0.9705063E-006  0.2897144E+03  0.7546771E-02  0.1090498E+00
         21   -1    0    0  504  503  0.00000000000E+00  0.00000000000E+00  0.76591344316E+02  0.76591344316E+02  0.00000000000E+00 0. -1.
         21   -1    0    0  503  504 -0.00000000000E+00 -0.00000000000E+00 -0.27396831649E+03  0.27396831649E+03  0.00000000000E+00 0. -1.
         25    2    1    2    0    0  0.30966929325E+02  0.49855369656E+02 -0.15162511620E+03  0.20508523108E+03  0.12500107019E+03 0.  0.
         25    2    1    2    0    0 -0.30966929325E+02 -0.49855369656E+02 -0.45751855972E+02  0.14547442972E+03  0.12500027513E+03 0.  0.
          5    1    3    3  501    0  0.72253831481E+02  0.90195996492E+01 -0.51732569008E+02  0.89444496967E+02  0.47000000000E+01 0. -1.
         -5    1    3    3    0  501 -0.41286902156E+02  0.40835770007E+02 -0.99892547189E+02  0.11564073411E+03  0.47000000000E+01 0. -1.
          5    1    4    4  502    0 -0.15110363769E+02  0.24524767101E+02  0.27264954206E+02  0.39940643741E+02  0.47000000000E+01 0. -1.
         -5    1    4    4    0  502 -0.15856565556E+02 -0.74380136758E+02 -0.73016810178E+02  0.10553378598E+03  0.47000000000E+01 0. -1.
<mgrwt>
<rscale>  0 0.28971435E+03</rscale>
<asrwt>0</asrwt>
<pdfrwt beam="1">  1       21 0.11783284E-01 0.28971435E+03</pdfrwt>
<pdfrwt beam="2">  1       21 0.42148972E-01 0.28971435E+03</pdfrwt>
<totfact> 0.32115764E+05</totfact>
</mgrwt>
</event>
<event>
 8    1  0.9705063E-006  0.6232832E+03  0.7546771E-02  0.9858244E-01
         21   -1    0    0  504  503  0.00000000000E+00  0.00000000000E+00  0.27235527523E+04  0.27235527523E+04  0.00000000000E+00 0. -1.
         21   -1    0    0  503  504 -0.00000000000E+00 -0.00000000000E+00 -0.35659489513E+02  0.35659489513E+02  0.00000000000E+00 0. -1.
         25    2    1    2    0    0  0.19081657581E+03  0.14769451338E+03  0.66862730577E+03  0.72174189207E+03  0.12499699940E+03 0.  0.
         25    2    1    2    0    0 -0.19081657581E+03 -0.14769451338E+03  0.20192659570E+04  0.20374703497E+04  0.12500314411E+03 0.  0.
          5    1    3    3  501    0  0.18425698429E+03  0.15260125416E+03  0.51558099000E+03  0.56840445660E+03  0.47000000000E+01 0. -1.
         -5    1    3    3    0  501  0.65595915209E+01 -0.49067407797E+01  0.15304631577E+03  0.15333743547E+03  0.47000000000E+01 0. -1.
          5    1    4    4  502    0 -0.18798744198E+03 -0.14989229429E+03  0.15827428649E+04  0.16009072567E+04  0.47000000000E+01 0. -1.
         -5    1    4    4    0  502 -0.28291338301E+01  0.21977809122E+01  0.43652309212E+03  0.43656309303E+03  0.47000000000E+01 0. -1.
<mgrwt>
<rscale>  0 0.62328324E+03</rscale>
<asrwt>0</asrwt>
<pdfrwt beam="1">  1       21 0.41900795E+00 0.62328324E+03</pdfrwt>
<pdfrwt beam="2">  1       21 0.54860775E-02 0.62328324E+03</pdfrwt>
<totfact> 0.10950941E+03</totfact>
</mgrwt>
</event>
<event>
 8    1  0.9705063E-006  0.2547792E+03  0.7546771E-02  0.1110321E+00
         21   -1    0    0  504  503  0.00000000000E+00  0.00000000000E+00  0.11985617853E+02  0.11985617853E+02  0.00000000000E+00 0. -1.
         21   -1    0    0  503  504 -0.00000000000E+00 -0.00000000000E+00 -0.13539656197E+04  0.13539656197E+04  0.00000000000E+00 0. -1.
         25    2    1    2    0    0  0.21442493532E+01 -0.18142531152E+02 -0.58312212381E+03  0.59665068946E+03  0.12500753862E+03 0.  0.
         25    2    1    2    0    0 -0.21442493532E+01  0.18142531152E+02 -0.75885787808E+03  0.76930054814E+03  0.12499721997E+03 0.  0.
          5    1    3    3  501    0  0.98191451036E+01  0.88950160067E+01 -0.12854594533E+01  0.14116632967E+02  0.47000000000E+01 0. -1.
         -5    1    3    3    0  501 -0.76748957504E+01 -0.27037547158E+02 -0.58183666436E+03  0.58253405649E+03  0.47000000000E+01 0. -1.
          5    1    4    4  502    0 -0.28652634903E+02 -0.31670217513E+02 -0.58235318166E+03  0.58393603619E+03  0.47000000000E+01 0.  1.
         -5    1    4    4    0  502  0.26508385550E+02  0.49812748664E+02 -0.17650469642E+03  0.18536451195E+03  0.47000000000E+01 0.  1.
<mgrwt>
<rscale>  0 0.25477923E+03</rscale>
<asrwt>0</asrwt>
<pdfrwt beam="1">  1       21 0.18439402E-02 0.25477923E+03</pdfrwt>
<pdfrwt beam="2">  1       21 0.20830252E+00 0.25477923E+03</pdfrwt>
<totfact> 0.16199458E+05</totfact>
</mgrwt>
</event>
<event>
 8    1  0.9705063E-006  0.3158620E+03  0.7546771E-02  0.1077570E+00
         21   -1    0    0  504  503  0.00000000000E+00  0.00000000000E+00  0.42872965852E+03  0.42872965852E+03  0.00000000000E+00 0.  1.
         21   -1    0    0  503  504 -0.00000000000E+00 -0.00000000000E+00 -0.58176997448E+02  0.58176997448E+02  0.00000000000E+00 0.  1.
         25    2    1    2    0    0 -0.18401619628E+02 -0.91358441544E+02  0.22401534845E+03  0.27293206742E+03  0.12499621051E+03 0.  0.
         25    2    1    2    0    0  0.18401619628E+02  0.91358441544E+02  0.14653731263E+03  0.21397458855E+03  0.12500782418E+03 0.  0.
          5    1    3    3  501    0 -0.57163481841E+02 -0.10013199252E+03  0.17552973569E+03  0.21006393716E+03  0.47000000000E+01 0. -1.
         -5    1    3    3    0  501  0.38761862212E+02  0.87735509742E+01  0.48485612753E+02  0.62868130264E+02  0.47000000000E+01 0. -1.
          5    1    4    4  502    0  0.58101672266E+02  0.67040037405E+02  0.39633327139E+02  0.97278268671E+02  0.47000000000E+01 0. -1.
         -5    1    4    4    0  502 -0.39700052638E+02  0.24318404139E+02  0.10690398549E+03  0.11669631988E+03  0.47000000000E+01 0. -1.
<mgrwt>
<rscale>  0 0.31586202E+03</rscale>
<asrwt>0</asrwt>
<pdfrwt beam="1">  1       21 0.65958407E-01 0.31586202E+03</pdfrwt>
<pdfrwt beam="2">  1       21 0.89503076E-02 0.31586202E+03</pdfrwt>
<totfact> 0.20138953E+05</totfact>
</mgrwt>
</event>
<event>
 8    1  0.9705063E-006  0.2650359E+03  0.7546771E-02  0.1104155E+00
         21   -1    0    0  504  503  0.00000000000E+00  0.00000000000E+00  0.33405173128E+03  0.33405173128E+03  0.00000000000E+00 0.  1.
         21   -1    0    0  503  504 -0.00000000000E+00 -0.00000000000E+00 -0.52569716400E+02  0.52569716400E+02  0.00000000000E+00 0.  1.
         25    2    1    2    0    0 -0.12452344031E+02  0.19044179571E+02  0.19580782219E+03  0.23338026204E+03  0.12493158861E+03 0.  0.
         25    2    1    2    0    0  0.12452344031E+02 -0.19044179571E+02  0.85674192687E+02  0.15324118564E+03  0.12500020814E+03 0.  0.
          5    1    3    3  501    0  0.24813973044E+02  0.83588938102E+01  0.19234421506E+03  0.19417515658E+03  0.47000000000E+01 0. -1.
         -5    1    3    3    0  501 -0.37266317075E+02  0.10685285761E+02  0.34636071299E+01  0.39205105464E+02  0.47000000000E+01 0. -1.
          5    1    4    4  502    0  0.43289344750E+02 -0.32897928982E+02 -0.64913732265E+01  0.54958793896E+02  0.47000000000E+01 0. -1.
         -5    1    4    4    0  502 -0.30837000719E+02  0.13853749411E+02  0.92165565914E+02  0.98282391741E+02  0.47000000000E+01 0. -1.
<mgrwt>
<rscale>  0 0.26503588E+03</rscale>
<asrwt>0</asrwt>
<pdfrwt beam="1">  1       21 0.51392573E-01 0.26503588E+03</pdfrwt>
<pdfrwt beam="2">  1       21 0.80876489E-02 0.26503588E+03</pdfrwt>
<totfact> 0.41701228E+05</totfact>
</mgrwt>
</event>
<event>
 8    1  0.9705063E-006  0.2720256E+03  0.7546771E-02  0.1100126E+00
         21   -1    0    0  504  503  0.00000000000E+00  0.00000000000E+00  0.31259537012E+02  0.31259537012E+02  0.00000000000E+00 0. -1.
         21   -1    0    0  503  504 -0.00000000000E+00 -0.00000000000E+00 -0.59180262944E+03  0.59180262944E+03  0.00000000000E+00 0. -1.
         25    2    1    2    0    0 -0.21827468549E+02 -0.18157676779E+02 -0.17612894025E+03  0.21784004891E+03  0.12500697462E+03 0.  0.
         25    2    1    2    0    0  0.21827468549E+02  0.18157676779E+02 -0.38441415217E+03  0.40522211754E+03  0.12499833817E+03 0.  0.
          5    1    3    3  501    0 -0.34716238015E+02 -0.67869623104E+02 -0.11164615439E+03  0.13527178831E+03  0.47000000000E+01 0.  1.
         -5    1    3    3    0  501  0.12888769466E+02  0.49711946325E+02 -0.64482785863E+02  0.82568260599E+02  0.47000000000E+01 0.  1.
          5    1    4    4  502    0  0.12385892043E+02  0.71215779388E+02 -0.25141457289E+03  0.26164188315E+03  0.47000000000E+01 0. -1.
         -5    1    4    4    0  502  0.94415765064E+01 -0.53058102609E+02 -0.13299957928E+03  0.14358023439E+03  0.47000000000E+01 0. -1.
<mgrwt>
<rscale>  0 0.27202556E+03</rscale>
<asrwt>0</asrwt>
<pdfrwt beam="1">  1       21 0.48091599E-02 0.27202556E+03</pdfrwt>
<pdfrwt beam="2">  1       21 0.91046552E-01 0.27202556E+03</pdfrwt>
<totfact> 0.28756299E+05</totfact>
</mgrwt>
</event>
<event>
 8    1  0.9705063E-006  0.2681399E+03  0.7546771E-02  0.1102349E+00
         21   -1    0    0  504  503  0.00000000000E+00  0.00000000000E+00  0.97991192129E+02  0.97991192129E+02  0.00000000000E+00 0.  1.
         21   -1    0    0  503  504 -0.00000000000E+00 -0.00000000000E+00 -0.18343236694E+03  0.18343236694E+03  0.00000000000E+00 0.  1.
         25    2    1    2    0    0  0.17958222524E+02  0.27099061213E+02 -0.51510043860E+01  0.12934870229E+03  0.12509075530E+03 0.  0.
         25    2    1    2    0    0 -0.17958222524E+02 -0.27099061213E+02 -0.80290170420E+02  0.15207485678E+03  0.12499357473E+03 0.  0.
          5    1    3    3  501    0  0.89023933943E+01 -0.14219960631E+02 -0.58536590342E+02  0.61074399689E+02  0.47000000000E+01 0. -1.
         -5    1    3    3    0  501  0.90558291295E+01  0.41319021844E+02  0.53385585956E+02  0.68274302598E+02  0.47000000000E+01 0. -1.
          5    1    4    4  502    0 -0.53262088791E+02 -0.57557307420E+02 -0.67296353005E+02  0.10344362169E+03  0.47000000000E+01 0.  1.
         -5    1    4    4    0  502  0.35303866268E+02  0.30458246207E+02 -0.12993817415E+02  0.48631235091E+02  0.47000000000E+01 0.  1.
<mgrwt>
<rscale>  0 0.26813994E+03</rscale>
<asrwt>0</asrwt>
<pdfrwt beam="1">  1       21 0.15075568E-01 0.26813994E+03</pdfrwt>
<pdfrwt beam="2">  1       21 0.28220364E-01 0.26813994E+03</pdfrwt>
<totfact> 0.45949877E+05</totfact>
</mgrwt>
</event>
<event>
 8    1  0.9705063E-006  0.2737793E+03  0.7546771E-02  0.1099136E+00
         21   -1    0    0  504  503  0.00000000000E+00  0.00000000000E+00  0.12487174457E+04  0.12487174457E+04  0.00000000000E+00 0. -1.
         21   -1    0    0  503  504 -0.00000000000E+00 -0.00000000000E+00 -0.15006417169E+02  0.15006417169E+02  0.00000000000E+00 0. -1.
         25    2    1    2    0    0  0.38821430130E+02  0.28708845336E+02  0.48766836621E+03  0.50574248698E+03  0.12499490585E+03 0.  0.
         25    2    1    2    0    0 -0.38821430130E+02 -0.28708845336E+02  0.74604266236E+03  0.75798137594E+03  0.12499924386E+03 0.  0.
          5    1    3    3  501    0 -0.32936742330E+02 -0.19595477867E+02  0.78232325419E+02  0.87242182966E+02  0.47000000000E+01 0. -1.
         -5    1    3    3    0  501  0.71758172460E+02  0.48304323203E+02  0.40943604080E+03  0.41850030401E+03  0.47000000000E+01 0. -1.
          5    1    4    4  502    0 -0.85397698409E+01 -0.23442978535E+02  0.22961138621E+02  0.34231634467E+02  0.47000000000E+01 0.  1.
         -5    1    4    4    0  502 -0.30281660289E+02 -0.52658668011E+01  0.72308152374E+03  0.72374974147E+03  0.47000000000E+01 0.  1.
<mgrwt>
<rscale>  0 0.27377929E+03</rscale>
<asrwt>0</asrwt>
<pdfrwt beam="1">  1       21 0.19211029E+00 0.27377929E+03</pdfrwt>
<pdfrwt beam="2">  1       21 0.23086805E-02 0.27377929E+03</pdfrwt>
<totfact> 0.14171690E+05</totfact>
</mgrwt>
</event>
<event>
 8    1  0.9705063E-006  0.3499023E+03  0.7546771E-02  0.1062655E+00
         21   -1    0    0  504  503  0.00000000000E+00  0.00000000000E+00  0.49283681228E+02  0.49283681228E+02  0.00000000000E+00 0.  1.
         21   -1    0    0  503  504 -0.00000000000E+00 -0.00000000000E+00 -0.62105559331E+03  0.62105559331E+03  0.00000000000E+00 0.  1.
         25    2    1    2    0    0  0.33496293635E+02  0.11444491898E+03 -0.23297025548E+03  0.29003402596E+03  0.12499982044E+03 0.  0.
         25    2    1    2    0    0 -0.33496293635E+02 -0.11444491898E+03 -0.33880165660E+03  0.38030524858E+03  0.12500351360E+03 0.  0.
          5    1    3    3  501    0  0.42383172691E+02 -0.86401973349E+01 -0.97238763842E+02  0.10652912058E+03  0.47000000000E+01 0.  1.
         -5    1    3    3    0  501 -0.88868790564E+01  0.12308511632E+03 -0.13573149163E+03  0.18350490538E+03  0.47000000000E+01 0.  1.
          5    1    4    4  502    0 -0.18563293901E+01  0.43344455038E+01 -0.17664418374E+03  0.17676959870E+03  0.47000000000E+01 0. -1.
         -5    1    4    4    0  502 -0.31639964245E+02 -0.11877936448E+03 -0.16215747287E+03  0.20353564988E+03  0.47000000000E+01 0. -1.
<mgrwt>
<rscale>  0 0.34990231E+03</rscale>
<asrwt>0</asrwt>
<pdfrwt beam="1">  1       21 0.75821049E-02 0.34990231E+03</pdfrwt>
<pdfrwt beam="2">  1       21 0.95547013E-01 0.34990231E+03</pdfrwt>
<totfact> 0.11451445E+05</totfact>
</mgrwt>
</event>
<event>
 8    1  0.9705063E-006  0.3181585E+03  0.7546771E-02  0.1076500E+00
         21   -1    0    0  504  503  0.00000000000E+00  0.00000000000E+00  0.15151502199E+02  0.15151502199E+02  0.00000000000E+00 0. -1.
         21   -1    0    0  503  504 -0.00000000000E+00 -0.00000000000E+00 -0.16702108048E+04  0.16702108048E+04  0.00000000000E+00 0. -1.
         25    2    1    2    0    0 -0.89563167104E+02 -0.81224793923E+01 -0.61598334062E+03  0.63493935875E+03  0.12499991121E+03 0.  0.
         25    2    1    2    0    0  0.89563167104E+02  0.81224793923E+01 -0.10390759620E+04  0.10504229482E+04  0.12498791885E+03 0.  0.
          5    1    3    3  501    0 -0.56795058388E+02 -0.60883264862E+02 -0.24602891563E+03  0.25977830534E+03  0.47000000000E+01 0. -1.
         -5    1    3    3    0  501 -0.32768108716E+02  0.52760785469E+02 -0.36995442499E+03  0.37516105342E+03  0.47000000000E+01 0. -1.
          5    1    4    4  502    0 -0.17254430108E+02 -0.30335324290E+02 -0.14800568625E+03  0.15213717633E+03  0.47000000000E+01 0. -1.
         -5    1    4    4    0  502  0.10681759721E+03  0.38457803683E+02 -0.89107027573E+03  0.89828577191E+03  0.47000000000E+01 0. -1.
<mgrwt>
<rscale>  0 0.31815847E+03</rscale>
<asrwt>0</asrwt>
<pdfrwt beam="1">  1       21 0.23310007E-02 0.31815847E+03</pdfrwt>
<pdfrwt beam="2">  1       21 0.25695547E+00 0.31815847E+03</pdfrwt>
<totfact> 0.53726872E+04</totfact>
</mgrwt>
</event>
<event>
 8    1  0.9705063E-006  0.3257492E+03  0.7546771E-02  0.1073033E+00
         21   -1    0    0  504  503  0.00000000000E+00  0.00000000000E+00  0.48421734108E+03  0.48421734108E+03  0.00000000000E+00 0.  1.
         21   -1    0    0  503  504 -0.00000000000E+00 -0.00000000000E+00 -0.54785609515E+02  0.54785609515E+02  0.00000000000E+00 0.  1.
         25    2    1    2    0    0  0.34905809926E+02 -0.39959301391E+02  0.36346596295E+03  0.38800520006E+03  0.12500147086E+03 0.  0.
         25    2    1    2    0    0 -0.34905809926E+02  0.39959301391E+02  0.65965768616E+02  0.15099775053E+03  0.12503470200E+03 0.  0.
          5    1    3    3  501    0  0.67714810922E+01 -0.17908735268E+02 -0.28497698640E+01  0.19919511625E+02  0.47000000000E+01 0. -1.
         -5    1    3    3    0  501  0.28134328834E+02 -0.22050566123E+02  0.36631573282E+03  0.36808568844E+03  0.47000000000E+01 0. -1.
          5    1    4    4  502    0 -0.28721629993E+02  0.45240425141E+01 -0.33805331096E+02  0.44836250965E+02  0.47000000000E+01 0. -1.
         -5    1    4    4    0  502 -0.61841799332E+01  0.35435258877E+02  0.99771099712E+02  0.10616149957E+03  0.47000000000E+01 0. -1.
<mgrwt>
<rscale>  0 0.32574924E+03</rscale>
<asrwt>0</asrwt>
<pdfrwt beam="1">  1       21 0.74494972E-01 0.32574924E+03</pdfrwt>
<pdfrwt beam="2">  1       21 0.84285557E-02 0.32574924E+03</pdfrwt>
<totfact> 0.17026246E+05</totfact>
</mgrwt>
</event>
<event>
 8    1  0.9705063E-006  0.3058232E+03  0.7546771E-02  0.1082365E+00
         21   -1    0    0  504  503  0.00000000000E+00  0.00000000000E+00  0.65681218732E+02  0.65681218732E+02  0.00000000000E+00 0.  1.
         21   -1    0    0  503  504 -0.00000000000E+00 -0.00000000000E+00 -0.35599154437E+03  0.35599154437E+03  0.00000000000E+00 0.  1.
         25    2    1    2    0    0 -0.78927372301E+02  0.36609629570E+02 -0.12630697160E+03  0.19786241008E+03  0.12500514857E+03 0.  0.
         25    2    1    2    0    0  0.78927372301E+02 -0.36609629570E+02 -0.16400335404E+03  0.22381035302E+03  0.12499671560E+03 0.  0.
          5    1    3    3  501    0 -0.52812997399E+02 -0.42488972654E+02 -0.67610766925E+02  0.95853175720E+02  0.47000000000E+01 0.  1.
         -5    1    3    3    0  501 -0.26114374902E+02  0.79098602224E+02 -0.58696204676E+02  0.10200923436E+03  0.47000000000E+01 0.  1.
          5    1    4    4  502    0  0.28685725429E+01 -0.31096466993E+02  0.10527621667E+02  0.33288733617E+02  0.47000000000E+01 0.  1.
         -5    1    4    4    0  502  0.76058799758E+02 -0.55131625768E+01 -0.17453097570E+03  0.19052161941E+03  0.47000000000E+01 0.  1.
<mgrwt>
<rscale>  0 0.30582321E+03</rscale>
<asrwt>0</asrwt>
<pdfrwt beam="1">  1       21 0.10104803E-01 0.30582321E+03</pdfrwt>
<pdfrwt beam="2">  1       21 0.54767929E-01 0.30582321E+03</pdfrwt>
<totfact> 0.24361876E+05</totfact>
</mgrwt>
</event>
<event>
 8    1  0.9705063E-006  0.2822511E+03  0.7546771E-02  0.1094466E+00
         21   -1    0    0  504  503  0.00000000000E+00  0.00000000000E+00  0.14783838403E+03  0.14783838403E+03  0.00000000000E+00 0.  1.
         21   -1    0    0  503  504 -0.00000000000E+00 -0.00000000000E+00 -0.13471753141E+03  0.13471753141E+03  0.00000000000E+00 0.  1.
         25    2    1    2    0    0 -0.10537469705E+02 -0.20531561788E+02 -0.54822515656E+02  0.13843209866E+03  0.12500141766E+03 0.  0.
         25    2    1    2    0    0  0.10537469705E+02  0.20531561788E+02  0.67943368276E+02  0.14412381678E+03  0.12499115958E+03 0.  0.
          5    1    3    3  501    0  0.52307943822E+02 -0.30332281208E+02 -0.12599085571E+02  0.61943484140E+02  0.47000000000E+01 0.  1.
         -5    1    3    3    0  501 -0.62845413527E+02  0.98007194197E+01 -0.42223430085E+02  0.76488614516E+02  0.47000000000E+01 0.  1.
          5    1    4    4  502    0  0.45537357549E+02 -0.67775428577E+01  0.84637110972E+02  0.96463032160E+02  0.47000000000E+01 0. -1.
         -5    1    4    4    0  502 -0.34999887844E+02  0.27309104646E+02 -0.16693742696E+02  0.47660784623E+02  0.47000000000E+01 0. -1.
<mgrwt>
<rscale>  0 0.28225111E+03</rscale>
<asrwt>0</asrwt>
<pdfrwt beam="1">  1       21 0.22744367E-01 0.28225111E+03</pdfrwt>
<pdfrwt beam="2">  1       21 0.20725774E-01 0.28225111E+03</pdfrwt>
<totfact> 0.38410419E+05</totfact>
</mgrwt>
</event>
<event>
 8    1  0.9705063E-006  0.3256172E+03  0.7546771E-02  0.1073093E+00
         21   -1    0    0  504  503  0.00000000000E+00  0.00000000000E+00  0.21941706886E+03  0.21941706886E+03  0.00000000000E+00 0. -1.
         21   -1    0    0  503  504 -0.00000000000E+00 -0.00000000000E+00 -0.12080485010E+03  0.12080485010E+03  0.00000000000E+00 0. -1.
         25    2    1    2    0    0  0.47565131069E+02 -0.91179479399E+02  0.67446141811E+02  0.17535595761E+03  0.12499836265E+03 0.  0.
         25    2    1    2    0    0 -0.47565131069E+02  0.91179479399E+02  0.31166076943E+02  0.16486596135E+03  0.12503328238E+03 0.  0.
          5    1    3    3  501    0  0.13518143516E+02 -0.52899503013E+02  0.10031421587E+03  0.11430717182E+03  0.47000000000E+01 0. -1.
         -5    1    3    3    0  501  0.34046987553E+02 -0.38279976386E+02 -0.32868074061E+02  0.61048785787E+02  0.47000000000E+01 0. -1.
          5    1    4    4  502    0 -0.61986392336E+02  0.11136496192E+03  0.45999426844E+02  0.13558209634E+03  0.47000000000E+01 0.  1.
         -5    1    4    4    0  502  0.14421261267E+02 -0.20185482517E+02 -0.14833349902E+02  0.29283865016E+02  0.47000000000E+01 0.  1.
<mgrwt>
<rscale>  0 0.32561724E+03</rscale>
<asrwt>0</asrwt>
<pdfrwt beam="1">  1       21 0.33756472E-01 0.32561724E+03</pdfrwt>
<pdfrwt beam="2">  1       21 0.18585362E-01 0.32561724E+03</pdfrwt>
<totfact> 0.21635988E+05</totfact>
</mgrwt>
</event>
<event>
 8    1  0.9705063E-006  0.2546497E+03  0.7546771E-02  0.1110401E+00
         21   -1    0    0  504  503  0.00000000000E+00  0.00000000000E+00  0.13515812090E+02  0.13515812090E+02  0.00000000000E+00 0. -1.
         21   -1    0    0  503  504 -0.00000000000E+00 -0.00000000000E+00 -0.11994560321E+04  0.11994560321E+04  0.00000000000E+00 0. -1.
         25    2    1    2    0    0  0.64544452307E+01 -0.16231803316E+02 -0.51434521772E+03  0.52960426364E+03  0.12499816705E+03 0.  0.
         25    2    1    2    0    0 -0.64544452307E+01  0.16231803316E+02 -0.67159500228E+03  0.68336758054E+03  0.12508505807E+03 0.  0.
          5    1    3    3  501    0  0.19548341431E+02  0.15704809792E+02 -0.48002569688E+03  0.48070317075E+03  0.47000000000E+01 0.  1.
         -5    1    3    3    0  501 -0.13093896200E+02 -0.31936613108E+02 -0.34319520840E+02  0.48901092884E+02  0.47000000000E+01 0.  1.
          5    1    4    4  502    0 -0.36988902323E+02  0.57638765893E+02 -0.48184182353E+03  0.48670734444E+03  0.47000000000E+01 0. -1.
         -5    1    4    4    0  502  0.30534457093E+02 -0.41406962577E+02 -0.18975317875E+03  0.19666023611E+03  0.47000000000E+01 0. -1.
<mgrwt>
<rscale>  0 0.25464974E+03</rscale>
<asrwt>0</asrwt>
<pdfrwt beam="1">  1       21 0.20793552E-02 0.25464974E+03</pdfrwt>
<pdfrwt beam="2">  1       21 0.18453174E+00 0.25464974E+03</pdfrwt>
<totfact> 0.19068323E+05</totfact>
</mgrwt>
</event>
<event>
 8    1  0.9705063E-006  0.3212016E+03  0.7546771E-02  0.1075098E+00
         21   -1    0    0  504  503  0.00000000000E+00  0.00000000000E+00  0.40968039392E+03  0.40968039392E+03  0.00000000000E+00 0. -1.
         21   -1    0    0  503  504 -0.00000000000E+00 -0.00000000000E+00 -0.62957889392E+02  0.62957889392E+02  0.00000000000E+00 0. -1.
         25    2    1    2    0    0 -0.73191575899E+02 -0.97513105735E+01  0.72299503462E+02  0.16218492746E+03  0.12499855061E+03 0.  0.
         25    2    1    2    0    0  0.73191575899E+02  0.97513105735E+01  0.27442300106E+03  0.31045335585E+03  0.12498483030E+03 0.  0.
          5    1    3    3  501    0 -0.92366854530E+02  0.25205615293E+00  0.64452955876E+01  0.92711008964E+02  0.47000000000E+01 0. -1.
         -5    1    3    3    0  501  0.19175278630E+02 -0.10003366726E+02  0.65854207874E+02  0.69473918495E+02  0.47000000000E+01 0. -1.
          5    1    4    4  502    0  0.45009836656E+02  0.19640558337E+02  0.18401805556E+02  0.52653142122E+02  0.47000000000E+01 0.  1.
         -5    1    4    4    0  502  0.28181739243E+02 -0.98892477634E+01  0.25602119551E+03  0.25780021373E+03  0.47000000000E+01 0.  1.
<mgrwt>
<rscale>  0 0.32120157E+03</rscale>
<asrwt>0</asrwt>
<pdfrwt beam="1">  1       21 0.63027751E-01 0.32120157E+03</pdfrwt>
<pdfrwt beam="2">  1       21 0.96858294E-02 0.32120157E+03</pdfrwt>
<totfact> 0.19319428E+05</totfact>
</mgrwt>
</event>
<event>
 8    1  0.9705063E-006  0.2979286E+03  0.7546771E-02  0.1086281E+00
         21   -1    0    0  504  503  0.00000000000E+00  0.00000000000E+00  0.15325630077E+03  0.15325630077E+03  0.00000000000E+00 0. -1.
         21   -1    0    0  503  504 -0.00000000000E+00 -0.00000000000E+00 -0.14479252127E+03  0.14479252127E+03  0.00000000000E+00 0. -1.
         25    2    1    2    0    0  0.33476759963E+01  0.15635566527E+02  0.83688687762E+02  0.15128017317E+03  0.12500486574E+03 0.  0.
         25    2    1    2    0    0 -0.33476759963E+01 -0.15635566527E+02 -0.75224908261E+02  0.14676864888E+03  0.12500628623E+03 0.  0.
          5    1    3    3  501    0 -0.14927536447E+01  0.24919012634E+01 -0.33101378158E+02  0.33559337319E+02  0.47000000000E+01 0. -1.
         -5    1    3    3    0  501  0.48404296410E+01  0.13143665263E+02  0.11679006592E+03  0.11772083585E+03  0.47000000000E+01 0. -1.
          5    1    4    4  502    0  0.58310488510E+02 -0.23386113957E+02 -0.30073852389E+02  0.69810815736E+02  0.47000000000E+01 0. -1.
         -5    1    4    4    0  502 -0.61658164506E+02  0.77505474299E+01 -0.45151055872E+02  0.76957833143E+02  0.47000000000E+01 0. -1.
<mgrwt>
<rscale>  0 0.29792862E+03</rscale>
<asrwt>0</asrwt>
<pdfrwt beam="1">  1       21 0.23577892E-01 0.29792862E+03</pdfrwt>
<pdfrwt beam="2">  1       21 0.22275772E-01 0.29792862E+03</pdfrwt>
<totfact> 0.31174866E+05</totfact>
</mgrwt>
</event>
<event>
 8    1  0.9705063E-006  0.3247473E+03  0.7546771E-02  0.1073485E+00
         21   -1    0    0  504  503  0.00000000000E+00  0.00000000000E+00  0.56579518991E+03  0.56579518991E+03  0.00000000000E+00 0.  1.
         21   -1    0    0  503  504 -0.00000000000E+00 -0.00000000000E+00 -0.46598481851E+02  0.46598481851E+02  0.00000000000E+00 0.  1.
         25    2    1    2    0    0  0.35702708086E+02  0.96571107219E+02  0.23721577325E+03  0.28722224030E+03  0.12499852051E+03 0.  0.
         25    2    1    2    0    0 -0.35702708086E+02 -0.96571107219E+02  0.28198093481E+03  0.32517143147E+03  0.12499020014E+03 0.  0.
          5    1    3    3  501    0  0.12085379220E+02  0.15026574232E+01  0.16479146058E+03  0.16530768237E+03  0.47000000000E+01 0. -1.
         -5    1    3    3    0  501  0.23617328866E+02  0.95068449795E+02  0.72424312673E+02  0.12191455793E+03  0.47000000000E+01 0. -1.
          5    1    4    4  502    0 -0.12879450695E+02 -0.16246311690E+02  0.22011807892E+03  0.22114222022E+03  0.47000000000E+01 0. -1.
         -5    1    4    4    0  502 -0.22823257391E+02 -0.80324795528E+02  0.61862855889E+02  0.10402921125E+03  0.47000000000E+01 0. -1.
<mgrwt>
<rscale>  0 0.32474727E+03</rscale>
<asrwt>0</asrwt>
<pdfrwt beam="1">  1       21 0.87045409E-01 0.32474727E+03</pdfrwt>
<pdfrwt beam="2">  1       21 0.71689976E-02 0.32474727E+03</pdfrwt>
<totfact> 0.15833462E+05</totfact>
</mgrwt>
</event>
<event>
 8    1  0.9705063E-006  0.2699380E+03  0.7546771E-02  0.1101315E+00
         21   -1    0    0  504  503  0.00000000000E+00  0.00000000000E+00  0.12820556997E+02  0.12820556997E+02  0.00000000000E+00 0.  1.
         21   -1    0    0  503  504 -0.00000000000E+00 -0.00000000000E+00 -0.14208927104E+04  0.14208927104E+04  0.00000000000E+00 0.  1.
         25    2    1    2    0    0 -0.44652999443E+02 -0.47384296232E+01 -0.83159318526E+03  0.84213228226E+03  0.12499284770E+03 0.  0.
         25    2    1    2    0    0  0.44652999443E+02  0.47384296232E+01 -0.57647896818E+03  0.59158098517E+03  0.12499487266E+03 0.  0.
          5    1    3    3  501    0 -0.10697450013E+02  0.55829879110E+02 -0.25194968649E+03  0.25832565757E+03  0.47000000000E+01 0.  1.
         -5    1    3    3    0  501 -0.33955549430E+02 -0.60568308733E+02 -0.57964349878E+03  0.58380662469E+03  0.47000000000E+01 0.  1.
          5    1    4    4  502    0  0.61450142122E+02  0.26488401117E+02 -0.54665323810E+03  0.55075367278E+03  0.47000000000E+01 0. -1.
         -5    1    4    4    0  502 -0.16797142679E+02 -0.21749971494E+02 -0.29825730077E+02  0.40827312387E+02  0.47000000000E+01 0. -1.
<mgrwt>
<rscale>  0 0.26993804E+03</rscale>
<asrwt>0</asrwt>
<pdfrwt beam="1">  1       21 0.19723928E-02 0.26993804E+03</pdfrwt>
<pdfrwt beam="2">  1       21 0.21859894E+00 0.26993804E+03</pdfrwt>
<totfact> 0.12407914E+05</totfact>
</mgrwt>
</event>
<event>
 8    1  0.9705063E-006  0.2578310E+03  0.7546771E-02  0.1108453E+00
         21   -1    0    0  504  503  0.00000000000E+00  0.00000000000E+00  0.86227825332E+03  0.86227825332E+03  0.00000000000E+00 0.  1.
         21   -1    0    0  503  504 -0.00000000000E+00 -0.00000000000E+00 -0.19273593882E+02  0.19273593882E+02  0.00000000000E+00 0.  1.
         25    2    1    2    0    0 -0.28754407253E+02 -0.62590003103E+01  0.46031607649E+03  0.47789226237E+03  0.12499653250E+03 0.  0.
         25    2    1    2    0    0  0.28754407253E+02  0.62590003103E+01  0.38268858295E+03  0.40365958483E+03  0.12499807153E+03 0.  0.
          5    1    3    3  501    0 -0.34470476266E+02  0.47041710386E+02  0.35326283695E+03  0.35807521307E+03  0.47000000000E+01 0.  1.
         -5    1    3    3    0  501  0.57160690136E+01 -0.53300710696E+02  0.10705323954E+03  0.11981704930E+03  0.47000000000E+01 0.  1.
          5    1    4    4  502    0  0.55200583115E+02  0.36424572869E+02  0.11341229774E+03  0.13137082310E+03  0.47000000000E+01 0. -1.
         -5    1    4    4    0  502 -0.26446175863E+02 -0.30165572559E+02  0.26927628521E+03  0.27228876173E+03  0.47000000000E+01 0. -1.
<mgrwt>
<rscale>  0 0.25783096E+03</rscale>
<asrwt>0</asrwt>
<pdfrwt beam="1">  1       21 0.13265816E+00 0.25783096E+03</pdfrwt>
<pdfrwt beam="2">  1       21 0.29651689E-02 0.25783096E+03</pdfrwt>
<totfact> 0.25929035E+05</totfact>
</mgrwt>
</event>
<event>
 8    1  0.9705063E-006  0.2576873E+03  0.7546771E-02  0.1108541E+00
         21   -1    0    0  504  503  0.00000000000E+00  0.00000000000E+00  0.29943709132E+03  0.29943709132E+03  0.00000000000E+00 0.  1.
         21   -1    0    0  503  504 -0.00000000000E+00 -0.00000000000E+00 -0.55439624028E+02  0.55439624028E+02  0.00000000000E+00 0.  1.
         25    2    1    2    0    0  0.19727786241E+02 -0.21628988351E+02  0.10698896186E+03  0.16711658202E+03  0.12499726132E+03 0.  0.
         25    2    1    2    0    0 -0.19727786241E+02  0.21628988351E+02  0.13700850543E+03  0.18776013333E+03  0.12500215367E+03 0.  0.
          5    1    3    3  501    0 -0.37788299651E+02 -0.35580077626E+00  0.97771338839E+02  0.10492572079E+03  0.47000000000E+01 0.  1.
         -5    1    3    3    0  501  0.57516085892E+02 -0.21273187575E+02  0.92176230185E+01  0.62190861226E+02  0.47000000000E+01 0.  1.
          5    1    4    4  502    0  0.46759935961E+01  0.68205531222E+02  0.45955709078E+02  0.82509857607E+02  0.47000000000E+01 0.  1.
         -5    1    4    4    0  502 -0.24403779837E+02 -0.46576542871E+02  0.91052796355E+02  0.10525027573E+03  0.47000000000E+01 0.  1.
<mgrwt>
<rscale>  0 0.25768725E+03</rscale>
<asrwt>0</asrwt>
<pdfrwt beam="1">  1       21 0.46067244E-01 0.25768725E+03</pdfrwt>
<pdfrwt beam="2">  1       21 0.85291731E-02 0.25768725E+03</pdfrwt>
<totfact> 0.47820124E+05</totfact>
</mgrwt>
</event>
<event>
 8    1  0.9705063E-006  0.2842268E+03  0.7546771E-02  0.1093402E+00
         21   -1    0    0  504  503  0.00000000000E+00  0.00000000000E+00  0.85768466414E+02  0.85768466414E+02  0.00000000000E+00 0.  1.
         21   -1    0    0  503  504 -0.00000000000E+00 -0.00000000000E+00 -0.23547375759E+03  0.23547375759E+03  0.00000000000E+00 0.  1.
         25    2    1    2    0    0 -0.23096812272E+02 -0.63128887355E+02 -0.66709725149E+02  0.15682634230E+03  0.12500238019E+03 0.  0.
         25    2    1    2    0    0  0.23096812272E+02  0.63128887355E+02 -0.82995566030E+02  0.16441588171E+03  0.12500239606E+03 0.  0.
          5    1    3    3  501    0 -0.71235210097E+02 -0.58417155893E+02 -0.34306341027E+02  0.98417652354E+02  0.47000000000E+01 0.  1.
         -5    1    3    3    0  501  0.48138397825E+02 -0.47117314616E+01 -0.32403384122E+02  0.58408689945E+02  0.47000000000E+01 0.  1.
          5    1    4    4  502    0  0.61643219564E+02  0.77105002033E+02 -0.70142018123E+02  0.12119018344E+03  0.47000000000E+01 0. -1.
         -5    1    4    4    0  502 -0.38546407292E+02 -0.13976114678E+02 -0.12853547907E+02  0.43225698264E+02  0.47000000000E+01 0. -1.
<mgrwt>
<rscale>  0 0.28422683E+03</rscale>
<asrwt>0</asrwt>
<pdfrwt beam="1">  1       21 0.13195149E-01 0.28422683E+03</pdfrwt>
<pdfrwt beam="2">  1       21 0.36226731E-01 0.28422683E+03</pdfrwt>
<totfact> 0.35635828E+05</totfact>
</mgrwt>
</event>
<event>
 8    1  0.9705063E-006  0.2868136E+03  0.7546771E-02  0.1092025E+00
         21   -1    0    0  504  503  0.00000000000E+00  0.00000000000E+00  0.61089505909E+03  0.61089505909E+03  0.00000000000E+00 0.  1.
         21   -1    0    0  503  504 -0.00000000000E+00 -0.00000000000E+00 -0.33664566005E+02  0.33664566005E+02  0.00000000000E+00 0.  1.
         25    2    1    2    0    0 -0.29647006061E+02  0.45090252226E+02  0.38983383029E+03  0.41292555487E+03  0.12500009123E+03 0.  0.
         25    2    1    2    0    0  0.29647006061E+02 -0.45090252226E+02  0.18739666279E+03  0.23163407022E+03  0.12499902980E+03 0.  0.
          5    1    3    3  501    0 -0.72183943609E+02  0.10197323861E+02  0.15034180001E+03  0.16715039324E+03  0.47000000000E+01 0.  1.
         -5    1    3    3    0  501  0.42536937548E+02  0.34892928365E+02  0.23949203028E+03  0.24577516163E+03  0.47000000000E+01 0.  1.
          5    1    4    4  502    0 -0.21888659745E+02 -0.73405749738E+02  0.96903523003E+02  0.12361189381E+03  0.47000000000E+01 0.  1.
         -5    1    4    4    0  502  0.51535665806E+02  0.28315497512E+02  0.90493139788E+02  0.10802217642E+03  0.47000000000E+01 0.  1.
<mgrwt>
<rscale>  0 0.28681365E+03</rscale>
<asrwt>0</asrwt>
<pdfrwt beam="1">  1       21 0.93983847E-01 0.28681365E+03</pdfrwt>
<pdfrwt beam="2">  1       21 0.51791644E-02 0.28681365E+03</pdfrwt>
<totfact> 0.23428007E+05</totfact>
</mgrwt>
</event>
<event>
 8    1  0.9705063E-006  0.3719748E+03  0.7546771E-02  0.1053940E+00
         21   -1    0    0  504  503  0.00000000000E+00  0.00000000000E+00  0.18444514732E+02  0.18444514732E+02  0.00000000000E+00 0. -1.
         21   -1    0    0  503  504 -0.00000000000E+00 -0.00000000000E+00 -0.18754251891E+04  0.18754251891E+04  0.00000000000E+00 0. -1.
         25    2    1    2    0    0  0.15131409639E+02 -0.10594890578E+02 -0.16233373673E+04  0.16282476047E+04  0.12499937161E+03 0.  0.
         25    2    1    2    0    0 -0.15131409639E+02  0.10594890578E+02 -0.23364330711E+03  0.26562209917E+03  0.12499877337E+03 0.  0.
          5    1    3    3  501    0  0.24052624065E+02  0.27673340145E+02 -0.14491445775E+04  0.14496159626E+04  0.47000000000E+01 0. -1.
         -5    1    3    3    0  501 -0.89212144259E+01 -0.38268230723E+02 -0.17419278973E+03  0.17863164205E+03  0.47000000000E+01 0. -1.
          5    1    4    4  502    0  0.37464185789E+02  0.43532066724E+02 -0.15478454469E+03  0.16516340794E+03  0.47000000000E+01 0. -1.
         -5    1    4    4    0  502 -0.52595595428E+02 -0.32937176146E+02 -0.78858762427E+02  0.10045869122E+03  0.47000000000E+01 0. -1.
<mgrwt>
<rscale>  0 0.37197477E+03</rscale>
<asrwt>0</asrwt>
<pdfrwt beam="1">  1       21 0.28376176E-02 0.37197477E+03</pdfrwt>
<pdfrwt beam="2">  1       21 0.28852696E+00 0.37197477E+03</pdfrwt>
<totfact> 0.24451774E+04</totfact>
</mgrwt>
</event>
<event>
 8    1  0.9705063E-006  0.3079398E+03  0.7546771E-02  0.1081338E+00
         21   -1    0    0  504  503  0.00000000000E+00  0.00000000000E+00  0.83150995513E+03  0.83150995513E+03  0.00000000000E+00 0. -1.
         21   -1    0    0  503  504 -0.00000000000E+00 -0.00000000000E+00 -0.28510460438E+02  0.28510460438E+02  0.00000000000E+00 0. -1.
         25    2    1    2    0    0 -0.52109672280E+02 -0.36645520110E+02  0.22435224803E+03  0.26460780576E+03  0.12500019033E+03 0.  0.
         25    2    1    2    0    0  0.52109672280E+02  0.36645520110E+02  0.57864724666E+03  0.59541260980E+03  0.12500091105E+03 0.  0.
          5    1    3    3  501    0 -0.28553528877E+02 -0.60085406854E+02  0.22104126106E+03  0.23088284739E+03  0.47000000000E+01 0. -1.
         -5    1    3    3    0  501 -0.23556143403E+02  0.23439886744E+02  0.33109869763E+01  0.33724958374E+02  0.47000000000E+01 0. -1.
          5    1    4    4  502    0  0.11516637353E+02  0.57891099114E+01  0.50786639972E+03  0.50805168703E+03  0.47000000000E+01 0.  1.
         -5    1    4    4    0  502  0.40593034926E+02  0.30856410199E+02  0.70780846932E+02  0.87360922770E+02  0.47000000000E+01 0.  1.
<mgrwt>
<rscale>  0 0.30793981E+03</rscale>
<asrwt>0</asrwt>
<pdfrwt beam="1">  1       21 0.12792459E+00 0.30793981E+03</pdfrwt>
<pdfrwt beam="2">  1       21 0.43862253E-02 0.30793981E+03</pdfrwt>
<totfact> 0.14515439E+05</totfact>
</mgrwt>
</event>
<event>
 8    1  0.9705063E-006  0.3480685E+03  0.7546771E-02  0.1063411E+00
         21   -1    0    0  504  503  0.00000000000E+00  0.00000000000E+00  0.56370221273E+02  0.56370221273E+02  0.00000000000E+00 0.  1.
         21   -1    0    0  503  504 -0.00000000000E+00 -0.00000000000E+00 -0.53730360101E+03  0.53730360101E+03  0.00000000000E+00 0.  1.
         25    2    1    2    0    0 -0.36114521639E+02 -0.85158902698E+02 -0.37372674783E+03  0.40479508182E+03  0.12502431300E+03 0.  0.
         25    2    1    2    0    0  0.36114521639E+02  0.85158902698E+02 -0.10720663191E+03  0.18887874046E+03  0.12500247714E+03 0.  0.
          5    1    3    3  501    0 -0.53589786197E+02 -0.16912085718E+02 -0.28925969235E+03  0.29470518056E+03  0.47000000000E+01 0.  1.
         -5    1    3    3    0  501  0.17475264559E+02 -0.68246816980E+02 -0.84467055478E+02  0.11008990126E+03  0.47000000000E+01 0.  1.
          5    1    4    4  502    0  0.28542683630E+02  0.89696139202E+02 -0.14168096438E+02  0.95304287066E+02  0.47000000000E+01 0.  1.
         -5    1    4    4    0  502  0.75718380083E+01 -0.45372365044E+01 -0.93038535469E+02  0.93574453395E+02  0.47000000000E+01 0.  1.
<mgrwt>
<rscale>  0 0.34806852E+03</rscale>
<asrwt>0</asrwt>
<pdfrwt beam="1">  1       21 0.86723413E-02 0.34806852E+03</pdfrwt>
<pdfrwt beam="2">  1       21 0.82662096E-01 0.34806852E+03</pdfrwt>
<totfact> 0.12697815E+05</totfact>
</mgrwt>
</event>
<event>
 8    1  0.9705063E-006  0.3096254E+03  0.7546771E-02  0.1080526E+00
         21   -1    0    0  504  503  0.00000000000E+00  0.00000000000E+00  0.27376099287E+02  0.27376099287E+02  0.00000000000E+00 0. -1.
         21   -1    0    0  503  504 -0.00000000000E+00 -0.00000000000E+00 -0.87547044508E+03  0.87547044508E+03  0.00000000000E+00 0. -1.
         25    2    1    2    0    0 -0.27183932274E+02 -0.78775041386E+02 -0.31501735922E+03  0.34900468948E+03  0.12499545331E+03 0.  0.
         25    2    1    2    0    0  0.27183932274E+02  0.78775041386E+02 -0.53307698656E+03  0.55384185488E+03  0.12500101317E+03 0.  0.
          5    1    3    3  501    0 -0.21574440902E+02 -0.87703766213E+02 -0.32270225740E+03  0.33513615746E+03  0.47000000000E+01 0.  1.
         -5    1    3    3    0  501 -0.56094913718E+01  0.89287248272E+01  0.76848981736E+01  0.13868532021E+02  0.47000000000E+01 0.  1.
          5    1    4    4  502    0  0.51935770668E+02  0.28166768392E+02 -0.93894750351E+02  0.11103605387E+03  0.47000000000E+01 0.  1.
         -5    1    4    4    0  502 -0.24751838395E+02  0.50608272994E+02 -0.43918223621E+03  0.44280580101E+03  0.47000000000E+01 0.  1.
<mgrwt>
<rscale>  0 0.30962536E+03</rscale>
<asrwt>0</asrwt>
<pdfrwt beam="1">  1       21 0.42117078E-02 0.30962536E+03</pdfrwt>
<pdfrwt beam="2">  1       21 0.13468775E+00 0.30962536E+03</pdfrwt>
<totfact> 0.13617701E+05</totfact>
</mgrwt>
</event>
<event>
 8    1  0.9705063E-006  0.4659696E+03  0.7546771E-02  0.1023064E+00
         21   -1    0    0  504  503  0.00000000000E+00  0.00000000000E+00  0.53571030316E+03  0.53571030316E+03  0.00000000000E+00 0. -1.
         21   -1    0    0  503  504 -0.00000000000E+00 -0.00000000000E+00 -0.10132701821E+03  0.10132701821E+03  0.00000000000E+00 0. -1.
         25    2    1    2    0    0  0.10542315784E+03  0.15900989576E+03  0.28217566610E+03  0.36283110018E+03  0.12500044626E+03 0.  0.
         25    2    1    2    0    0 -0.10542315784E+03 -0.15900989576E+03  0.15220761885E+03  0.27420622119E+03  0.12499481329E+03 0.  0.
          5    1    3    3  501    0  0.10603935573E+03  0.59995703451E+02  0.19923355946E+03  0.23358067259E+03  0.47000000000E+01 0.  1.
         -5    1    3    3    0  501 -0.61619789310E+00  0.99014192305E+02  0.82942106640E+02  0.12925042759E+03  0.47000000000E+01 0.  1.
          5    1    4    4  502    0  0.27858574148E+02 -0.28327719343E+02  0.16012133925E+02  0.43093366886E+02  0.47000000000E+01 0. -1.
         -5    1    4    4    0  502 -0.13328173198E+03 -0.13068217641E+03  0.13619548492E+03  0.23111285431E+03  0.47000000000E+01 0. -1.
<mgrwt>
<rscale>  0 0.46596965E+03</rscale>
<asrwt>0</asrwt>
<pdfrwt beam="1">  1       21 0.82416968E-01 0.46596965E+03</pdfrwt>
<pdfrwt beam="2">  1       21 0.15588772E-01 0.46596965E+03</pdfrwt>
<totfact> 0.42923803E+04</totfact>
</mgrwt>
</event>
<event>
 8    1  0.9705063E-006  0.2726288E+03  0.7546771E-02  0.1099784E+00
         21   -1    0    0  504  503  0.00000000000E+00  0.00000000000E+00  0.82488010644E+02  0.82488010644E+02  0.00000000000E+00 0.  1.
         21   -1    0    0  503  504 -0.00000000000E+00 -0.00000000000E+00 -0.22526444679E+03  0.22526444679E+03  0.00000000000E+00 0.  1.
         25    2    1    2    0    0  0.37543768021E+02 -0.33449231416E+02 -0.48002516095E+02  0.14302602247E+03  0.12499526372E+03 0.  0.
         25    2    1    2    0    0 -0.37543768021E+02  0.33449231416E+02 -0.94773920051E+02  0.16472643497E+03  0.12499726739E+03 0.  0.
          5    1    3    3  501    0  0.46678398262E+01 -0.73048974926E+02 -0.12874332791E+01  0.73359995575E+02  0.47000000000E+01 0.  1.
         -5    1    3    3    0  501  0.32875928194E+02  0.39599743510E+02 -0.46715082816E+02  0.69666026894E+02  0.47000000000E+01 0.  1.
          5    1    4    4  502    0  0.31274997159E+02  0.37100824947E+02 -0.80622473724E+02  0.94216081050E+02  0.47000000000E+01 0. -1.
         -5    1    4    4    0  502 -0.68818765179E+02 -0.36515935313E+01 -0.14151446327E+02  0.70510353915E+02  0.47000000000E+01 0. -1.
<mgrwt>
<rscale>  0 0.27262880E+03</rscale>
<asrwt>0</asrwt>
<pdfrwt beam="1">  1       21 0.12690464E-01 0.27262880E+03</pdfrwt>
<pdfrwt beam="2">  1       21 0.34656068E-01 0.27262880E+03</pdfrwt>
<totfact> 0.41894944E+05</totfact>
</mgrwt>
</event>
<event>
 8    1  0.9705063E-006  0.3621816E+03  0.7546771E-02  0.1057723E+00
         21   -1    0    0  504  503  0.00000000000E+00  0.00000000000E+00  0.29421014388E+02  0.29421014388E+02  0.00000000000E+00 0.  1.
         21   -1    0    0  503  504 -0.00000000000E+00 -0.00000000000E+00 -0.11146415542E+04  0.11146415542E+04  0.00000000000E+00 0.  1.
         25    2    1    2    0    0 -0.13063896237E+03  0.21909388776E+01 -0.51133280772E+03  0.54236204839E+03  0.12499605025E+03 0.  0.
         25    2    1    2    0    0  0.13063896237E+03 -0.21909388776E+01 -0.57388773210E+03  0.60170052021E+03  0.12500019306E+03 0.  0.
          5    1    3    3  501    0 -0.12692864783E+03  0.14217411902E+02 -0.25084985861E+03  0.28153287198E+03  0.47000000000E+01 0.  1.
         -5    1    3    3    0  501 -0.37103145377E+01 -0.12026473025E+02 -0.26048294911E+03  0.26082917641E+03  0.47000000000E+01 0.  1.
          5    1    4    4  502    0  0.63532591400E+02 -0.58055276460E+02 -0.20105751410E+03  0.21875332974E+03  0.47000000000E+01 0.  1.
         -5    1    4    4    0  502  0.67106370966E+02  0.55864337582E+02 -0.37283021799E+03  0.38294719047E+03  0.47000000000E+01 0.  1.
<mgrwt>
<rscale>  0 0.36218164E+03</rscale>
<asrwt>0</asrwt>
<pdfrwt beam="1">  1       21 0.45263092E-02 0.36218164E+03</pdfrwt>
<pdfrwt beam="2">  1       21 0.17148334E+00 0.36218164E+03</pdfrwt>
<totfact> 0.61641662E+04</totfact>
</mgrwt>
</event>
<event>
 8    1  0.9705063E-006  0.4079101E+03  0.7546771E-02  0.1041075E+00
         21   -1    0    0  504  503  0.00000000000E+00  0.00000000000E+00  0.82100594061E+02  0.82100594061E+02  0.00000000000E+00 0.  1.
         21   -1    0    0  503  504 -0.00000000000E+00 -0.00000000000E+00 -0.50666703365E+03  0.50666703365E+03  0.00000000000E+00 0.  1.
         25    2    1    2    0    0  0.48411075492E+01  0.64158357373E+02 -0.42555836897E+03  0.44817977398E+03  0.12500181306E+03 0.  0.
         25    2    1    2    0    0 -0.48411075492E+01 -0.64158357373E+02  0.99192937971E+00  0.14058785372E+03  0.12499691815E+03 0.  0.
          5    1    3    3  501    0  0.34215845320E+02  0.66074525268E+02 -0.12071912482E+03  0.14188644776E+03  0.47000000000E+01 0. -1.
         -5    1    3    3    0  501 -0.29374737771E+02 -0.19161678950E+01 -0.30483924414E+03  0.30629332622E+03  0.47000000000E+01 0. -1.
          5    1    4    4  502    0 -0.36567825360E+02  0.10158832291E+01  0.43020679595E+02  0.56666628126E+02  0.47000000000E+01 0. -1.
         -5    1    4    4    0  502  0.31726717811E+02 -0.65174240603E+02 -0.42028750215E+02  0.83921225598E+02  0.47000000000E+01 0. -1.
<mgrwt>
<rscale>  0 0.40791011E+03</rscale>
<asrwt>0</asrwt>
<pdfrwt beam="1">  1       21 0.12630861E-01 0.40791011E+03</pdfrwt>
<pdfrwt beam="2">  1       21 0.77948774E-01 0.40791011E+03</pdfrwt>
<totfact> 0.72903315E+04</totfact>
</mgrwt>
</event>
<event>
 8    1  0.9705063E-006  0.3385748E+03  0.7546771E-02  0.1067405E+00
         21   -1    0    0  504  503  0.00000000000E+00  0.00000000000E+00  0.22130052087E+02  0.22130052087E+02  0.00000000000E+00 0. -1.
         21   -1    0    0  503  504 -0.00000000000E+00 -0.00000000000E+00 -0.12949911744E+04  0.12949911744E+04  0.00000000000E+00 0. -1.
         25    2    1    2    0    0  0.53012878742E+02 -0.79736430000E+02 -0.39460635549E+03  0.42486274795E+03  0.12500366085E+03 0.  0.
         25    2    1    2    0    0 -0.53012878742E+02  0.79736430000E+02 -0.87825476686E+03  0.89225847857E+03  0.12500197393E+03 0.  0.
          5    1    3    3  501    0 -0.36494463560E+01  0.22950284127E+02 -0.16796765750E+03  0.16963271491E+03  0.47000000000E+01 0.  1.
         -5    1    3    3    0  501  0.56662325098E+02 -0.10268671413E+03 -0.22663869799E+03  0.25523003305E+03  0.47000000000E+01 0.  1.
          5    1    4    4  502    0  0.21103413066E+02  0.41747317911E+02 -0.11187117619E+03  0.12134843492E+03  0.47000000000E+01 0. -1.
         -5    1    4    4    0  502 -0.74116291808E+02  0.37989112088E+02 -0.76638359067E+03  0.77091004365E+03  0.47000000000E+01 0. -1.
<mgrwt>
<rscale>  0 0.33857479E+03</rscale>
<asrwt>0</asrwt>
<pdfrwt beam="1">  1       21 0.34046243E-02 0.33857479E+03</pdfrwt>
<pdfrwt beam="2">  1       21 0.19922936E+00 0.33857479E+03</pdfrwt>
<totfact> 0.64920094E+04</totfact>
</mgrwt>
</event>
<event>
 8    1  0.9705063E-006  0.2677263E+03  0.7546771E-02  0.1102588E+00
         21   -1    0    0  504  503  0.00000000000E+00  0.00000000000E+00  0.10749228956E+03  0.10749228956E+03  0.00000000000E+00 0.  1.
         21   -1    0    0  503  504 -0.00000000000E+00 -0.00000000000E+00 -0.16670349758E+03  0.16670349758E+03  0.00000000000E+00 0.  1.
         25    2    1    2    0    0 -0.13015587658E+02  0.12681071979E+02 -0.74994869200E+02  0.14689792117E+03  0.12499821490E+03 0.  0.
         25    2    1    2    0    0  0.13015587658E+02 -0.12681071979E+02  0.15783661180E+02  0.12729786597E+03  0.12500163044E+03 0.  0.
          5    1    3    3  501    0  0.55576787521E+02  0.96667355595E+01 -0.25252580470E+02  0.61983932660E+02  0.47000000000E+01 0.  1.
         -5    1    3    3    0  501 -0.68592375179E+02  0.30143364197E+01 -0.49742288730E+02  0.84913988511E+02  0.47000000000E+01 0.  1.
          5    1    4    4  502    0  0.58295765845E+02  0.38348219340E+01  0.42117654757E+02  0.72174018988E+02  0.47000000000E+01 0. -1.
         -5    1    4    4    0  502 -0.45280178187E+02 -0.16515893913E+02 -0.26333993577E+02  0.55123846982E+02  0.47000000000E+01 0. -1.
<mgrwt>
<rscale>  0 0.26772628E+03</rscale>
<asrwt>0</asrwt>
<pdfrwt beam="1">  1       21 0.16537275E-01 0.26772628E+03</pdfrwt>
<pdfrwt beam="2">  1       21 0.25646692E-01 0.26772628E+03</pdfrwt>
<totfact> 0.46646927E+05</totfact>
</mgrwt>
</event>
<event>
 8    1  0.9705063E-006  0.2854267E+03  0.7546771E-02  0.1092761E+00
         21   -1    0    0  504  503  0.00000000000E+00  0.00000000000E+00  0.13960204671E+03  0.13960204671E+03  0.00000000000E+00 0.  1.
         21   -1    0    0  503  504 -0.00000000000E+00 -0.00000000000E+00 -0.14589403338E+03  0.14589403338E+03  0.00000000000E+00 0.  1.
         25    2    1    2    0    0  0.22932715154E+02 -0.52919173882E+02  0.34584280416E+02  0.14189295129E+03  0.12494474293E+03 0.  0.
         25    2    1    2    0    0 -0.22932715154E+02  0.52919173882E+02 -0.40876267083E+02  0.14360312879E+03  0.12499856399E+03 0.  0.
          5    1    3    3  501    0  0.72230020994E+02 -0.44552812374E+02  0.88326908594E+01  0.85453118439E+02  0.47000000000E+01 0. -1.
         -5    1    3    3    0  501 -0.49297305840E+02 -0.83663615084E+01  0.25751589557E+02  0.56439832855E+02  0.47000000000E+01 0. -1.
          5    1    4    4  502    0  0.12979566298E+02  0.25934311095E+02  0.40796088814E+02  0.50273934556E+02  0.47000000000E+01 0. -1.
         -5    1    4    4    0  502 -0.35912281452E+02  0.26984862787E+02 -0.81672355897E+02  0.93329194235E+02  0.47000000000E+01 0. -1.
<mgrwt>
<rscale>  0 0.28542674E+03</rscale>
<asrwt>0</asrwt>
<pdfrwt beam="1">  1       21 0.21477238E-01 0.28542674E+03</pdfrwt>
<pdfrwt beam="2">  1       21 0.22445236E-01 0.28542674E+03</pdfrwt>
<totfact> 0.36800675E+05</totfact>
</mgrwt>
</event>
<event>
 8    1  0.9705063E-006  0.2830682E+03  0.7546771E-02  0.1094025E+00
         21   -1    0    0  504  503  0.00000000000E+00  0.00000000000E+00  0.50350106790E+03  0.50350106790E+03  0.00000000000E+00 0. -1.
         21   -1    0    0  503  504 -0.00000000000E+00 -0.00000000000E+00 -0.39785217103E+02  0.39785217103E+02  0.00000000000E+00 0. -1.
         25    2    1    2    0    0  0.17082367298E+02 -0.54101008229E+02  0.16573065139E+03  0.21520224501E+03  0.12500652416E+03 0.  0.
         25    2    1    2    0    0 -0.17082367298E+02  0.54101008229E+02  0.29798519941E+03  0.32808404000E+03  0.12500092748E+03 0.  0.
          5    1    3    3  501    0  0.19675697789E+02  0.33014589906E+02  0.16010714594E+02  0.41899035931E+02  0.47000000000E+01 0. -1.
         -5    1    3    3    0  501 -0.25933304916E+01 -0.87115598135E+02  0.14971993680E+03  0.17330320908E+03  0.47000000000E+01 0. -1.
          5    1    4    4  502    0 -0.55588978328E+02 -0.13670714566E+02  0.15265208130E+03  0.16310049318E+03  0.47000000000E+01 0.  1.
         -5    1    4    4    0  502  0.38506611030E+02  0.67771722795E+02  0.14533311811E+03  0.16498354682E+03  0.47000000000E+01 0.  1.
<mgrwt>
<rscale>  0 0.28306818E+03</rscale>
<asrwt>0</asrwt>
<pdfrwt beam="1">  1       21 0.77461698E-01 0.28306818E+03</pdfrwt>
<pdfrwt beam="2">  1       21 0.61208030E-02 0.28306818E+03</pdfrwt>
<totfact> 0.27521047E+05</totfact>
</mgrwt>
</event>
<event>
 8    1  0.9705063E-006  0.4047581E+03  0.7546771E-02  0.1042144E+00
         21   -1    0    0  504  503  0.00000000000E+00  0.00000000000E+00  0.68741254372E+02  0.68741254372E+02  0.00000000000E+00 0. -1.
         21   -1    0    0  503  504 -0.00000000000E+00 -0.00000000000E+00 -0.59581802676E+03  0.59581802676E+03  0.00000000000E+00 0. -1.
         25    2    1    2    0    0 -0.13136328753E+03 -0.74598238674E+02 -0.34579663876E+03  0.39752144982E+03  0.12500710848E+03 0.  0.
         25    2    1    2    0    0  0.13136328753E+03  0.74598238674E+02 -0.18128013363E+03  0.26703783131E+03  0.12500202390E+03 0.  0.
          5    1    3    3  501    0 -0.10658633628E+03 -0.73231873157E+01 -0.28141369067E+03  0.30104822114E+03  0.47000000000E+01 0. -1.
         -5    1    3    3    0  501 -0.24776951250E+02 -0.67275051358E+02 -0.64382948086E+02  0.96473228685E+02  0.47000000000E+01 0. -1.
          5    1    4    4  502    0  0.78015342898E+02  0.85591591869E+02 -0.52715302662E+02  0.12733148653E+03  0.47000000000E+01 0. -1.
         -5    1    4    4    0  502  0.53347944631E+02 -0.10993353195E+02 -0.12856483097E+03  0.13970634479E+03  0.47000000000E+01 0. -1.
<mgrwt>
<rscale>  0 0.40475809E+03</rscale>
<asrwt>0</asrwt>
<pdfrwt beam="1">  1       21 0.10575578E-01 0.40475809E+03</pdfrwt>
<pdfrwt beam="2">  1       21 0.91664312E-01 0.40475809E+03</pdfrwt>
<totfact> 0.68998171E+04</totfact>
</mgrwt>
</event>
<event>
 8    1  0.9705063E-006  0.3682896E+03  0.7546771E-02  0.1055349E+00
         21   -1    0    0  504  503  0.00000000000E+00  0.00000000000E+00  0.14800965293E+03  0.14800965293E+03  0.00000000000E+00 0. -1.
         21   -1    0    0  503  504 -0.00000000000E+00 -0.00000000000E+00 -0.22910196491E+03  0.22910196491E+03  0.00000000000E+00 0. -1.
         25    2    1    2    0    0 -0.34006772076E+02  0.60628773573E+02 -0.15930553473E+03  0.21409563082E+03  0.12500550791E+03 0.  0.
         25    2    1    2    0    0  0.34006772076E+02 -0.60628773573E+02  0.78213222752E+02  0.16301598703E+03  0.12499838031E+03 0.  0.
          5    1    3    3  501    0 -0.16285057520E+01 -0.29905183793E+02 -0.91384357203E+02  0.96281684603E+02  0.47000000000E+01 0.  1.
         -5    1    3    3    0  501 -0.32378266324E+02  0.90533957366E+02 -0.67921177530E+02  0.11781394622E+03  0.47000000000E+01 0.  1.
          5    1    4    4  502    0 -0.20687667125E+02 -0.18853752719E+02 -0.25700579398E+02  0.38289076040E+02  0.47000000000E+01 0. -1.
         -5    1    4    4    0  502  0.54694439201E+02 -0.41775020855E+02  0.10391380215E+03  0.12472691099E+03  0.47000000000E+01 0. -1.
<mgrwt>
<rscale>  0 0.36828957E+03</rscale>
<asrwt>0</asrwt>
<pdfrwt beam="1">  1       21 0.22770716E-01 0.36828957E+03</pdfrwt>
<pdfrwt beam="2">  1       21 0.35246456E-01 0.36828957E+03</pdfrwt>
<totfact> 0.13374381E+05</totfact>
</mgrwt>
</event>
<event>
 8    1  0.9705063E-006  0.3028178E+03  0.7546771E-02  0.1083840E+00
         21   -1    0    0  504  503  0.00000000000E+00  0.00000000000E+00  0.57541447672E+02  0.57541447672E+02  0.00000000000E+00 0. -1.
         21   -1    0    0  503  504 -0.00000000000E+00 -0.00000000000E+00 -0.39840241104E+03  0.39840241104E+03  0.00000000000E+00 0. -1.
         25    2    1    2    0    0  0.41693233476E+00  0.27532900007E+02 -0.48658423764E+02  0.13693335913E+03  0.12499947289E+03 0.  0.
         25    2    1    2    0    0 -0.41693233476E+00 -0.27532900007E+02 -0.29220253960E+03  0.31901049958E+03  0.12500856082E+03 0.  0.
          5    1    3    3  501    0  0.26785275915E+02 -0.30912146941E+02 -0.58868847451E+02  0.71837615736E+02  0.47000000000E+01 0.  1.
         -5    1    3    3    0  501 -0.26368343580E+02  0.58445046948E+02  0.10210423688E+02  0.65095743392E+02  0.47000000000E+01 0.  1.
          5    1    4    4  502    0  0.34781407912E+02  0.21911565321E+02 -0.33485480942E+02  0.53228098454E+02  0.47000000000E+01 0. -1.
         -5    1    4    4    0  502 -0.35198340246E+02 -0.49444465327E+02 -0.25871705866E+03  0.26578240113E+03  0.47000000000E+01 0. -1.
<mgrwt>
<rscale>  0 0.30281778E+03</rscale>
<asrwt>0</asrwt>
<pdfrwt beam="1">  1       21 0.88525305E-02 0.30281778E+03</pdfrwt>
<pdfrwt beam="2">  1       21 0.61292678E-01 0.30281778E+03</pdfrwt>
<totfact> 0.24189607E+05</totfact>
</mgrwt>
</event>
<event>
 8    1  0.9705063E-006  0.4678877E+03  0.7546771E-02  0.1022518E+00
         21   -1    0    0  504  503  0.00000000000E+00  0.00000000000E+00  0.53169311334E+03  0.53169311334E+03  0.00000000000E+00 0. -1.
         21   -1    0    0  503  504 -0.00000000000E+00 -0.00000000000E+00 -0.10293479432E+03  0.10293479432E+03  0.00000000000E+00 0. -1.
         25    2    1    2    0    0 -0.18487764544E+03 -0.55746892363E+02  0.15656262960E+03  0.27825430676E+03  0.12500456972E+03 0.  0.
         25    2    1    2    0    0  0.18487764544E+03  0.55746892363E+02  0.27219568942E+03  0.35637360090E+03  0.12499676111E+03 0.  0.
          5    1    3    3  501    0  0.14588753656E+01 -0.26559947408E+01 -0.17119181724E+02  0.18009414435E+02  0.47000000000E+01 0.  1.
         -5    1    3    3    0  501 -0.18633652081E+03 -0.53090897622E+02  0.17368181132E+03  0.26024489233E+03  0.47000000000E+01 0.  1.
          5    1    4    4  502    0  0.49869105504E+02  0.78359963241E+02  0.11387302376E+03  0.14702505590E+03  0.47000000000E+01 0. -1.
         -5    1    4    4    0  502  0.13500853994E+03 -0.22613070877E+02  0.15832266566E+03  0.20934854500E+03  0.47000000000E+01 0. -1.
<mgrwt>
<rscale>  0 0.46788768E+03</rscale>
<asrwt>0</asrwt>
<pdfrwt beam="1">  1       21 0.81798939E-01 0.46788768E+03</pdfrwt>
<pdfrwt beam="2">  1       21 0.15836123E-01 0.46788768E+03</pdfrwt>
<totfact> 0.42400495E+04</totfact>
</mgrwt>
</event>
<event>
 8    1  0.9705063E-006  0.2864607E+03  0.7546771E-02  0.1092212E+00
         21   -1    0    0  504  503  0.00000000000E+00  0.00000000000E+00  0.30102161789E+03  0.30102161789E+03  0.00000000000E+00 0.  1.
         21   -1    0    0  503  504 -0.00000000000E+00 -0.00000000000E+00 -0.68151044338E+02  0.68151044338E+02  0.00000000000E+00 0.  1.
         25    2    1    2    0    0  0.63424463395E+02 -0.28741435978E+02  0.10830339938E+03  0.17945374140E+03  0.12500114514E+03 0.  0.
         25    2    1    2    0    0 -0.63424463395E+02  0.28741435978E+02  0.12456717418E+03  0.18971892083E+03  0.12501022094E+03 0.  0.
          5    1    3    3  501    0  0.78692997766E+02  0.32790194505E+01  0.11839166086E+03  0.14227443631E+03  0.47000000000E+01 0. -1.
         -5    1    3    3    0  501 -0.15268534370E+02 -0.32020455428E+02 -0.10088261479E+02  0.37179305095E+02  0.47000000000E+01 0. -1.
          5    1    4    4  502    0 -0.58311723414E+02 -0.29464993945E+02  0.11203014531E+03  0.12977398203E+03  0.47000000000E+01 0.  1.
         -5    1    4    4    0  502 -0.51127399819E+01  0.58206429923E+02  0.12537028871E+02  0.59944938797E+02  0.47000000000E+01 0.  1.
<mgrwt>
<rscale>  0 0.28646073E+03</rscale>
<asrwt>0</asrwt>
<pdfrwt beam="1">  1       21 0.46311017E-01 0.28646073E+03</pdfrwt>
<pdfrwt beam="2">  1       21 0.10484776E-01 0.28646073E+03</pdfrwt>
<totfact> 0.32617397E+05</totfact>
</mgrwt>
</event>
<event>
 8    1  0.9705063E-006  0.2788861E+03  0.7546771E-02  0.1096299E+00
         21   -1    0    0  504  503  0.00000000000E+00  0.00000000000E+00  0.58920957539E+02  0.58920957539E+02  0.00000000000E+00 0. -1.
         21   -1    0    0  503  504 -0.00000000000E+00 -0.00000000000E+00 -0.33000756238E+03  0.33000756238E+03  0.00000000000E+00 0. -1.
         25    2    1    2    0    0 -0.28006738770E+01 -0.12123580509E+02 -0.51099036837E+02  0.13560175964E+03  0.12498760208E+03 0.  0.
         25    2    1    2    0    0  0.28006738770E+01  0.12123580509E+02 -0.21998756800E+03  0.25332676028E+03  0.12500036967E+03 0.  0.
          5    1    3    3  501    0 -0.63591281346E+02 -0.23880089859E+01 -0.27912699884E+02  0.69647415350E+02  0.47000000000E+01 0. -1.
         -5    1    3    3    0  501  0.60790607469E+02 -0.97355715234E+01 -0.23186336953E+02  0.65954344289E+02  0.47000000000E+01 0. -1.
          5    1    4    4  502    0 -0.28661809485E+02  0.60661062769E+02 -0.10891233472E+03  0.12800488472E+03  0.47000000000E+01 0. -1.
         -5    1    4    4    0  502  0.31462483362E+02 -0.48537482259E+02 -0.11107523328E+03  0.12532187555E+03  0.47000000000E+01 0. -1.
<mgrwt>
<rscale>  0 0.27888608E+03</rscale>
<asrwt>0</asrwt>
<pdfrwt beam="1">  1       21 0.90647627E-02 0.27888608E+03</pdfrwt>
<pdfrwt beam="2">  1       21 0.50770394E-01 0.27888608E+03</pdfrwt>
<totfact> 0.34903756E+05</totfact>
</mgrwt>
</event>
<event>
 8    1  0.9705063E-006  0.2632004E+03  0.7546771E-02  0.1105236E+00
         21   -1    0    0  504  503  0.00000000000E+00  0.00000000000E+00  0.51471492001E+03  0.51471492001E+03  0.00000000000E+00 0.  1.
         21   -1    0    0  503  504 -0.00000000000E+00 -0.00000000000E+00 -0.33646987353E+02  0.33646987353E+02  0.00000000000E+00 0.  1.
         25    2    1    2    0    0 -0.18621388101E+01  0.32595498875E+01  0.15507622661E+03  0.19921974707E+03  0.12500311731E+03 0.  0.
         25    2    1    2    0    0  0.18621388101E+01 -0.32595498875E+01  0.32599170605E+03  0.34914216029E+03  0.12496224811E+03 0.  0.
          5    1    3    3  501    0  0.60511998018E+02  0.16241566161E+01  0.59700364579E+02  0.85150239693E+02  0.47000000000E+01 0. -1.
         -5    1    3    3    0  501 -0.62374136828E+02  0.16353932713E+01  0.95375862029E+02  0.11406950738E+03  0.47000000000E+01 0. -1.
          5    1    4    4  502    0 -0.29561707822E+02 -0.32005153738E+02  0.28968683151E+03  0.29298255031E+03  0.47000000000E+01 0.  1.
         -5    1    4    4    0  502  0.31423846632E+02  0.28745603850E+02  0.36304874534E+02  0.56159609977E+02  0.47000000000E+01 0.  1.
<mgrwt>
<rscale>  0 0.26320035E+03</rscale>
<asrwt>0</asrwt>
<pdfrwt beam="1">  1       21 0.79186905E-01 0.26320035E+03</pdfrwt>
<pdfrwt beam="2">  1       21 0.51764600E-02 0.26320035E+03</pdfrwt>
<totfact> 0.35070509E+05</totfact>
</mgrwt>
</event>
<event>
 8    1  0.9705063E-006  0.4566090E+03  0.7546771E-02  0.1025769E+00
         21   -1    0    0  504  503  0.00000000000E+00  0.00000000000E+00  0.37577603354E+02  0.37577603354E+02  0.00000000000E+00 0.  1.
         21   -1    0    0  503  504 -0.00000000000E+00 -0.00000000000E+00 -0.13870745557E+04  0.13870745557E+04  0.00000000000E+00 0.  1.
         25    2    1    2    0    0 -0.90990206294E+02  0.16211699591E+03 -0.53744888356E+03  0.58226874396E+03  0.12499779898E+03 0.  0.
         25    2    1    2    0    0  0.90990206294E+02 -0.16211699591E+03 -0.81204806874E+03  0.84238341505E+03  0.12500645582E+03 0.  0.
          5    1    3    3  501    0 -0.26678207618E+02  0.13443990313E+03 -0.23778909939E+03  0.27450238633E+03  0.47000000000E+01 0. -1.
         -5    1    3    3    0  501 -0.64311998676E+02  0.27677092786E+02 -0.29965978417E+03  0.30776635763E+03  0.47000000000E+01 0. -1.
          5    1    4    4  502    0  0.66072868280E+02 -0.77940344728E+01 -0.20887380433E+03  0.21926405777E+03  0.47000000000E+01 0.  1.
         -5    1    4    4    0  502  0.24917338014E+02 -0.15432296144E+03 -0.60317426442E+03  0.62311935728E+03  0.47000000000E+01 0.  1.
<mgrwt>
<rscale>  0 0.45660897E+03</rscale>
<asrwt>0</asrwt>
<pdfrwt beam="1">  1       21 0.57811695E-02 0.45660897E+03</pdfrwt>
<pdfrwt beam="2">  1       21 0.21339609E+00 0.45660897E+03</pdfrwt>
<totfact> 0.20351287E+04</totfact>
</mgrwt>
</event>
<event>
 8    1  0.9705063E-006  0.2585550E+03  0.7546771E-02  0.1108015E+00
         21   -1    0    0  504  503  0.00000000000E+00  0.00000000000E+00  0.13927086063E+03  0.13927086063E+03  0.00000000000E+00 0. -1.
         21   -1    0    0  503  504 -0.00000000000E+00 -0.00000000000E+00 -0.12000120399E+03  0.12000120399E+03  0.00000000000E+00 0. -1.
         25    2    1    2    0    0 -0.15008119971E+02 -0.20682392370E+02 -0.11293155072E+02  0.12808344789E+03  0.12499931701E+03 0.  0.
         25    2    1    2    0    0  0.15008119971E+02  0.20682392370E+02  0.30562811712E+02  0.13118861673E+03  0.12499345055E+03 0.  0.
          5    1    3    3  501    0  0.12923315958E+02 -0.59056630060E+02 -0.39787576386E+02  0.72524746701E+02  0.47000000000E+01 0.  1.
         -5    1    3    3    0  501 -0.27931435929E+02  0.38374237689E+02  0.28494421315E+02  0.55558701185E+02  0.47000000000E+01 0.  1.
          5    1    4    4  502    0 -0.30108718177E+01  0.38416073592E+02 -0.40208782614E+02  0.55890037204E+02  0.47000000000E+01 0.  1.
         -5    1    4    4    0  502  0.18018991789E+02 -0.17733681222E+02  0.70771594326E+02  0.75298579524E+02  0.47000000000E+01 0.  1.
<mgrwt>
<rscale>  0 0.25855499E+03</rscale>
<asrwt>0</asrwt>
<pdfrwt beam="1">  1       21 0.21426286E-01 0.25855499E+03</pdfrwt>
<pdfrwt beam="2">  1       21 0.18461724E-01 0.25855499E+03</pdfrwt>
<totfact> 0.53690847E+05</totfact>
</mgrwt>
</event>
<event>
 8    1  0.9705063E-006  0.4012094E+03  0.7546771E-02  0.1043362E+00
         21   -1    0    0  504  503  0.00000000000E+00  0.00000000000E+00  0.49610922428E+03  0.49610922428E+03  0.00000000000E+00 0. -1.
         21   -1    0    0  503  504 -0.00000000000E+00 -0.00000000000E+00 -0.81115712857E+02  0.81115712857E+02  0.00000000000E+00 0. -1.
         25    2    1    2    0    0  0.13088410872E+03  0.79891291750E+02  0.25536432937E+03  0.32302561604E+03  0.12498535710E+03 0.  0.
         25    2    1    2    0    0 -0.13088410872E+03 -0.79891291750E+02  0.15962918205E+03  0.25419932110E+03  0.12499020230E+03 0.  0.
          5    1    3    3  501    0  0.12978789895E+02  0.34621589426E+02 -0.90850853322E+00  0.37282956284E+02  0.47000000000E+01 0.  1.
         -5    1    3    3    0  501  0.11790531883E+03  0.45269702324E+02  0.25627283790E+03  0.28574265975E+03  0.47000000000E+01 0.  1.
          5    1    4    4  502    0 -0.54129231956E+02 -0.65832690637E+02  0.10734104183E+02  0.86030389406E+02  0.47000000000E+01 0.  1.
         -5    1    4    4    0  502 -0.76754876767E+02 -0.14058601113E+02  0.14889507787E+03  0.16816893169E+03  0.47000000000E+01 0.  1.
<mgrwt>
<rscale>  0 0.40120944E+03</rscale>
<asrwt>0</asrwt>
<pdfrwt beam="1">  1       21 0.76324494E-01 0.40120944E+03</pdfrwt>
<pdfrwt beam="2">  1       21 0.12479341E-01 0.40120944E+03</pdfrwt>
<totfact> 0.78323510E+04</totfact>
</mgrwt>
</event>
<event>
 8    1  0.9705063E-006  0.3004268E+03  0.7546771E-02  0.1085027E+00
         21   -1    0    0  504  503  0.00000000000E+00  0.00000000000E+00  0.10038066503E+03  0.10038066503E+03  0.00000000000E+00 0. -1.
         21   -1    0    0  503  504 -0.00000000000E+00 -0.00000000000E+00 -0.22478505124E+03  0.22478505124E+03  0.00000000000E+00 0. -1.
         25    2    1    2    0    0 -0.51964098399E+02  0.17549591625E+02  0.56853607462E+01  0.13662212655E+03  0.12500010579E+03 0.  0.
         25    2    1    2    0    0  0.51964098399E+02 -0.17549591625E+02 -0.13008974696E+03  0.18854358972E+03  0.12496834509E+03 0.  0.
          5    1    3    3  501    0 -0.49046003075E+02  0.65403174973E+02  0.23613404813E+02  0.85221878653E+02  0.47000000000E+01 0. -1.
         -5    1    3    3    0  501 -0.29180953239E+01 -0.47853583348E+02 -0.17928044067E+02  0.51400247895E+02  0.47000000000E+01 0. -1.
          5    1    4    4  502    0  0.13263750892E+02 -0.59836569461E+02 -0.11284181061E+03  0.12849788463E+03  0.47000000000E+01 0. -1.
         -5    1    4    4    0  502  0.38700347507E+02  0.42286977836E+02 -0.17247936342E+02  0.60045705089E+02  0.47000000000E+01 0. -1.
<mgrwt>
<rscale>  0 0.30042685E+03</rscale>
<asrwt>0</asrwt>
<pdfrwt beam="1">  1       21 0.15443179E-01 0.30042685E+03</pdfrwt>
<pdfrwt beam="2">  1       21 0.34582315E-01 0.30042685E+03</pdfrwt>
<totfact> 0.29236155E+05</totfact>
</mgrwt>
</event>
<event>
 8    1  0.9705063E-006  0.3005303E+03  0.7546771E-02  0.1084976E+00
         21   -1    0    0  504  503  0.00000000000E+00  0.00000000000E+00  0.29483126686E+03  0.29483126686E+03  0.00000000000E+00 0. -1.
         21   -1    0    0  503  504 -0.00000000000E+00 -0.00000000000E+00 -0.76584859394E+02  0.76584859394E+02  0.00000000000E+00 0. -1.
         25    2    1    2    0    0 -0.33472956045E+02 -0.33789867453E+02  0.24463741818E+02  0.13596127675E+03  0.12499920073E+03 0.  0.
         25    2    1    2    0    0  0.33472956045E+02  0.33789867453E+02  0.19378266565E+03  0.23545484950E+03  0.12500028287E+03 0.  0.
          5    1    3    3  501    0  0.15573647243E+02 -0.15272991595E+02 -0.44159090597E+02  0.49476439272E+02  0.47000000000E+01 0.  1.
         -5    1    3    3    0  501 -0.49046603288E+02 -0.18516875857E+02  0.68622832415E+02  0.86484837482E+02  0.47000000000E+01 0.  1.
          5    1    4    4  502    0  0.46248596854E+02 -0.33353862312E+02  0.12920757374E+03  0.14130852753E+03  0.47000000000E+01 0.  1.
         -5    1    4    4    0  502 -0.12775640808E+02  0.67143729765E+02  0.64575091906E+02  0.94146321965E+02  0.47000000000E+01 0.  1.
<mgrwt>
<rscale>  0 0.30053027E+03</rscale>
<asrwt>0</asrwt>
<pdfrwt beam="1">  1       21 0.45358656E-01 0.30053027E+03</pdfrwt>
<pdfrwt beam="2">  1       21 0.11782286E-01 0.30053027E+03</pdfrwt>
<totfact> 0.27540911E+05</totfact>
</mgrwt>
</event>
<event>
 8    1  0.9705063E-006  0.4225230E+03  0.7546771E-02  0.1036248E+00
         21   -1    0    0  504  503  0.00000000000E+00  0.00000000000E+00  0.20030049315E+03  0.20030049315E+03  0.00000000000E+00 0. -1.
         21   -1    0    0  503  504 -0.00000000000E+00 -0.00000000000E+00 -0.22282234267E+03  0.22282234267E+03  0.00000000000E+00 0. -1.
         25    2    1    2    0    0 -0.13969668434E+03  0.16297983811E+02  0.84937721021E+02  0.20643406770E+03  0.12497927813E+03 0.  0.
         25    2    1    2    0    0  0.13969668434E+03 -0.16297983811E+02 -0.10745957054E+03  0.21668876811E+03  0.12500270010E+03 0.  0.
          5    1    3    3  501    0 -0.13223705493E+03 -0.26141332813E+02  0.33134370871E+02  0.13888838869E+03  0.47000000000E+01 0. -1.
         -5    1    3    3    0  501 -0.74596294075E+01  0.42439316624E+02  0.51803350150E+02  0.67545679012E+02  0.47000000000E+01 0. -1.
          5    1    4    4  502    0 -0.69512211962E+01 -0.77886391066E+01  0.19409558202E+02  0.22534491892E+02  0.47000000000E+01 0.  1.
         -5    1    4    4    0  502  0.14664790554E+03 -0.85093447049E+01 -0.12686912874E+03  0.19415427622E+03  0.47000000000E+01 0.  1.
<mgrwt>
<rscale>  0 0.42252302E+03</rscale>
<asrwt>0</asrwt>
<pdfrwt beam="1">  1       21 0.30815460E-01 0.42252302E+03</pdfrwt>
<pdfrwt beam="2">  1       21 0.34280360E-01 0.42252302E+03</pdfrwt>
<totfact> 0.77449390E+04</totfact>
</mgrwt>
</event>
<event>
 8    1  0.9705063E-006  0.3690839E+03  0.7546771E-02  0.1055044E+00
         21   -1    0    0  504  503  0.00000000000E+00  0.00000000000E+00  0.13275767197E+04  0.13275767197E+04  0.00000000000E+00 0.  1.
         21   -1    0    0  503  504 -0.00000000000E+00 -0.00000000000E+00 -0.25652556861E+02  0.25652556861E+02  0.00000000000E+00 0.  1.
         25    2    1    2    0    0  0.15545543242E+02  0.83723506086E+02  0.10386699116E+04  0.10496241959E+04  0.12499791168E+03 0.  0.
         25    2    1    2    0    0 -0.15545543242E+02 -0.83723506086E+02  0.26325425129E+03  0.30360508073E+03  0.12498781876E+03 0.  0.
          5    1    3    3  501    0 -0.19047732229E+02  0.89975076466E+01  0.72408722546E+03  0.72440884266E+03  0.47000000000E+01 0. -1.
         -5    1    3    3    0  501  0.34593275471E+02  0.74725998439E+02  0.31458268612E+03  0.32521535320E+03  0.47000000000E+01 0. -1.
          5    1    4    4  502    0 -0.35633581266E+02 -0.57150707010E+02  0.41359863171E+02  0.79175019464E+02  0.47000000000E+01 0.  1.
         -5    1    4    4    0  502  0.20088038025E+02 -0.26572799076E+02  0.22189438812E+03  0.22443006127E+03  0.47000000000E+01 0.  1.
<mgrwt>
<rscale>  0 0.36908393E+03</rscale>
<asrwt>0</asrwt>
<pdfrwt beam="1">  1       21 0.20424252E+00 0.36908393E+03</pdfrwt>
<pdfrwt beam="2">  1       21 0.39465482E-02 0.36908393E+03</pdfrwt>
<totfact> 0.46364484E+04</totfact>
</mgrwt>
</event>
<event>
 8    1  0.9705063E-006  0.4320996E+03  0.7546771E-02  0.1033199E+00
         21   -1    0    0  504  503  0.00000000000E+00  0.00000000000E+00  0.29501794767E+03  0.29501794767E+03  0.00000000000E+00 0.  1.
         21   -1    0    0  503  504 -0.00000000000E+00 -0.00000000000E+00 -0.15821927584E+03  0.15821927584E+03  0.00000000000E+00 0.  1.
         25    2    1    2    0    0  0.38236737566E+02 -0.17201209268E+03  0.65604235135E+02  0.22577893468E+03  0.12498801363E+03 0.  0.
         25    2    1    2    0    0 -0.38236737566E+02  0.17201209268E+03  0.71194436694E+02  0.22745828882E+03  0.12497366607E+03 0.  0.
          5    1    3    3  501    0 -0.13340414472E+02 -0.73201909805E+02 -0.28511629750E+02  0.79821609157E+02  0.47000000000E+01 0.  1.
         -5    1    3    3    0  501  0.51577152038E+02 -0.98810182873E+02  0.94115864885E+02  0.14595732553E+03  0.47000000000E+01 0.  1.
          5    1    4    4  502    0 -0.73115074994E+02  0.14864796149E+03  0.80442428713E+02  0.18421483378E+03  0.47000000000E+01 0.  1.
         -5    1    4    4    0  502  0.34878337428E+02  0.23364131189E+02 -0.92479920187E+01  0.43243455046E+02  0.47000000000E+01 0.  1.
<mgrwt>
<rscale>  0 0.43209965E+03</rscale>
<asrwt>0</asrwt>
<pdfrwt beam="1">  1       21 0.45387376E-01 0.43209965E+03</pdfrwt>
<pdfrwt beam="2">  1       21 0.24341427E-01 0.43209965E+03</pdfrwt>
<totfact> 0.69008559E+04</totfact>
</mgrwt>
</event>
<event>
 8    1  0.9705063E-006  0.4127613E+03  0.7546771E-02  0.1039448E+00
         21   -1    0    0  504  503  0.00000000000E+00  0.00000000000E+00  0.22417331233E+03  0.22417331233E+03  0.00000000000E+00 0. -1.
         21   -1    0    0  503  504 -0.00000000000E+00 -0.00000000000E+00 -0.19000016712E+03  0.19000016712E+03  0.00000000000E+00 0. -1.
         25    2    1    2    0    0 -0.61041514137E+02 -0.78599996011E+01  0.16985914331E+03  0.21969114868E+03  0.12499690475E+03 0.  0.
         25    2    1    2    0    0  0.61041514137E+02  0.78599996011E+01 -0.13568599810E+03  0.19448233077E+03  0.12499936344E+03 0.  0.
          5    1    3    3  501    0 -0.75752862551E+02 -0.31851298902E+02  0.49614515245E+02  0.96107708065E+02  0.47000000000E+01 0.  1.
         -5    1    3    3    0  501  0.14711348414E+02  0.23991299300E+02  0.12024462807E+03  0.12358344061E+03  0.47000000000E+01 0.  1.
          5    1    4    4  502    0 -0.37850566047E+02 -0.52281502332E+01 -0.27904372517E+02  0.47547270274E+02  0.47000000000E+01 0. -1.
         -5    1    4    4    0  502  0.98892080185E+02  0.13088149834E+02 -0.10778162559E+03  0.14693506050E+03  0.47000000000E+01 0. -1.
<mgrwt>
<rscale>  0 0.41276127E+03</rscale>
<asrwt>0</asrwt>
<pdfrwt beam="1">  1       21 0.34488202E-01 0.41276127E+03</pdfrwt>
<pdfrwt beam="2">  1       21 0.29230795E-01 0.41276127E+03</pdfrwt>
<totfact> 0.85132339E+04</totfact>
</mgrwt>
</event>
<event>
 8    1  0.9705063E-006  0.3358748E+03  0.7546771E-02  0.1068567E+00
         21   -1    0    0  504  503  0.00000000000E+00  0.00000000000E+00  0.29878315479E+02  0.29878315479E+02  0.00000000000E+00 0.  1.
         21   -1    0    0  503  504 -0.00000000000E+00 -0.00000000000E+00 -0.94392748598E+03  0.94392748598E+03  0.00000000000E+00 0.  1.
         25    2    1    2    0    0 -0.87621371135E+02  0.49177879241E+02 -0.31258997414E+03  0.35133146783E+03  0.12500135945E+03 0.  0.
         25    2    1    2    0    0  0.87621371135E+02 -0.49177879241E+02 -0.60145919636E+03  0.62247433363E+03  0.12500065065E+03 0.  0.
          5    1    3    3  501    0 -0.57922351078E+02 -0.34207107059E+02 -0.17625438656E+03  0.18871360235E+03  0.47000000000E+01 0. -1.
         -5    1    3    3    0  501 -0.29699020057E+02  0.83384986299E+02 -0.13633558758E+03  0.16261786548E+03  0.47000000000E+01 0. -1.
          5    1    4    4  502    0  0.57747159563E+02 -0.35957349482E+02 -0.57793479375E+03  0.58194362377E+03  0.47000000000E+01 0.  1.
         -5    1    4    4    0  502  0.29874211572E+02 -0.13220529758E+02 -0.23524402612E+02  0.40530709867E+02  0.47000000000E+01 0.  1.
<mgrwt>
<rscale>  0 0.33587476E+03</rscale>
<asrwt>0</asrwt>
<pdfrwt beam="1">  1       21 0.45966638E-02 0.33587476E+03</pdfrwt>
<pdfrwt beam="2">  1       21 0.14521962E+00 0.33587476E+03</pdfrwt>
<totfact> 0.95519335E+04</totfact>
</mgrwt>
</event>
<event>
 8    1  0.9705063E-006  0.4270212E+03  0.7546771E-02  0.1034805E+00
         21   -1    0    0  504  503  0.00000000000E+00  0.00000000000E+00  0.21849035497E+04  0.21849035497E+04  0.00000000000E+00 0.  1.
         21   -1    0    0  503  504 -0.00000000000E+00 -0.00000000000E+00 -0.20864435359E+02  0.20864435359E+02  0.00000000000E+00 0.  1.
         25    2    1    2    0    0  0.16319317144E+03 -0.32951170975E+02  0.83731190786E+03  0.86280537949E+03  0.12499640376E+03 0.  0.
         25    2    1    2    0    0 -0.16319317144E+03  0.32951170975E+02  0.13267272065E+04  0.13429626055E+04  0.12500275467E+03 0.  0.
          5    1    3    3  501    0  0.82699988978E+02 -0.33722064052E+02  0.68171352617E+03  0.68755500692E+03  0.47000000000E+01 0. -1.
         -5    1    3    3    0  501  0.80493182465E+02  0.77089307704E+00  0.15559838169E+03  0.17525037257E+03  0.47000000000E+01 0. -1.
          5    1    4    4  502    0 -0.39091196610E+02 -0.44766347014E+02  0.30344014382E+03  0.30924126238E+03  0.47000000000E+01 0. -1.
         -5    1    4    4    0  502 -0.12410197483E+03  0.77717517989E+02  0.10232870626E+04  0.10337213432E+04  0.47000000000E+01 0. -1.
<mgrwt>
<rscale>  0 0.42702121E+03</rscale>
<asrwt>0</asrwt>
<pdfrwt beam="1">  1       21 0.33613883E+00 0.42702121E+03</pdfrwt>
<pdfrwt beam="2">  1       21 0.32099149E-02 0.42702121E+03</pdfrwt>
<totfact> 0.10023400E+04</totfact>
</mgrwt>
</event>
<event>
 8    1  0.9705063E-006  0.2660176E+03  0.7546771E-02  0.1103581E+00
         21   -1    0    0  504  503  0.00000000000E+00  0.00000000000E+00  0.13819847360E+03  0.13819847360E+03  0.00000000000E+00 0.  1.
         21   -1    0    0  503  504 -0.00000000000E+00 -0.00000000000E+00 -0.12801396900E+03  0.12801396900E+03  0.00000000000E+00 0.  1.
         25    2    1    2    0    0  0.38219123303E+02 -0.20790734219E+01  0.29608804136E+02  0.13404376914E+03  0.12500410726E+03 0.  0.
         25    2    1    2    0    0 -0.38219123303E+02  0.20790734219E+01 -0.19424299538E+02  0.13216867346E+03  0.12500492350E+03 0.  0.
          5    1    3    3  501    0  0.70915385831E+02  0.60769454971E+01 -0.19823535427E+02  0.74033666469E+02  0.47000000000E+01 0.  1.
         -5    1    3    3    0  501 -0.32696262528E+02 -0.81560189190E+01  0.49432339563E+02  0.60010102671E+02  0.47000000000E+01 0.  1.
          5    1    4    4  502    0 -0.17626484026E+02  0.54616224801E+02 -0.41935204670E+02  0.71233954975E+02  0.47000000000E+01 0.  1.
         -5    1    4    4    0  502 -0.20592639277E+02 -0.52537151379E+02  0.22510905132E+02  0.60934718489E+02  0.47000000000E+01 0.  1.
<mgrwt>
<rscale>  0 0.26601756E+03</rscale>
<asrwt>0</asrwt>
<pdfrwt beam="1">  1       21 0.21261304E-01 0.26601756E+03</pdfrwt>
<pdfrwt beam="2">  1       21 0.19694457E-01 0.26601756E+03</pdfrwt>
<totfact> 0.48209448E+05</totfact>
</mgrwt>
</event>
<event>
 8    1  0.9705063E-006  0.3939456E+03  0.7546771E-02  0.1045896E+00
         21   -1    0    0  504  503  0.00000000000E+00  0.00000000000E+00  0.16675195413E+03  0.16675195413E+03  0.00000000000E+00 0.  1.
         21   -1    0    0  503  504 -0.00000000000E+00 -0.00000000000E+00 -0.23267068153E+03  0.23267068153E+03  0.00000000000E+00 0.  1.
         25    2    1    2    0    0 -0.90363909340E+02  0.12094116706E+03 -0.52786716305E+02  0.20298486621E+03  0.12499606590E+03 0.  0.
         25    2    1    2    0    0  0.90363909340E+02 -0.12094116706E+03 -0.13132011093E+02  0.19643776945E+03  0.12499178192E+03 0.  0.
          5    1    3    3  501    0 -0.90928611447E+02  0.20729352137E+02 -0.40954135511E+02  0.10196592389E+03  0.47000000000E+01 0. -1.
         -5    1    3    3    0  501  0.56470210718E+00  0.10021181493E+03 -0.11832580794E+02  0.10101894232E+03  0.47000000000E+01 0. -1.
          5    1    4    4  502    0  0.59571201047E+02  0.66560773632E+01 -0.23790878840E+02  0.64661636819E+02  0.47000000000E+01 0.  1.
         -5    1    4    4    0  502  0.30792708293E+02 -0.12759724443E+03  0.10658867746E+02  0.13177613263E+03  0.47000000000E+01 0.  1.
<mgrwt>
<rscale>  0 0.39394563E+03</rscale>
<asrwt>0</asrwt>
<pdfrwt beam="1">  1       21 0.25654147E-01 0.39394563E+03</pdfrwt>
<pdfrwt beam="2">  1       21 0.35795489E-01 0.39394563E+03</pdfrwt>
<totfact> 0.10240901E+05</totfact>
</mgrwt>
</event>
<event>
 8    1  0.9705063E-006  0.3299697E+03  0.7546771E-02  0.1071150E+00
         21   -1    0    0  504  503  0.00000000000E+00  0.00000000000E+00  0.31157725627E+03  0.31157725627E+03  0.00000000000E+00 0. -1.
         21   -1    0    0  503  504 -0.00000000000E+00 -0.00000000000E+00 -0.87361951902E+02  0.87361951902E+02  0.00000000000E+00 0. -1.
         25    2    1    2    0    0 -0.39896122972E+02 -0.90219867729E+02  0.59909155587E+02  0.17013250302E+03  0.12499854598E+03 0.  0.
         25    2    1    2    0    0  0.39896122972E+02  0.90219867729E+02  0.16430614878E+03  0.22880670516E+03  0.12499869054E+03 0.  0.
          5    1    3    3  501    0 -0.74983725632E+02 -0.71856960576E+02  0.74247882146E+02  0.12775296433E+03  0.47000000000E+01 0.  1.
         -5    1    3    3    0  501  0.35087602660E+02 -0.18362907153E+02 -0.14338726560E+02  0.42379538682E+02  0.47000000000E+01 0.  1.
          5    1    4    4  502    0  0.64524883349E+02  0.96389361546E+02  0.80903709736E+02  0.14149865667E+03  0.47000000000E+01 0. -1.
         -5    1    4    4    0  502 -0.24628760377E+02 -0.61694938167E+01  0.83402439047E+02  0.87308048488E+02  0.47000000000E+01 0. -1.
<mgrwt>
<rscale>  0 0.32996968E+03</rscale>
<asrwt>0</asrwt>
<pdfrwt beam="1">  1       21 0.47934962E-01 0.32996968E+03</pdfrwt>
<pdfrwt beam="2">  1       21 0.13440300E-01 0.32996968E+03</pdfrwt>
<totfact> 0.19205626E+05</totfact>
</mgrwt>
</event>
<event>
 8    1  0.9705063E-006  0.3014942E+03  0.7546771E-02  0.1084496E+00
         21   -1    0    0  504  503  0.00000000000E+00  0.00000000000E+00  0.86488641851E+02  0.86488641851E+02  0.00000000000E+00 0.  1.
         21   -1    0    0  503  504 -0.00000000000E+00 -0.00000000000E+00 -0.26274763136E+03  0.26274763136E+03  0.00000000000E+00 0.  1.
         25    2    1    2    0    0 -0.38008932910E+02 -0.72778014825E+02 -0.66211113949E+02  0.16355483301E+03  0.12499981347E+03 0.  0.
         25    2    1    2    0    0  0.38008932910E+02  0.72778014825E+02 -0.11004787556E+03  0.18568144019E+03  0.12500297555E+03 0.  0.
          5    1    3    3  501    0 -0.70387033894E+02 -0.86017873363E+02 -0.35508614866E+02  0.11677482951E+03  0.47000000000E+01 0. -1.
         -5    1    3    3    0  501  0.32378100984E+02  0.13239858539E+02 -0.30702499082E+02  0.46780003499E+02  0.47000000000E+01 0. -1.
          5    1    4    4  502    0 -0.30652294740E+02 -0.17103948022E+02 -0.17720109718E+02  0.39600511350E+02  0.47000000000E+01 0.  1.
         -5    1    4    4    0  502  0.68661227650E+02  0.89881962846E+02 -0.92327765837E+02  0.14608092884E+03  0.47000000000E+01 0.  1.
<mgrwt>
<rscale>  0 0.30149418E+03</rscale>
<asrwt>0</asrwt>
<pdfrwt beam="1">  1       21 0.13305945E-01 0.30149418E+03</pdfrwt>
<pdfrwt beam="2">  1       21 0.40422713E-01 0.30149418E+03</pdfrwt>
<totfact> 0.28008541E+05</totfact>
</mgrwt>
</event>
<event>
 8    1  0.9705063E-006  0.3527112E+03  0.7546771E-02  0.1061508E+00
         21   -1    0    0  504  503  0.00000000000E+00  0.00000000000E+00  0.11189687603E+03  0.11189687603E+03  0.00000000000E+00 0.  1.
         21   -1    0    0  503  504 -0.00000000000E+00 -0.00000000000E+00 -0.27794610957E+03  0.27794610957E+03  0.00000000000E+00 0.  1.
         25    2    1    2    0    0  0.16220414026E+00  0.22891645372E+02 -0.21817664394E+03  0.25248808928E+03  0.12500053411E+03 0.  0.
         25    2    1    2    0    0 -0.16220414026E+00 -0.22891645372E+02  0.52127410397E+02  0.13735489633E+03  0.12500018757E+03 0.  0.
          5    1    3    3  501    0 -0.56305389416E+02  0.37723928274E+02 -0.12900444760E+03  0.14579996276E+03  0.47000000000E+01 0.  1.
         -5    1    3    3    0  501  0.56467593557E+02 -0.14832282902E+02 -0.89172196345E+02  0.10668812651E+03  0.47000000000E+01 0.  1.
          5    1    4    4  502    0  0.19574503626E+02  0.24891664779E+02  0.74301972971E+02  0.80905063840E+02  0.47000000000E+01 0.  1.
         -5    1    4    4    0  502 -0.19736707766E+02 -0.47783310151E+02 -0.22174562573E+02  0.56449832486E+02  0.47000000000E+01 0.  1.
<mgrwt>
<rscale>  0 0.35271122E+03</rscale>
<asrwt>0</asrwt>
<pdfrwt beam="1">  1       21 0.17214904E-01 0.35271122E+03</pdfrwt>
<pdfrwt beam="2">  1       21 0.42760940E-01 0.35271122E+03</pdfrwt>
<totfact> 0.15353933E+05</totfact>
</mgrwt>
</event>
<event>
 8    1  0.9705063E-006  0.5255409E+03  0.7546771E-02  0.1007319E+00
         21   -1    0    0  504  503  0.00000000000E+00  0.00000000000E+00  0.36287193184E+02  0.36287193184E+02  0.00000000000E+00 0. -1.
         21   -1    0    0  503  504 -0.00000000000E+00 -0.00000000000E+00 -0.19028288879E+04  0.19028288879E+04  0.00000000000E+00 0. -1.
         25    2    1    2    0    0 -0.19612001932E+02  0.22399346016E+03 -0.11307937881E+04  0.11596882264E+04  0.12499796145E+03 0.  0.
         25    2    1    2    0    0  0.19612001932E+02 -0.22399346016E+03 -0.73574790663E+03  0.77942785472E+03  0.12500039120E+03 0.  0.
          5    1    3    3  501    0 -0.68412573714E+02  0.95112438320E+02 -0.59434279342E+03  0.60579873082E+03  0.47000000000E+01 0. -1.
         -5    1    3    3    0  501  0.48800571782E+02  0.12888102184E+03 -0.53645099466E+03  0.55388949554E+03  0.47000000000E+01 0. -1.
          5    1    4    4  502    0  0.10770758287E+02 -0.23483060346E+03 -0.72177635596E+03  0.75910777863E+03  0.47000000000E+01 0. -1.
         -5    1    4    4    0  502  0.88412436455E+01  0.10837143309E+02 -0.13971550670E+02  0.20320076093E+02  0.47000000000E+01 0. -1.
<mgrwt>
<rscale>  0 0.52554094E+03</rscale>
<asrwt>0</asrwt>
<pdfrwt beam="1">  1       21 0.55826450E-02 0.52554094E+03</pdfrwt>
<pdfrwt beam="2">  1       21 0.29274291E+00 0.52554094E+03</pdfrwt>
<totfact> 0.68126660E+03</totfact>
</mgrwt>
</event>
<event>
 8    1  0.9705063E-006  0.2711524E+03  0.7546771E-02  0.1100622E+00
         21   -1    0    0  504  503  0.00000000000E+00  0.00000000000E+00  0.56464013396E+02  0.56464013396E+02  0.00000000000E+00 0. -1.
         21   -1    0    0  503  504 -0.00000000000E+00 -0.00000000000E+00 -0.32553305834E+03  0.32553305834E+03  0.00000000000E+00 0. -1.
         25    2    1    2    0    0  0.55905036879E+01 -0.47339012773E+02 -0.10350964939E+03  0.16914888344E+03  0.12499944555E+03 0.  0.
         25    2    1    2    0    0 -0.55905036879E+01  0.47339012773E+02 -0.16555939555E+03  0.21284818830E+03  0.12498880728E+03 0.  0.
          5    1    3    3  501    0 -0.37304240396E+02 -0.22087374856E+02 -0.11038058682E+03  0.11868202234E+03  0.47000000000E+01 0.  1.
         -5    1    3    3    0  501  0.42894744084E+02 -0.25251637917E+02  0.68709374291E+01  0.50466861094E+02  0.47000000000E+01 0.  1.
          5    1    4    4  502    0  0.52209023213E+02  0.19503627829E+02 -0.12463242086E+03  0.13660711524E+03  0.47000000000E+01 0. -1.
         -5    1    4    4    0  502 -0.57799526901E+02  0.27835384943E+02 -0.40926974691E+02  0.76241073066E+02  0.47000000000E+01 0. -1.
<mgrwt>
<rscale>  0 0.27115238E+03</rscale>
<asrwt>0</asrwt>
<pdfrwt beam="1">  1       21 0.86867712E-02 0.27115238E+03</pdfrwt>
<pdfrwt beam="2">  1       21 0.50082010E-01 0.27115238E+03</pdfrwt>
<totfact> 0.38787296E+05</totfact>
</mgrwt>
</event>
<event>
 8    1  0.9705063E-006  0.2673925E+03  0.7546771E-02  0.1102781E+00
         21   -1    0    0  504  503  0.00000000000E+00  0.00000000000E+00  0.88162284889E+02  0.88162284889E+02  0.00000000000E+00 0.  1.
         21   -1    0    0  503  504 -0.00000000000E+00 -0.00000000000E+00 -0.20274762338E+03  0.20274762338E+03  0.00000000000E+00 0.  1.
         25    2    1    2    0    0  0.30116292902E+02 -0.32289361423E+02 -0.38437254824E+02  0.13802702091E+03  0.12499776792E+03 0.  0.
         25    2    1    2    0    0 -0.30116292902E+02  0.32289361423E+02 -0.76148083669E+02  0.15288288736E+03  0.12500021056E+03 0.  0.
          5    1    3    3  501    0  0.66427412810E+02 -0.19356393006E+02  0.15988603390E+02  0.71168789235E+02  0.47000000000E+01 0. -1.
         -5    1    3    3    0  501 -0.36311119908E+02 -0.12932968417E+02 -0.54425858214E+02  0.66858231680E+02  0.47000000000E+01 0. -1.
          5    1    4    4  502    0  0.38147108976E+02  0.52296727103E+00 -0.66525559544E+02  0.76832385689E+02  0.47000000000E+01 0. -1.
         -5    1    4    4    0  502 -0.68263401878E+02  0.31766394152E+02 -0.96225241251E+01  0.76050501667E+02  0.47000000000E+01 0. -1.
<mgrwt>
<rscale>  0 0.26739255E+03</rscale>
<asrwt>0</asrwt>
<pdfrwt beam="1">  1       21 0.13563428E-01 0.26739255E+03</pdfrwt>
<pdfrwt beam="2">  1       21 0.31191942E-01 0.26739255E+03</pdfrwt>
<totfact> 0.45808071E+05</totfact>
</mgrwt>
</event>
<event>
 8    1  0.9705063E-006  0.4170650E+03  0.7546771E-02  0.1038026E+00
         21   -1    0    0  504  503  0.00000000000E+00  0.00000000000E+00  0.14369052821E+03  0.14369052821E+03  0.00000000000E+00 0.  1.
         21   -1    0    0  503  504 -0.00000000000E+00 -0.00000000000E+00 -0.30263518716E+03  0.30263518716E+03  0.00000000000E+00 0.  1.
         25    2    1    2    0    0 -0.14083631554E+03 -0.23730002418E+01 -0.17530625941E+03  0.25729020788E+03  0.12500187030E+03 0.  0.
         25    2    1    2    0    0  0.14083631554E+03  0.23730002418E+01  0.16361600459E+02  0.18903550749E+03  0.12500488877E+03 0.  0.
          5    1    3    3  501    0 -0.57322716576E+02 -0.44128956910E+02 -0.13943769524E+03  0.15715667191E+03  0.47000000000E+01 0. -1.
         -5    1    3    3    0  501 -0.83513598967E+02  0.41755956669E+02 -0.35868564173E+02  0.10013353597E+03  0.47000000000E+01 0. -1.
          5    1    4    4  502    0  0.13433075010E+03 -0.35786216962E+02 -0.13743206808E+02  0.13977256340E+03  0.47000000000E+01 0. -1.
         -5    1    4    4    0  502  0.65055654426E+01  0.38159217204E+02  0.30104807267E+02  0.49262944085E+02  0.47000000000E+01 0. -1.
<mgrwt>
<rscale>  0 0.41706503E+03</rscale>
<asrwt>0</asrwt>
<pdfrwt beam="1">  1       21 0.22106235E-01 0.41706503E+03</pdfrwt>
<pdfrwt beam="2">  1       21 0.46559259E-01 0.41706503E+03</pdfrwt>
<totfact> 0.79017565E+04</totfact>
</mgrwt>
</event>
<event>
 8    1  0.9705063E-006  0.5289316E+03  0.7546771E-02  0.1006492E+00
         21   -1    0    0  504  503  0.00000000000E+00  0.00000000000E+00  0.17177900085E+04  0.17177900085E+04  0.00000000000E+00 0. -1.
         21   -1    0    0  503  504 -0.00000000000E+00 -0.00000000000E+00 -0.40716361859E+02  0.40716361859E+02  0.00000000000E+00 0. -1.
         25    2    1    2    0    0 -0.18034122361E+03 -0.95821267123E+02  0.46512719449E+03  0.52313287469E+03  0.12498009988E+03 0.  0.
         25    2    1    2    0    0  0.18034122361E+03  0.95821267123E+02  0.12119464521E+04  0.12353734956E+04  0.12501519403E+03 0.  0.
          5    1    3    3  501    0 -0.29503199989E+02  0.14889468580E+02  0.16935468537E+02  0.37430404469E+02  0.47000000000E+01 0. -1.
         -5    1    3    3    0  501 -0.15083802362E+03 -0.11071073570E+03  0.44819172595E+03  0.48570247023E+03  0.47000000000E+01 0. -1.
          5    1    4    4  502    0  0.67386666907E+02 -0.15467913088E+02  0.21522100041E+03  0.22610260554E+03  0.47000000000E+01 0.  1.
         -5    1    4    4    0  502  0.11295455670E+03  0.11128918021E+03  0.99672545171E+03  0.10092708901E+04  0.47000000000E+01 0.  1.
<mgrwt>
<rscale>  0 0.52893160E+03</rscale>
<asrwt>0</asrwt>
<pdfrwt beam="1">  1       21 0.26427533E+00 0.52893160E+03</pdfrwt>
<pdfrwt beam="2">  1       21 0.62640570E-02 0.52893160E+03</pdfrwt>
<totfact> 0.82893600E+03</totfact>
</mgrwt>
</event>
<event>
 8    1  0.9705063E-006  0.4180447E+03  0.7546771E-02  0.1037705E+00
         21   -1    0    0  504  503  0.00000000000E+00  0.00000000000E+00  0.27588815529E+02  0.27588815529E+02  0.00000000000E+00 0.  1.
         21   -1    0    0  503  504 -0.00000000000E+00 -0.00000000000E+00 -0.15836251932E+04  0.15836251932E+04  0.00000000000E+00 0.  1.
         25    2    1    2    0    0  0.98688356076E+02  0.86907317015E+02 -0.37798041442E+03  0.41927123407E+03  0.12500760239E+03 0.  0.
         25    2    1    2    0    0 -0.98688356076E+02 -0.86907317015E+02 -0.11780559632E+04  0.11919427746E+04  0.12497780659E+03 0.  0.
          5    1    3    3  501    0  0.11189507418E+01  0.76793752126E+02 -0.11328653112E+03  0.13694692603E+03  0.47000000000E+01 0. -1.
         -5    1    3    3    0  501  0.97569405335E+02  0.10113564889E+02 -0.26469388330E+03  0.28232430803E+03  0.47000000000E+01 0. -1.
          5    1    4    4  502    0 -0.46552555853E+02  0.21138121702E+02 -0.55895990124E+03  0.56131294466E+03  0.47000000000E+01 0.  1.
         -5    1    4    4    0  502 -0.52135800223E+02 -0.10804543872E+03 -0.61909606197E+03  0.63062982997E+03  0.47000000000E+01 0.  1.
<mgrwt>
<rscale>  0 0.41804470E+03</rscale>
<asrwt>0</asrwt>
<pdfrwt beam="1">  1       21 0.42444314E-02 0.41804470E+03</pdfrwt>
<pdfrwt beam="2">  1       21 0.24363475E+00 0.41804470E+03</pdfrwt>
<totfact> 0.22654415E+04</totfact>
</mgrwt>
</event>
<event>
 8    1  0.9705063E-006  0.4708112E+03  0.7546771E-02  0.1021692E+00
         21   -1    0    0  504  503  0.00000000000E+00  0.00000000000E+00  0.41201840772E+02  0.41201840772E+02  0.00000000000E+00 0.  1.
         21   -1    0    0  503  504 -0.00000000000E+00 -0.00000000000E+00 -0.13449834167E+04  0.13449834167E+04  0.00000000000E+00 0.  1.
         25    2    1    2    0    0  0.10244123596E+03  0.20075580691E+02 -0.15146527860E+03  0.22241752257E+03  0.12502234985E+03 0.  0.
         25    2    1    2    0    0 -0.10244123596E+03 -0.20075580691E+02 -0.11523162973E+04  0.11637677349E+04  0.12500102373E+03 0.  0.
          5    1    3    3  501    0 -0.17991849782E+02  0.25698910611E+02 -0.69949992888E+02  0.76806459170E+02  0.47000000000E+01 0.  1.
         -5    1    3    3    0  501  0.12043308574E+03 -0.56233299195E+01 -0.81515285709E+02  0.14561106340E+03  0.47000000000E+01 0.  1.
          5    1    4    4  502    0 -0.27871001486E+02  0.10273279818E+02 -0.86014296405E+03  0.86066854341E+03  0.47000000000E+01 0. -1.
         -5    1    4    4    0  502 -0.74570234475E+02 -0.30348860510E+02 -0.29217333326E+03  0.30309919147E+03  0.47000000000E+01 0. -1.
<mgrwt>
<rscale>  0 0.47081118E+03</rscale>
<asrwt>0</asrwt>
<pdfrwt beam="1">  1       21 0.63387444E-02 0.47081118E+03</pdfrwt>
<pdfrwt beam="2">  1       21 0.20692054E+00 0.47081118E+03</pdfrwt>
<totfact> 0.19015057E+04</totfact>
</mgrwt>
</event>
<event>
 8    1  0.9705063E-006  0.3038975E+03  0.7546771E-02  0.1083308E+00
         21   -1    0    0  504  503  0.00000000000E+00  0.00000000000E+00  0.62245056577E+03  0.62245056577E+03  0.00000000000E+00 0.  1.
         21   -1    0    0  503  504 -0.00000000000E+00 -0.00000000000E+00 -0.37092792343E+02  0.37092792343E+02  0.00000000000E+00 0.  1.
         25    2    1    2    0    0 -0.69754621837E+02 -0.43378269002E+02  0.23479076230E+03  0.27839851488E+03  0.12502659531E+03 0.  0.
         25    2    1    2    0    0  0.69754621837E+02  0.43378269002E+02  0.35056701113E+03  0.38114484324E+03  0.12500712277E+03 0.  0.
          5    1    3    3  501    0 -0.84222812015E+01 -0.12437142151E+01  0.19237129648E+03  0.19261694462E+03  0.47000000000E+01 0. -1.
         -5    1    3    3    0  501 -0.61332340636E+02 -0.42134554787E+02  0.42419465815E+02  0.85781570253E+02  0.47000000000E+01 0. -1.
          5    1    4    4  502    0  0.40632252469E+02 -0.26351586704E+02  0.25305432455E+03  0.25768967235E+03  0.47000000000E+01 0. -1.
         -5    1    4    4    0  502  0.29122369369E+02  0.69729855707E+02  0.97512686580E+02  0.12345517089E+03  0.47000000000E+01 0. -1.
<mgrwt>
<rscale>  0 0.30389755E+03</rscale>
<asrwt>0</asrwt>
<pdfrwt beam="1">  1       21 0.95761618E-01 0.30389755E+03</pdfrwt>
<pdfrwt beam="2">  1       21 0.57065839E-02 0.30389755E+03</pdfrwt>
<totfact> 0.18891738E+05</totfact>
</mgrwt>
</event>
<event>
 8    1  0.9705063E-006  0.3287901E+03  0.7546771E-02  0.1071673E+00
         21   -1    0    0  504  503  0.00000000000E+00  0.00000000000E+00  0.11622374711E+04  0.11622374711E+04  0.00000000000E+00 0.  1.
         21   -1    0    0  503  504 -0.00000000000E+00 -0.00000000000E+00 -0.23253191135E+02  0.23253191135E+02  0.00000000000E+00 0.  1.
         25    2    1    2    0    0  0.32904397249E+02  0.88616868819E+02  0.39047846620E+03  0.42075386350E+03  0.12499892913E+03 0.  0.
         25    2    1    2    0    0 -0.32904397249E+02 -0.88616868819E+02  0.74850581378E+03  0.76473679876E+03  0.12500307720E+03 0.  0.
          5    1    3    3  501    0  0.48615930788E+02 -0.15301943300E+02  0.11528735165E+03  0.12613850184E+03  0.47000000000E+01 0.  1.
         -5    1    3    3    0  501 -0.15711533538E+02  0.10391881212E+03  0.27519111455E+03  0.29461536166E+03  0.47000000000E+01 0.  1.
          5    1    4    4  502    0  0.44366041697E+02 -0.11723666187E+02  0.27327598460E+03  0.27714191990E+03  0.47000000000E+01 0. -1.
         -5    1    4    4    0  502 -0.77270438946E+02 -0.76893202632E+02  0.47522982918E+03  0.48759487886E+03  0.47000000000E+01 0. -1.
<mgrwt>
<rscale>  0 0.32879009E+03</rscale>
<asrwt>0</asrwt>
<pdfrwt beam="1">  1       21 0.17880572E+00 0.32879009E+03</pdfrwt>
<pdfrwt beam="2">  1       21 0.35774149E-02 0.32879009E+03</pdfrwt>
<totfact> 0.82459811E+04</totfact>
</mgrwt>
</event>
<event>
 8    1  0.9705063E-006  0.3256419E+03  0.7546771E-02  0.1073082E+00
         21   -1    0    0  504  503  0.00000000000E+00  0.00000000000E+00  0.22576845010E+03  0.22576845010E+03  0.00000000000E+00 0. -1.
         21   -1    0    0  503  504 -0.00000000000E+00 -0.00000000000E+00 -0.11742409992E+03  0.11742409992E+03  0.00000000000E+00 0. -1.
         25    2    1    2    0    0 -0.24391470671E+02 -0.70952977703E+02  0.13059020386E+03  0.19572286871E+03  0.12499748439E+03 0.  0.
         25    2    1    2    0    0  0.24391470671E+02  0.70952977703E+02 -0.22245853677E+02  0.14746968131E+03  0.12499263984E+03 0.  0.
          5    1    3    3  501    0 -0.67553052329E+02 -0.41981024884E+02  0.11740649211E+03  0.14188796890E+03  0.47000000000E+01 0. -1.
         -5    1    3    3    0  501  0.43161581658E+02 -0.28971952819E+02  0.13183711744E+02  0.53834899803E+02  0.47000000000E+01 0. -1.
          5    1    4    4  502    0  0.47247018853E+02  0.77726382650E+02  0.24906831460E+02  0.94425164039E+02  0.47000000000E+01 0. -1.
         -5    1    4    4    0  502 -0.22855548182E+02 -0.67734049472E+01 -0.47152685137E+02  0.53044517275E+02  0.47000000000E+01 0. -1.
<mgrwt>
<rscale>  0 0.32564187E+03</rscale>
<asrwt>0</asrwt>
<pdfrwt beam="1">  1       21 0.34733608E-01 0.32564187E+03</pdfrwt>
<pdfrwt beam="2">  1       21 0.18065246E-01 0.32564187E+03</pdfrwt>
<totfact> 0.21549586E+05</totfact>
</mgrwt>
</event>
<event>
 8    1  0.9705063E-006  0.4450727E+03  0.7546771E-02  0.1029202E+00
         21   -1    0    0  504  503  0.00000000000E+00  0.00000000000E+00  0.15007807044E+03  0.15007807044E+03  0.00000000000E+00 0.  1.
         21   -1    0    0  503  504 -0.00000000000E+00 -0.00000000000E+00 -0.32997772487E+03  0.32997772487E+03  0.00000000000E+00 0.  1.
         25    2    1    2    0    0 -0.11090798300E+03  0.14687922429E+03 -0.94933541605E+02  0.24189837847E+03  0.12501344313E+03 0.  0.
         25    2    1    2    0    0  0.11090798300E+03 -0.14687922429E+03 -0.84966112828E+02  0.23815741684E+03  0.12500251056E+03 0.  0.
          5    1    3    3  501    0 -0.21591727737E+02  0.12854063681E+03 -0.65648589159E+02  0.14601618156E+03  0.47000000000E+01 0.  1.
         -5    1    3    3    0  501 -0.89316255258E+02  0.18338587477E+02 -0.29284952446E+02  0.95882196908E+02  0.47000000000E+01 0.  1.
          5    1    4    4  502    0 -0.24961739462E+02 -0.90494003423E+01 -0.21295122212E+02  0.34359166368E+02  0.47000000000E+01 0.  1.
         -5    1    4    4    0  502  0.13586972246E+03 -0.13782982395E+03 -0.63670990617E+02  0.20379825047E+03  0.47000000000E+01 0.  1.
<mgrwt>
<rscale>  0 0.44507267E+03</rscale>
<asrwt>0</asrwt>
<pdfrwt beam="1">  1       21 0.23088934E-01 0.44507267E+03</pdfrwt>
<pdfrwt beam="2">  1       21 0.50765804E-01 0.44507267E+03</pdfrwt>
<totfact> 0.60160465E+04</totfact>
</mgrwt>
</event>
<event>
 8    1  0.9705063E-006  0.4334821E+03  0.7546771E-02  0.1032766E+00
         21   -1    0    0  504  503  0.00000000000E+00  0.00000000000E+00  0.80507232174E+03  0.80507232174E+03  0.00000000000E+00 0. -1.
         21   -1    0    0  503  504 -0.00000000000E+00 -0.00000000000E+00 -0.58350897502E+02  0.58350897502E+02  0.00000000000E+00 0. -1.
         25    2    1    2    0    0 -0.52911007327E+02  0.51823020924E+02  0.53015587058E+02  0.15466411685E+03  0.12500054550E+03 0.  0.
         25    2    1    2    0    0  0.52911007327E+02 -0.51823020924E+02  0.69370583718E+03  0.70875910240E+03  0.12500590586E+03 0.  0.
          5    1    3    3  501    0  0.81293182669E+01  0.10068090534E+02  0.75874967092E+02  0.77113895594E+02  0.47000000000E+01 0. -1.
         -5    1    3    3    0  501 -0.61040325594E+02  0.41754930390E+02 -0.22859380035E+02  0.77550221251E+02  0.47000000000E+01 0. -1.
          5    1    4    4  502    0  0.54833087421E+02 -0.85368012339E+02  0.61067640789E+03  0.61906552978E+03  0.47000000000E+01 0. -1.
         -5    1    4    4    0  502 -0.19220800941E+01  0.33544991415E+02  0.83029429289E+02  0.89693572618E+02  0.47000000000E+01 0. -1.
<mgrwt>
<rscale>  0 0.43348215E+03</rscale>
<asrwt>0</asrwt>
<pdfrwt beam="1">  1       21 0.12385727E+00 0.43348215E+03</pdfrwt>
<pdfrwt beam="2">  1       21 0.89770617E-02 0.43348215E+03</pdfrwt>
<totfact> 0.43821962E+04</totfact>
</mgrwt>
</event>
<event>
 8    1  0.9705063E-006  0.3190963E+03  0.7546771E-02  0.1076066E+00
         21   -1    0    0  504  503  0.00000000000E+00  0.00000000000E+00  0.53515638531E+02  0.53515638531E+02  0.00000000000E+00 0.  1.
         21   -1    0    0  503  504 -0.00000000000E+00 -0.00000000000E+00 -0.47566686668E+03  0.47566686668E+03  0.00000000000E+00 0.  1.
         25    2    1    2    0    0  0.41764260528E+02  0.25481078673E+02 -0.35412139166E+03  0.37869489194E+03  0.12495728200E+03 0.  0.
         25    2    1    2    0    0 -0.41764260528E+02 -0.25481078673E+02 -0.68029836497E+02  0.15048761328E+03  0.12499969707E+03 0.  0.
          5    1    3    3  501    0 -0.39788825971E+02 -0.11575813088E+02 -0.79188506429E+02  0.89498936704E+02  0.47000000000E+01 0. -1.
         -5    1    3    3    0  501  0.81553086499E+02  0.37056891761E+02 -0.27493288523E+03  0.28919595523E+03  0.47000000000E+01 0. -1.
          5    1    4    4  502    0  0.12323085095E+02 -0.65115489082E+02 -0.26855164936E+02  0.71660136955E+02  0.47000000000E+01 0.  1.
         -5    1    4    4    0  502 -0.54087345623E+02  0.39634410409E+02 -0.41174671561E+02  0.78827476321E+02  0.47000000000E+01 0.  1.
<mgrwt>
<rscale>  0 0.31909632E+03</rscale>
<asrwt>0</asrwt>
<pdfrwt beam="1">  1       21 0.82331756E-02 0.31909632E+03</pdfrwt>
<pdfrwt beam="2">  1       21 0.73179514E-01 0.31909632E+03</pdfrwt>
<totfact> 0.18501486E+05</totfact>
</mgrwt>
</event>
<event>
 8    1  0.9705063E-006  0.4724370E+03  0.7546771E-02  0.1021235E+00
         21   -1    0    0  504  503  0.00000000000E+00  0.00000000000E+00  0.98816152701E+03  0.98816152701E+03  0.00000000000E+00 0. -1.
         21   -1    0    0  503  504 -0.00000000000E+00 -0.00000000000E+00 -0.56467659132E+02  0.56467659132E+02  0.00000000000E+00 0. -1.
         25    2    1    2    0    0 -0.58570762886E+02 -0.69073653493E+02  0.86121685684E+03  0.87494072182E+03  0.12500035331E+03 0.  0.
         25    2    1    2    0    0  0.58570762886E+02  0.69073653493E+02  0.70477011046E+02  0.16968846433E+03  0.12500184786E+03 0.  0.
          5    1    3    3  501    0 -0.50066710447E+02 -0.62077796477E+02  0.22765713923E+03  0.24126788297E+03  0.47000000000E+01 0.  1.
         -5    1    3    3    0  501 -0.85040524389E+01 -0.69958570157E+01  0.63355971761E+03  0.63367283885E+03  0.47000000000E+01 0.  1.
          5    1    4    4  502    0  0.33610700564E+01  0.93207098810E+02  0.35822690647E+02  0.10002107391E+03  0.47000000000E+01 0. -1.
         -5    1    4    4    0  502  0.55209692829E+02 -0.24133445317E+02  0.34654320399E+02  0.69667390417E+02  0.47000000000E+01 0. -1.
<mgrwt>
<rscale>  0 0.47243695E+03</rscale>
<asrwt>0</asrwt>
<pdfrwt beam="1">  1       21 0.15202484E+00 0.47243695E+03</pdfrwt>
<pdfrwt beam="2">  1       21 0.86873329E-02 0.47243695E+03</pdfrwt>
<totfact> 0.26765574E+04</totfact>
</mgrwt>
</event>
<event>
 8    1  0.9705063E-006  0.2684792E+03  0.7546771E-02  0.1102153E+00
         21   -1    0    0  504  503  0.00000000000E+00  0.00000000000E+00  0.28480953551E+02  0.28480953551E+02  0.00000000000E+00 0.  1.
         21   -1    0    0  503  504 -0.00000000000E+00 -0.00000000000E+00 -0.63271305531E+03  0.63271305531E+03  0.00000000000E+00 0.  1.
         25    2    1    2    0    0 -0.27928396968E+02 -0.35808224057E+02 -0.25716989209E+03  0.28952334757E+03  0.12500076449E+03 0.  0.
         25    2    1    2    0    0  0.27928396968E+02  0.35808224057E+02 -0.34706220967E+03  0.37167066129E+03  0.12499871526E+03 0.  0.
          5    1    3    3  501    0 -0.77793840960E+02 -0.21782692049E+02 -0.15233843930E+03  0.17249770275E+03  0.47000000000E+01 0. -1.
         -5    1    3    3    0  501  0.49865443992E+02 -0.14025532008E+02 -0.10483145279E+03  0.11702564482E+03  0.47000000000E+01 0. -1.
          5    1    4    4  502    0  0.67445740196E+02  0.52426125537E+02 -0.18261343744E+03  0.20166106229E+03  0.47000000000E+01 0. -1.
         -5    1    4    4    0  502 -0.39517343228E+02 -0.16617901480E+02 -0.16444877222E+03  0.17000959900E+03  0.47000000000E+01 0. -1.
<mgrwt>
<rscale>  0 0.26847921E+03</rscale>
<asrwt>0</asrwt>
<pdfrwt beam="1">  1       21 0.43816853E-02 0.26847921E+03</pdfrwt>
<pdfrwt beam="2">  1       21 0.97340467E-01 0.26847921E+03</pdfrwt>
<totfact> 0.28797913E+05</totfact>
</mgrwt>
</event>
<event>
 8    1  0.9705063E-006  0.3323920E+03  0.7546771E-02  0.1070083E+00
         21   -1    0    0  504  503  0.00000000000E+00  0.00000000000E+00  0.52958772063E+03  0.52958772063E+03  0.00000000000E+00 0. -1.
         21   -1    0    0  503  504 -0.00000000000E+00 -0.00000000000E+00 -0.52155870233E+02  0.52155870233E+02  0.00000000000E+00 0. -1.
         25    2    1    2    0    0  0.10643570124E+03 -0.21008625561E+02  0.26506041116E+03  0.31249168521E+03  0.12499644361E+03 0.  0.
         25    2    1    2    0    0 -0.10643570124E+03  0.21008625561E+02  0.21237143924E+03  0.26925190565E+03  0.12500015858E+03 0.  0.
          5    1    3    3  501    0  0.67542919511E+02 -0.23673342981E+02  0.36304475643E+02  0.80390161684E+02  0.47000000000E+01 0. -1.
         -5    1    3    3    0  501  0.38892781733E+02  0.26647174193E+01  0.22875593552E+03  0.23210152353E+03  0.47000000000E+01 0. -1.
          5    1    4    4  502    0 -0.12082645722E+03 -0.16180340264E+02  0.13414417196E+03  0.18132177212E+03  0.47000000000E+01 0. -1.
         -5    1    4    4    0  502  0.14390755973E+02  0.37188965825E+02  0.78227267275E+02  0.87930133526E+02  0.47000000000E+01 0. -1.
<mgrwt>
<rscale>  0 0.33239199E+03</rscale>
<asrwt>0</asrwt>
<pdfrwt beam="1">  1       21 0.81475030E-01 0.33239199E+03</pdfrwt>
<pdfrwt beam="2">  1       21 0.80239804E-02 0.33239199E+03</pdfrwt>
<totfact> 0.15115790E+05</totfact>
</mgrwt>
</event>
<event>
 8    1  0.9705063E-006  0.2893491E+03  0.7546771E-02  0.1090689E+00
         21   -1    0    0  504  503  0.00000000000E+00  0.00000000000E+00  0.16480522464E+03  0.16480522464E+03  0.00000000000E+00 0.  1.
         21   -1    0    0  503  504 -0.00000000000E+00 -0.00000000000E+00 -0.12700279721E+03  0.12700279721E+03  0.00000000000E+00 0.  1.
         25    2    1    2    0    0 -0.48514619884E+01 -0.59703842311E+02  0.60700809139E+02  0.15131836401E+03  0.12499829434E+03 0.  0.
         25    2    1    2    0    0  0.48514619884E+01  0.59703842311E+02 -0.22898381700E+02  0.14048965784E+03  0.12499969042E+03 0.  0.
          5    1    3    3  501    0 -0.18901107446E+01  0.76012277918E+01  0.80441420807E+02  0.80958405147E+02  0.47000000000E+01 0.  1.
         -5    1    3    3    0  501 -0.29613512438E+01 -0.67305070102E+02 -0.19740611668E+02  0.70359958867E+02  0.47000000000E+01 0.  1.
          5    1    4    4  502    0  0.33106057427E+02  0.68366863305E+02  0.28291904311E+02  0.81194586556E+02  0.47000000000E+01 0.  1.
         -5    1    4    4    0  502 -0.28254595438E+02 -0.86630209944E+01 -0.51190286011E+02  0.59295071279E+02  0.47000000000E+01 0.  1.
<mgrwt>
<rscale>  0 0.28934909E+03</rscale>
<asrwt>0</asrwt>
<pdfrwt beam="1">  1       21 0.25354650E-01 0.28934909E+03</pdfrwt>
<pdfrwt beam="2">  1       21 0.19538892E-01 0.28934909E+03</pdfrwt>
<totfact> 0.34804646E+05</totfact>
</mgrwt>
</event>
<event>
 8    1  0.9705063E-006  0.3293291E+03  0.7546771E-02  0.1071434E+00
         21   -1    0    0  504  503  0.00000000000E+00  0.00000000000E+00  0.27499757386E+02  0.27499757386E+02  0.00000000000E+00 0. -1.
         21   -1    0    0  503  504 -0.00000000000E+00 -0.00000000000E+00 -0.98598712764E+03  0.98598712764E+03  0.00000000000E+00 0. -1.
         25    2    1    2    0    0  0.41721833815E+02 -0.77453630762E+02 -0.66770113179E+03  0.68497367493E+03  0.12499743041E+03 0.  0.
         25    2    1    2    0    0 -0.41721833815E+02  0.77453630762E+02 -0.29078623846E+03  0.32851321010E+03  0.12499806557E+03 0.  0.
          5    1    3    3  501    0  0.12715753482E+01 -0.36178447688E+02 -0.57139603340E+03  0.57256092599E+03  0.47000000000E+01 0. -1.
         -5    1    3    3    0  501  0.40450258467E+02 -0.41275183073E+02 -0.96305098393E+02  0.11241274894E+03  0.47000000000E+01 0. -1.
          5    1    4    4  502    0 -0.52126812943E-02 -0.32550886071E+02 -0.89067843063E+02  0.94945936611E+02  0.47000000000E+01 0.  1.
         -5    1    4    4    0  502 -0.41716621134E+02  0.11000451683E+03 -0.20171839540E+03  0.23356727349E+03  0.47000000000E+01 0.  1.
<mgrwt>
<rscale>  0 0.32932906E+03</rscale>
<asrwt>0</asrwt>
<pdfrwt beam="1">  1       21 0.42307322E-02 0.32932906E+03</pdfrwt>
<pdfrwt beam="2">  1       21 0.15169032E+00 0.32932906E+03</pdfrwt>
<totfact> 0.98096553E+04</totfact>
</mgrwt>
</event>
<event>
 8    1  0.9705063E-006  0.4537232E+03  0.7546771E-02  0.1026618E+00
         21   -1    0    0  504  503  0.00000000000E+00  0.00000000000E+00  0.20283874591E+03  0.20283874591E+03  0.00000000000E+00 0.  1.
         21   -1    0    0  503  504 -0.00000000000E+00 -0.00000000000E+00 -0.25372954604E+03  0.25372954604E+03  0.00000000000E+00 0.  1.
         25    2    1    2    0    0 -0.37989123806E+02  0.13646538928E+03 -0.15184215559E+03  0.24237724755E+03  0.12499885566E+03 0.  0.
         25    2    1    2    0    0  0.37989123806E+02 -0.13646538928E+03  0.10095135547E+03  0.21419104440E+03  0.12498260411E+03 0.  0.
          5    1    3    3  501    0  0.13440438302E+02 -0.16562710542E+02 -0.41119798226E+02  0.46560676202E+02  0.47000000000E+01 0. -1.
         -5    1    3    3    0  501 -0.51429562108E+02  0.15302809982E+03 -0.11072235737E+03  0.19581657135E+03  0.47000000000E+01 0. -1.
          5    1    4    4  502    0  0.83626812190E+02 -0.87520524250E+02  0.56159188438E+02  0.13352614099E+03  0.47000000000E+01 0. -1.
         -5    1    4    4    0  502 -0.45637688384E+02 -0.48944865031E+02  0.44792167031E+02  0.80664903405E+02  0.47000000000E+01 0. -1.
<mgrwt>
<rscale>  0 0.45372319E+03</rscale>
<asrwt>0</asrwt>
<pdfrwt beam="1">  1       21 0.31205961E-01 0.45372319E+03</pdfrwt>
<pdfrwt beam="2">  1       21 0.39035314E-01 0.45372319E+03</pdfrwt>
<totfact> 0.57618767E+04</totfact>
</mgrwt>
</event>
<event>
 8    1  0.9705063E-006  0.2736666E+03  0.7546771E-02  0.1099199E+00
         21   -1    0    0  504  503  0.00000000000E+00  0.00000000000E+00  0.26873662021E+03  0.26873662021E+03  0.00000000000E+00 0. -1.
         21   -1    0    0  503  504 -0.00000000000E+00 -0.00000000000E+00 -0.69671765939E+02  0.69671765939E+02  0.00000000000E+00 0. -1.
         25    2    1    2    0    0  0.29970281696E+02  0.39255957123E+02  0.13132157730E+03  0.18789683231E+03  0.12498245866E+03 0.  0.
         25    2    1    2    0    0 -0.29970281696E+02 -0.39255957123E+02  0.67743276967E+02  0.15051155384E+03  0.12500131324E+03 0.  0.
          5    1    3    3  501    0  0.24231136655E+02  0.81523149811E+02  0.11232061183E+03  0.14096517932E+03  0.47000000000E+01 0.  1.
         -5    1    3    3    0  501  0.57391450415E+01 -0.42267192687E+02  0.19000965476E+02  0.46931652991E+02  0.47000000000E+01 0.  1.
          5    1    4    4  502    0 -0.75241354258E+02 -0.19405440762E+01  0.41396295752E+02  0.86027730435E+02  0.47000000000E+01 0.  1.
         -5    1    4    4    0  502  0.45271072562E+02 -0.37315413047E+02  0.26346981215E+02  0.64483823405E+02  0.47000000000E+01 0.  1.
<mgrwt>
<rscale>  0 0.27366662E+03</rscale>
<asrwt>0</asrwt>
<pdfrwt beam="1">  1       21 0.41344095E-01 0.27366662E+03</pdfrwt>
<pdfrwt beam="2">  1       21 0.10718733E-01 0.27366662E+03</pdfrwt>
<totfact> 0.39727689E+05</totfact>
</mgrwt>
</event>
<event>
 8    1  0.9705063E-006  0.2672973E+03  0.7546771E-02  0.1102836E+00
         21   -1    0    0  504  503  0.00000000000E+00  0.00000000000E+00  0.16006205472E+03  0.16006205472E+03  0.00000000000E+00 0.  1.
         21   -1    0    0  503  504 -0.00000000000E+00 -0.00000000000E+00 -0.11159401810E+03  0.11159401810E+03  0.00000000000E+00 0.  1.
         25    2    1    2    0    0 -0.32294414412E+02  0.16529705117E+02  0.55068965990E+02  0.14132420236E+03  0.12499511512E+03 0.  0.
         25    2    1    2    0    0  0.32294414412E+02 -0.16529705117E+02 -0.66009293760E+01  0.13033187046E+03  0.12500665517E+03 0.  0.
          5    1    3    3  501    0 -0.69024276961E+02 -0.24187291140E+02  0.19662070783E+02  0.75881900939E+02  0.47000000000E+01 0.  1.
         -5    1    3    3    0  501  0.36729862549E+02  0.40716996257E+02  0.35406895207E+02  0.65442301420E+02  0.47000000000E+01 0.  1.
          5    1    4    4  502    0 -0.33399337183E+02 -0.36193716651E+02  0.24125552555E+02  0.55042103297E+02  0.47000000000E+01 0. -1.
         -5    1    4    4    0  502  0.65693751595E+02  0.19664011534E+02 -0.30726481932E+02  0.75289767167E+02  0.47000000000E+01 0. -1.
<mgrwt>
<rscale>  0 0.26729735E+03</rscale>
<asrwt>0</asrwt>
<pdfrwt beam="1">  1       21 0.24624932E-01 0.26729735E+03</pdfrwt>
<pdfrwt beam="2">  1       21 0.17168310E-01 0.26729735E+03</pdfrwt>
<totfact> 0.47067003E+05</totfact>
</mgrwt>
</event>
<event>
 8    1  0.9705063E-006  0.2958709E+03  0.7546771E-02  0.1087323E+00
         21   -1    0    0  504  503  0.00000000000E+00  0.00000000000E+00  0.15118537934E+03  0.15118537934E+03  0.00000000000E+00 0. -1.
         21   -1    0    0  503  504 -0.00000000000E+00 -0.00000000000E+00 -0.14475535885E+03  0.14475535885E+03  0.00000000000E+00 0. -1.
         25    2    1    2    0    0  0.12622813087E+02 -0.74116242818E+02  0.27628238118E+02  0.14846207141E+03  0.12500045698E+03 0.  0.
         25    2    1    2    0    0 -0.12622813087E+02  0.74116242818E+02 -0.21198217623E+02  0.14747866678E+03  0.12509212552E+03 0.  0.
          5    1    3    3  501    0 -0.52217346535E+01 -0.94859317171E+02 -0.16290404616E+02  0.96504009499E+02  0.47000000000E+01 0.  1.
         -5    1    3    3    0  501  0.17844547740E+02  0.20743074353E+02  0.43918642734E+02  0.51958061908E+02  0.47000000000E+01 0.  1.
          5    1    4    4  502    0 -0.48147491010E+02  0.74909047227E+02  0.21503251927E+02  0.91728000580E+02  0.47000000000E+01 0. -1.
         -5    1    4    4    0  502  0.35524677923E+02 -0.79280440964E+00 -0.42701469550E+02  0.55750666203E+02  0.47000000000E+01 0. -1.
<mgrwt>
<rscale>  0 0.29587088E+03</rscale>
<asrwt>0</asrwt>
<pdfrwt beam="1">  1       21 0.23259289E-01 0.29587088E+03</pdfrwt>
<pdfrwt beam="2">  1       21 0.22270055E-01 0.29587088E+03</pdfrwt>
<totfact> 0.32026262E+05</totfact>
</mgrwt>
</event>
<event>
 8    1  0.9705063E-006  0.3032129E+03  0.7546771E-02  0.1083645E+00
         21   -1    0    0  504  503  0.00000000000E+00  0.00000000000E+00  0.38450267091E+03  0.38450267091E+03  0.00000000000E+00 0. -1.
         21   -1    0    0  503  504 -0.00000000000E+00 -0.00000000000E+00 -0.59777277889E+02  0.59777277889E+02  0.00000000000E+00 0. -1.
         25    2    1    2    0    0 -0.82873548606E+02  0.21096221116E+02  0.15242412087E+03  0.21487982321E+03  0.12500860050E+03 0.  0.
         25    2    1    2    0    0  0.82873548606E+02 -0.21096221116E+02  0.17230127215E+03  0.22940012559E+03  0.12499445439E+03 0.  0.
          5    1    3    3  501    0 -0.91264173104E+02  0.28259323570E+02  0.16913573465E+03  0.19431089881E+03  0.47000000000E+01 0. -1.
         -5    1    3    3    0  501  0.83906244985E+01 -0.71631024536E+01 -0.16711613777E+02  0.20568924407E+02  0.47000000000E+01 0. -1.
          5    1    4    4  502    0  0.10835586851E+03 -0.12130634430E+00  0.16114752320E+03  0.19424629517E+03  0.47000000000E+01 0.  1.
         -5    1    4    4    0  502 -0.25482319900E+02 -0.20974914772E+02  0.11153748959E+02  0.35153830418E+02  0.47000000000E+01 0.  1.
<mgrwt>
<rscale>  0 0.30321295E+03</rscale>
<asrwt>0</asrwt>
<pdfrwt beam="1">  1       21 0.59154256E-01 0.30321295E+03</pdfrwt>
<pdfrwt beam="2">  1       21 0.91965045E-02 0.30321295E+03</pdfrwt>
<totfact> 0.24421088E+05</totfact>
</mgrwt>
</event>
<event>
 8    1  0.9705063E-006  0.2548954E+03  0.7546771E-02  0.1110250E+00
         21   -1    0    0  504  503  0.00000000000E+00  0.00000000000E+00  0.98103371578E+02  0.98103371578E+02  0.00000000000E+00 0. -1.
         21   -1    0    0  503  504 -0.00000000000E+00 -0.00000000000E+00 -0.16556937896E+03  0.16556937896E+03  0.00000000000E+00 0. -1.
         25    2    1    2    0    0 -0.24204968415E+02 -0.39107638159E+00 -0.39186960545E+02  0.13321453742E+03  0.12499784665E+03 0.  0.
         25    2    1    2    0    0  0.24204968415E+02  0.39107638159E+00 -0.28279046840E+02  0.13045821312E+03  0.12503442504E+03 0.  0.
          5    1    3    3  501    0 -0.43227189357E+02  0.54075447821E+02 -0.19549387841E+02  0.72090308099E+02  0.47000000000E+01 0.  1.
         -5    1    3    3    0  501  0.19022220942E+02 -0.54466524203E+02 -0.19637572704E+02  0.61124229320E+02  0.47000000000E+01 0.  1.
          5    1    4    4  502    0 -0.39874428608E+02 -0.10636799374E+02  0.23034039906E+02  0.47494931858E+02  0.47000000000E+01 0. -1.
         -5    1    4    4    0  502  0.64079397024E+02  0.11027875756E+02 -0.51313086746E+02  0.82963281263E+02  0.47000000000E+01 0. -1.
<mgrwt>
<rscale>  0 0.25489538E+03</rscale>
<asrwt>0</asrwt>
<pdfrwt beam="1">  1       21 0.15092827E-01 0.25489538E+03</pdfrwt>
<pdfrwt beam="2">  1       21 0.25472212E-01 0.25489538E+03</pdfrwt>
<totfact> 0.56050509E+05</totfact>
</mgrwt>
</event>
<event>
 8    1  0.9705063E-006  0.3260155E+03  0.7546771E-02  0.1072914E+00
         21   -1    0    0  504  503  0.00000000000E+00  0.00000000000E+00  0.51024496685E+03  0.51024496685E+03  0.00000000000E+00 0. -1.
         21   -1    0    0  503  504 -0.00000000000E+00 -0.00000000000E+00 -0.52076010881E+02  0.52076010881E+02  0.00000000000E+00 0. -1.
         25    2    1    2    0    0 -0.10029701414E+03  0.20621060791E+02  0.19201985198E+03  0.25096097096E+03  0.12500026478E+03 0.  0.
         25    2    1    2    0    0  0.10029701414E+03 -0.20621060791E+02  0.26614910398E+03  0.31136000677E+03  0.12499995629E+03 0.  0.
          5    1    3    3  501    0 -0.10215488839E+02 -0.64025774239E+01  0.14524183675E+03  0.14581711268E+03  0.47000000000E+01 0. -1.
         -5    1    3    3    0  501 -0.90081525300E+02  0.27023638215E+02  0.46778015237E+02  0.10514385827E+03  0.47000000000E+01 0. -1.
          5    1    4    4  502    0  0.58555435500E+02 -0.51557672117E+00  0.21875181278E+02  0.62686668454E+02  0.47000000000E+01 0. -1.
         -5    1    4    4    0  502  0.41741578639E+02 -0.20105484070E+02  0.24427392270E+03  0.24867333832E+03  0.47000000000E+01 0. -1.
<mgrwt>
<rscale>  0 0.32601547E+03</rscale>
<asrwt>0</asrwt>
<pdfrwt beam="1">  1       21 0.78499222E-01 0.32601547E+03</pdfrwt>
<pdfrwt beam="2">  1       21 0.80116943E-02 0.32601547E+03</pdfrwt>
<totfact> 0.16530564E+05</totfact>
</mgrwt>
</event>
<event>
 8    1  0.9705063E-006  0.2867942E+03  0.7546771E-02  0.1092035E+00
         21   -1    0    0  504  503  0.00000000000E+00  0.00000000000E+00  0.87610171966E+02  0.87610171966E+02  0.00000000000E+00 0. -1.
         21   -1    0    0  503  504 -0.00000000000E+00 -0.00000000000E+00 -0.23470712080E+03  0.23470712080E+03  0.00000000000E+00 0. -1.
         25    2    1    2    0    0 -0.28877328500E+00  0.37976336855E+02 -0.71021855691E+01  0.13083570941E+03  0.12500102506E+03 0.  0.
         25    2    1    2    0    0  0.28877328500E+00 -0.37976336855E+02 -0.13999476326E+03  0.19148158335E+03  0.12499750986E+03 0.  0.
          5    1    3    3  501    0  0.42910294150E+02 -0.13836972975E+02  0.29360963089E+02  0.54008437477E+02  0.47000000000E+01 0.  1.
         -5    1    3    3    0  501 -0.43199067435E+02  0.51813309830E+02 -0.36463148658E+02  0.76827271934E+02  0.47000000000E+01 0.  1.
          5    1    4    4  502    0  0.39288149198E+01 -0.55587356140E+02 -0.60464568417E+01  0.56249794574E+02  0.47000000000E+01 0.  1.
         -5    1    4    4    0  502 -0.36400416348E+01  0.17611019284E+02 -0.13394830642E+03  0.13523178878E+03  0.47000000000E+01 0.  1.
<mgrwt>
<rscale>  0 0.28679422E+03</rscale>
<asrwt>0</asrwt>
<pdfrwt beam="1">  1       21 0.13478488E-01 0.28679422E+03</pdfrwt>
<pdfrwt beam="2">  1       21 0.36108787E-01 0.28679422E+03</pdfrwt>
<totfact> 0.34492559E+05</totfact>
</mgrwt>
</event>
<event>
 8    1  0.9705063E-006  0.3143619E+03  0.7546771E-02  0.1078274E+00
         21   -1    0    0  504  503  0.00000000000E+00  0.00000000000E+00  0.62777789674E+03  0.62777789674E+03  0.00000000000E+00 0. -1.
         21   -1    0    0  503  504 -0.00000000000E+00 -0.00000000000E+00 -0.39354452369E+02  0.39354452369E+02  0.00000000000E+00 0. -1.
         25    2    1    2    0    0  0.45765453834E+02 -0.83436200110E+02  0.28319931946E+03  0.32385323982E+03  0.12499196032E+03 0.  0.
         25    2    1    2    0    0 -0.45765453834E+02  0.83436200110E+02  0.30522412491E+03  0.34327910928E+03  0.12499081643E+03 0.  0.
          5    1    3    3  501    0 -0.22959902378E+02  0.10599689177E+02  0.12342083944E+03  0.12607261453E+03  0.47000000000E+01 0.  1.
         -5    1    3    3    0  501  0.68725356212E+02 -0.94035889286E+02  0.15977848003E+03  0.19778062529E+03  0.47000000000E+01 0.  1.
          5    1    4    4  502    0 -0.54630576975E+02  0.10876910329E+03  0.28305657194E+03  0.30815309619E+03  0.47000000000E+01 0.  1.
         -5    1    4    4    0  502  0.88651231414E+01 -0.25332903177E+02  0.22167552967E+02  0.35126013099E+02  0.47000000000E+01 0.  1.
<mgrwt>
<rscale>  0 0.31436193E+03</rscale>
<asrwt>0</asrwt>
<pdfrwt beam="1">  1       21 0.96581207E-01 0.31436193E+03</pdfrwt>
<pdfrwt beam="2">  1       21 0.60545316E-02 0.31436193E+03</pdfrwt>
<totfact> 0.16670574E+05</totfact>
</mgrwt>
</event>
<event>
 8    1  0.9705063E-006  0.4398818E+03  0.7546771E-02  0.1030783E+00
         21   -1    0    0  504  503  0.00000000000E+00  0.00000000000E+00  0.49346178178E+02  0.49346178178E+02  0.00000000000E+00 0.  1.
         21   -1    0    0  503  504 -0.00000000000E+00 -0.00000000000E+00 -0.98029882195E+03  0.98029882195E+03  0.00000000000E+00 0.  1.
         25    2    1    2    0    0  0.17575452936E+03 -0.42129616020E+02 -0.44394641948E+03  0.49535651684E+03  0.12500038507E+03 0.  0.
         25    2    1    2    0    0 -0.17575452936E+03  0.42129616020E+02 -0.48700622430E+03  0.53428848329E+03  0.12499824695E+03 0.  0.
          5    1    3    3  501    0  0.93672360162E+02 -0.43823165439E+02 -0.37185536533E+03  0.38599674042E+03  0.47000000000E+01 0. -1.
         -5    1    3    3    0  501  0.82082169200E+02  0.16935494190E+01 -0.72091054145E+02  0.10935977642E+03  0.47000000000E+01 0. -1.
          5    1    4    4  502    0 -0.61520592314E+02 -0.42134431177E+02 -0.12801432251E+03  0.14822230040E+03  0.47000000000E+01 0.  1.
         -5    1    4    4    0  502 -0.11423393705E+03  0.84264047197E+02 -0.35899190179E+03  0.38606618289E+03  0.47000000000E+01 0.  1.
<mgrwt>
<rscale>  0 0.43988180E+03</rscale>
<asrwt>0</asrwt>
<pdfrwt beam="1">  1       21 0.75917199E-02 0.43988180E+03</pdfrwt>
<pdfrwt beam="2">  1       21 0.15081520E+00 0.43988180E+03</pdfrwt>
<totfact> 0.35054169E+04</totfact>
</mgrwt>
</event>
<event>
 8    1  0.9705063E-006  0.2535528E+03  0.7546771E-02  0.1111080E+00
         21   -1    0    0  504  503  0.00000000000E+00  0.00000000000E+00  0.43959256712E+03  0.43959256712E+03  0.00000000000E+00 0.  1.
         21   -1    0    0  503  504 -0.00000000000E+00 -0.00000000000E+00 -0.36561713726E+02  0.36561713726E+02  0.00000000000E+00 0.  1.
         25    2    1    2    0    0  0.18634248964E+01  0.17752028776E+02  0.22280651946E+03  0.25610316480E+03  0.12500991571E+03 0.  0.
         25    2    1    2    0    0 -0.18634248964E+01 -0.17752028776E+02  0.18022433393E+03  0.22005111605E+03  0.12499230479E+03 0.  0.
          5    1    3    3  501    0  0.32574787531E+02 -0.31146057010E+02  0.17565841099E+03  0.18140882284E+03  0.47000000000E+01 0. -1.
         -5    1    3    3    0  501 -0.30711362635E+02  0.48898085786E+02  0.47148108471E+02  0.74694341960E+02  0.47000000000E+01 0. -1.
          5    1    4    4  502    0 -0.28945713381E+02 -0.58760023981E+02  0.55748355072E+02  0.86142694610E+02  0.47000000000E+01 0. -1.
         -5    1    4    4    0  502  0.27082288484E+02  0.41007995206E+02  0.12447597886E+03  0.13390842144E+03  0.47000000000E+01 0. -1.
<mgrwt>
<rscale>  0 0.25355282E+03</rscale>
<asrwt>0</asrwt>
<pdfrwt beam="1">  1       21 0.67629622E-01 0.25355282E+03</pdfrwt>
<pdfrwt beam="2">  1       21 0.56248793E-02 0.25355282E+03</pdfrwt>
<totfact> 0.43403012E+05</totfact>
</mgrwt>
</event>
<event>
 8    1  0.9705063E-006  0.2750640E+03  0.7546771E-02  0.1098416E+00
         21   -1    0    0  504  503  0.00000000000E+00  0.00000000000E+00  0.22189634727E+03  0.22189634727E+03  0.00000000000E+00 0.  1.
         21   -1    0    0  503  504 -0.00000000000E+00 -0.00000000000E+00 -0.85242756319E+02  0.85242756319E+02  0.00000000000E+00 0.  1.
         25    2    1    2    0    0 -0.18243999735E+02  0.10697622048E+02  0.12785504473E+03  0.18005605407E+03  0.12500394994E+03 0.  0.
         25    2    1    2    0    0  0.18243999735E+02 -0.10697622048E+02  0.87985462204E+01  0.12708304952E+03  0.12500161765E+03 0.  0.
          5    1    3    3  501    0 -0.14680214975E+02 -0.24882754602E+02  0.13920290031E+03  0.14224696005E+03  0.47000000000E+01 0. -1.
         -5    1    3    3    0  501 -0.35637847597E+01  0.35580376650E+02 -0.11347855584E+02  0.37809094022E+02  0.47000000000E+01 0. -1.
          5    1    4    4  502    0 -0.13792640134E+02  0.20450374066E+02  0.56332533305E+02  0.61675757229E+02  0.47000000000E+01 0. -1.
         -5    1    4    4    0  502  0.32036639869E+02 -0.31147996115E+02 -0.47533987084E+02  0.65407292286E+02  0.47000000000E+01 0. -1.
<mgrwt>
<rscale>  0 0.27506404E+03</rscale>
<asrwt>0</asrwt>
<pdfrwt beam="1">  1       21 0.34137899E-01 0.27506404E+03</pdfrwt>
<pdfrwt beam="2">  1       21 0.13114270E-01 0.27506404E+03</pdfrwt>
<totfact> 0.40659671E+05</totfact>
</mgrwt>
</event>
<event>
 8    1  0.9705063E-006  0.4016958E+03  0.7546771E-02  0.1043194E+00
         21   -1    0    0  504  503  0.00000000000E+00  0.00000000000E+00  0.15811735093E+03  0.15811735093E+03  0.00000000000E+00 0. -1.
         21   -1    0    0  503  504 -0.00000000000E+00 -0.00000000000E+00 -0.25512622851E+03  0.25512622851E+03  0.00000000000E+00 0. -1.
         25    2    1    2    0    0 -0.30117851438E+01  0.15126891617E+03 -0.45725028769E+01  0.19630831756E+03  0.12499876763E+03 0.  0.
         25    2    1    2    0    0  0.30117851438E+01 -0.15126891617E+03 -0.92436374702E+02  0.21693526188E+03  0.12500027452E+03 0.  0.
          5    1    3    3  501    0 -0.54795018712E+02  0.12751204098E+03 -0.74833446119E+01  0.13906798739E+03  0.47000000000E+01 0. -1.
         -5    1    3    3    0  501  0.51783233568E+02  0.23756875188E+02  0.29108417350E+01  0.57240330162E+02  0.47000000000E+01 0. -1.
          5    1    4    4  502    0 -0.18745513865E+02 -0.38189676327E+02  0.27283049286E+02  0.50757269887E+02  0.47000000000E+01 0.  1.
         -5    1    4    4    0  502  0.21757299008E+02 -0.11307923984E+03 -0.11971942399E+03  0.16617799200E+03  0.47000000000E+01 0.  1.
<mgrwt>
<rscale>  0 0.40169582E+03</rscale>
<asrwt>0</asrwt>
<pdfrwt beam="1">  1       21 0.24325746E-01 0.40169582E+03</pdfrwt>
<pdfrwt beam="2">  1       21 0.39250189E-01 0.40169582E+03</pdfrwt>
<totfact> 0.93968329E+04</totfact>
</mgrwt>
</event>
<event>
 8    1  0.9705063E-006  0.4823193E+03  0.7546771E-02  0.1018500E+00
         21   -1    0    0  504  503  0.00000000000E+00  0.00000000000E+00  0.29996503903E+03  0.29996503903E+03  0.00000000000E+00 0. -1.
         21   -1    0    0  503  504 -0.00000000000E+00 -0.00000000000E+00 -0.19388248480E+03  0.19388248480E+03  0.00000000000E+00 0. -1.
         25    2    1    2    0    0  0.93646239715E+01  0.19383541030E+03 -0.18448348918E+02  0.23156813046E+03  0.12499437986E+03 0.  0.
         25    2    1    2    0    0 -0.93646239715E+01 -0.19383541030E+03  0.12453090315E+03  0.26227939338E+03  0.12499068719E+03 0.  0.
          5    1    3    3  501    0  0.35290029148E+02  0.50028719311E+00 -0.33212402803E+00  0.35606695311E+02  0.47000000000E+01 0.  1.
         -5    1    3    3    0  501 -0.25925405177E+02  0.19333512311E+03 -0.18116224890E+02  0.19596143514E+03  0.47000000000E+01 0.  1.
          5    1    4    4  502    0  0.35113515194E+02 -0.23796676767E+02  0.62812459713E+02  0.75939027315E+02  0.47000000000E+01 0.  1.
         -5    1    4    4    0  502 -0.44478139165E+02 -0.17003873353E+03  0.61718443435E+02  0.18634036606E+03  0.47000000000E+01 0.  1.
<mgrwt>
<rscale>  0 0.48231926E+03</rscale>
<asrwt>0</asrwt>
<pdfrwt beam="1">  1       21 0.46148467E-01 0.48231926E+03</pdfrwt>
<pdfrwt beam="2">  1       21 0.29828075E-01 0.48231926E+03</pdfrwt>
<totfact> 0.44247149E+04</totfact>
</mgrwt>
</event>
<event>
 8    1  0.9705063E-006  0.3493986E+03  0.7546771E-02  0.1062862E+00
         21   -1    0    0  504  503  0.00000000000E+00  0.00000000000E+00  0.18204745379E+04  0.18204745379E+04  0.00000000000E+00 0.  1.
         21   -1    0    0  503  504 -0.00000000000E+00 -0.00000000000E+00 -0.16764778379E+02  0.16764778379E+02  0.00000000000E+00 0.  1.
         25    2    1    2    0    0  0.64841828075E+02  0.99943164462E+02  0.76257621926E+03  0.78188375112E+03  0.12500644501E+03 0.  0.
         25    2    1    2    0    0 -0.64841828075E+02 -0.99943164462E+02  0.10411335403E+04  0.10553555652E+04  0.12499288565E+03 0.  0.
          5    1    3    3  501    0  0.10810715245E+02  0.87372847740E+02  0.65350788479E+03  0.65942818530E+03  0.47000000000E+01 0.  1.
         -5    1    3    3    0  501  0.54031112830E+02  0.12570316722E+02  0.10906833447E+03  0.12245556582E+03  0.47000000000E+01 0.  1.
          5    1    4    4  502    0  0.30522297557E+02 -0.16120808341E+02  0.41510816862E+03  0.41656736882E+03  0.47000000000E+01 0.  1.
         -5    1    4    4    0  502 -0.95364125632E+02 -0.83822356121E+02  0.62602537164E+03  0.63878819634E+03  0.47000000000E+01 0.  1.
<mgrwt>
<rscale>  0 0.34939864E+03</rscale>
<asrwt>0</asrwt>
<pdfrwt beam="1">  1       21 0.28007285E+00 0.34939864E+03</pdfrwt>
<pdfrwt beam="2">  1       21 0.25791981E-02 0.34939864E+03</pdfrwt>
<totfact> 0.32551788E+04</totfact>
</mgrwt>
</event>
<event>
 8    1  0.9705063E-006  0.2837706E+03  0.7546771E-02  0.1093647E+00
         21   -1    0    0  504  503  0.00000000000E+00  0.00000000000E+00  0.59905019929E+02  0.59905019929E+02  0.00000000000E+00 0. -1.
         21   -1    0    0  503  504 -0.00000000000E+00 -0.00000000000E+00 -0.33605605591E+03  0.33605605591E+03  0.00000000000E+00 0. -1.
         25    2    1    2    0    0 -0.51015292738E+02 -0.33567269282E+02 -0.17704535029E+03  0.22515838175E+03  0.12498767601E+03 0.  0.
         25    2    1    2    0    0  0.51015292738E+02  0.33567269282E+02 -0.99105685690E+02  0.17080269408E+03  0.12498920637E+03 0.  0.
          5    1    3    3  501    0 -0.73810256702E+02  0.58948908162E+01 -0.15983893883E+03  0.17621940897E+03  0.47000000000E+01 0. -1.
         -5    1    3    3    0  501  0.22794963964E+02 -0.39462160098E+02 -0.17206411461E+02  0.48938972784E+02  0.47000000000E+01 0. -1.
          5    1    4    4  502    0  0.92342774453E+02  0.16146317105E+02 -0.70665164749E+02  0.11748849756E+03  0.47000000000E+01 0. -1.
         -5    1    4    4    0  502 -0.41327481715E+02  0.17420952177E+02 -0.28440520940E+02  0.53314196524E+02  0.47000000000E+01 0. -1.
<mgrwt>
<rscale>  0 0.28377064E+03</rscale>
<asrwt>0</asrwt>
<pdfrwt beam="1">  1       21 0.92161571E-02 0.28377064E+03</pdfrwt>
<pdfrwt beam="2">  1       21 0.51700930E-01 0.28377064E+03</pdfrwt>
<totfact> 0.32587121E+05</totfact>
</mgrwt>
</event>
<event>
 8    1  0.9705063E-006  0.3711387E+03  0.7546771E-02  0.1054258E+00
         21   -1    0    0  504  503  0.00000000000E+00  0.00000000000E+00  0.20292883003E+03  0.20292883003E+03  0.00000000000E+00 0. -1.
         21   -1    0    0  503  504 -0.00000000000E+00 -0.00000000000E+00 -0.16969487163E+03  0.16969487163E+03  0.00000000000E+00 0. -1.
         25    2    1    2    0    0 -0.82415993982E+02  0.10958405552E+03  0.13057701521E+02  0.18600514380E+03  0.12500539454E+03 0.  0.
         25    2    1    2    0    0  0.82415993982E+02 -0.10958405552E+03  0.20176256880E+02  0.18661855785E+03  0.12497337118E+03 0.  0.
          5    1    3    3  501    0  0.27161617681E+02 -0.36276584045E+01 -0.38989055746E+00  0.27805671997E+02  0.47000000000E+01 0. -1.
         -5    1    3    3    0  501 -0.10957761166E+03  0.11321171392E+03  0.13447592078E+02  0.15819947181E+03  0.47000000000E+01 0. -1.
          5    1    4    4  502    0  0.22568591290E+01 -0.81360417661E+00 -0.38770912372E+02  0.39128365811E+02  0.47000000000E+01 0.  1.
         -5    1    4    4    0  502  0.80159134853E+02 -0.10877045134E+03  0.58947169252E+02  0.14749019204E+03  0.47000000000E+01 0.  1.
<mgrwt>
<rscale>  0 0.37113869E+03</rscale>
<asrwt>0</asrwt>
<pdfrwt beam="1">  1       21 0.31219820E-01 0.37113869E+03</pdfrwt>
<pdfrwt beam="2">  1       21 0.26106903E-01 0.37113869E+03</pdfrwt>
<totfact> 0.13083731E+05</totfact>
</mgrwt>
</event>
<event>
 8    1  0.9705063E-006  0.3263219E+03  0.7546771E-02  0.1072776E+00
         21   -1    0    0  504  503  0.00000000000E+00  0.00000000000E+00  0.36348418861E+03  0.36348418861E+03  0.00000000000E+00 0.  1.
         21   -1    0    0  503  504 -0.00000000000E+00 -0.00000000000E+00 -0.73239776446E+02  0.73239776446E+02  0.00000000000E+00 0.  1.
         25    2    1    2    0    0  0.60782305803E+02  0.48240628170E+02  0.50784298886E+02  0.15566757033E+03  0.12502679927E+03 0.  0.
         25    2    1    2    0    0 -0.60782305803E+02 -0.48240628170E+02  0.23946011328E+03  0.28105639472E+03  0.12501961549E+03 0.  0.
          5    1    3    3  501    0  0.80945168965E+02  0.66577814980E+02  0.86526728722E+01  0.10526958048E+03  0.47000000000E+01 0.  1.
         -5    1    3    3    0  501 -0.20162863162E+02 -0.18337186810E+02  0.42131626013E+02  0.50397989856E+02  0.47000000000E+01 0.  1.
          5    1    4    4  502    0 -0.48043221567E+02 -0.61045848244E+02  0.24843991934E+03  0.26034444539E+03  0.47000000000E+01 0. -1.
         -5    1    4    4    0  502 -0.12739084236E+02  0.12805220074E+02 -0.89798060567E+01  0.20711949332E+02  0.47000000000E+01 0. -1.
<mgrwt>
<rscale>  0 0.32632193E+03</rscale>
<asrwt>0</asrwt>
<pdfrwt beam="1">  1       21 0.55920644E-01 0.32632193E+03</pdfrwt>
<pdfrwt beam="2">  1       21 0.11267658E-01 0.32632193E+03</pdfrwt>
<totfact> 0.19079657E+05</totfact>
</mgrwt>
</event>
<event>
 8    1  0.9705063E-006  0.2623901E+03  0.7546771E-02  0.1105716E+00
         21   -1    0    0  504  503  0.00000000000E+00  0.00000000000E+00  0.19577969690E+03  0.19577969690E+03  0.00000000000E+00 0. -1.
         21   -1    0    0  503  504 -0.00000000000E+00 -0.00000000000E+00 -0.87915880852E+02  0.87915880852E+02  0.00000000000E+00 0. -1.
         25    2    1    2    0    0  0.18850660666E+02 -0.30156854919E+02  0.34522132030E+02  0.13446684807E+03  0.12499908930E+03 0.  0.
         25    2    1    2    0    0 -0.18850660666E+02  0.30156854919E+02  0.73341684014E+02  0.14922872968E+03  0.12500171135E+03 0.  0.
          5    1    3    3  501    0  0.46615216502E+02 -0.62524756513E+02  0.45189330902E+02  0.90257903886E+02  0.47000000000E+01 0.  1.
         -5    1    3    3    0  501 -0.27764555836E+02  0.32367901594E+02 -0.10667198872E+02  0.44208944187E+02  0.47000000000E+01 0.  1.
          5    1    4    4  502    0 -0.58851475135E+01  0.76457512743E+02  0.24769484522E+02  0.80721766455E+02  0.47000000000E+01 0.  1.
         -5    1    4    4    0  502 -0.12965513153E+02 -0.46300657824E+02  0.48572199491E+02  0.68506963220E+02  0.47000000000E+01 0.  1.
<mgrwt>
<rscale>  0 0.26239013E+03</rscale>
<asrwt>0</asrwt>
<pdfrwt beam="1">  1       21 0.30119953E-01 0.26239013E+03</pdfrwt>
<pdfrwt beam="2">  1       21 0.13525520E-01 0.26239013E+03</pdfrwt>
<totfact> 0.49366747E+05</totfact>
</mgrwt>
</event>
<event>
 8    1  0.9705063E-006  0.3403520E+03  0.7546771E-02  0.1066646E+00
         21   -1    0    0  504  503  0.00000000000E+00  0.00000000000E+00  0.35021577716E+03  0.35021577716E+03  0.00000000000E+00 0. -1.
         21   -1    0    0  503  504 -0.00000000000E+00 -0.00000000000E+00 -0.82691529533E+02  0.82691529533E+02  0.00000000000E+00 0. -1.
         25    2    1    2    0    0  0.57431129367E+02 -0.92516396194E+02  0.18264434318E+03  0.24666260164E+03  0.12500345902E+03 0.  0.
         25    2    1    2    0    0 -0.57431129367E+02  0.92516396194E+02  0.84879904454E+02  0.18624470506E+03  0.12499949519E+03 0.  0.
          5    1    3    3  501    0  0.13012590656E+02 -0.11269309114E+03  0.10385849871E+03  0.15387572278E+03  0.47000000000E+01 0.  1.
         -5    1    3    3    0  501  0.44418538711E+02  0.20176694948E+02  0.78785844465E+02  0.92786878858E+02  0.47000000000E+01 0.  1.
          5    1    4    4  502    0 -0.92600717682E+01  0.42509652302E+02 -0.29203882133E+02  0.52609658806E+02  0.47000000000E+01 0.  1.
         -5    1    4    4    0  502 -0.48171057599E+02  0.50006743892E+02  0.11408378659E+03  0.13363504625E+03  0.47000000000E+01 0.  1.
<mgrwt>
<rscale>  0 0.34035204E+03</rscale>
<asrwt>0</asrwt>
<pdfrwt beam="1">  1       21 0.53879350E-01 0.34035204E+03</pdfrwt>
<pdfrwt beam="2">  1       21 0.12721774E-01 0.34035204E+03</pdfrwt>
<totfact> 0.16536173E+05</totfact>
</mgrwt>
</event>
<event>
 8    1  0.9705063E-006  0.4024788E+03  0.7546771E-02  0.1042925E+00
         21   -1    0    0  504  503  0.00000000000E+00  0.00000000000E+00  0.76118942057E+03  0.76118942057E+03  0.00000000000E+00 0.  1.
         21   -1    0    0  503  504 -0.00000000000E+00 -0.00000000000E+00 -0.53202661657E+02  0.53202661657E+02  0.00000000000E+00 0.  1.
         25    2    1    2    0    0 -0.15236580486E+03 -0.42577722433E+01  0.43591187204E+03  0.47841265871E+03  0.12500417878E+03 0.  0.
         25    2    1    2    0    0  0.15236580486E+03  0.42577722433E+01  0.27207488687E+03  0.33597942352E+03  0.12499584731E+03 0.  0.
          5    1    3    3  501    0 -0.18312830635E+02 -0.80217396222E+00  0.24122214400E+03  0.24196325342E+03  0.47000000000E+01 0.  1.
         -5    1    3    3    0  501 -0.13405297423E+03 -0.34555982811E+01  0.19468972804E+03  0.23644940529E+03  0.47000000000E+01 0.  1.
          5    1    4    4  502    0  0.40086363335E+02 -0.41592572345E+02  0.16226743691E+03  0.17230690550E+03  0.47000000000E+01 0. -1.
         -5    1    4    4    0  502  0.11227944153E+03  0.45850344588E+02  0.10980744996E+03  0.16367251802E+03  0.47000000000E+01 0. -1.
<mgrwt>
<rscale>  0 0.40247884E+03</rscale>
<asrwt>0</asrwt>
<pdfrwt beam="1">  1       21 0.11710606E+00 0.40247884E+03</pdfrwt>
<pdfrwt beam="2">  1       21 0.81850254E-02 0.40247884E+03</pdfrwt>
<totfact> 0.60008907E+04</totfact>
</mgrwt>
</event>
<event>
 8    1  0.9705063E-006  0.5467160E+03  0.7546771E-02  0.1002257E+00
         21   -1    0    0  504  503  0.00000000000E+00  0.00000000000E+00  0.25965380879E+03  0.25965380879E+03  0.00000000000E+00 0. -1.
         21   -1    0    0  503  504 -0.00000000000E+00 -0.00000000000E+00 -0.28778544915E+03  0.28778544915E+03  0.00000000000E+00 0. -1.
         25    2    1    2    0    0  0.24953574083E+01 -0.86675355951E+02 -0.24147412494E+03  0.28540102382E+03  0.12500058898E+03 0.  0.
         25    2    1    2    0    0 -0.24953574083E+01  0.86675355951E+02  0.21334248459E+03  0.26203823412E+03  0.12502070338E+03 0.  0.
          5    1    3    3  501    0  0.34676117592E+01 -0.11167373525E+03 -0.13197128058E+03  0.17297848529E+03  0.47000000000E+01 0.  1.
         -5    1    3    3    0  501 -0.97225435091E+00  0.24998379299E+02 -0.10950284437E+03  0.11242253854E+03  0.47000000000E+01 0.  1.
          5    1    4    4  502    0 -0.42608132027E+02 -0.12793879540E+02  0.59509771398E+02  0.74448903016E+02  0.47000000000E+01 0.  1.
         -5    1    4    4    0  502  0.40112774619E+02  0.99469235492E+02  0.15383271319E+03  0.18758933110E+03  0.47000000000E+01 0.  1.
<mgrwt>
<rscale>  0 0.54671597E+03</rscale>
<asrwt>0</asrwt>
<pdfrwt beam="1">  1       21 0.39946740E-01 0.54671597E+03</pdfrwt>
<pdfrwt beam="2">  1       21 0.44274684E-01 0.54671597E+03</pdfrwt>
<totfact> 0.26360138E+04</totfact>
</mgrwt>
</event>
<event>
 8    1  0.9705063E-006  0.3959483E+03  0.7546771E-02  0.1045192E+00
         21   -1    0    0  504  503  0.00000000000E+00  0.00000000000E+00  0.19782692874E+03  0.19782692874E+03  0.00000000000E+00 0.  1.
         21   -1    0    0  503  504 -0.00000000000E+00 -0.00000000000E+00 -0.19812146244E+03  0.19812146244E+03  0.00000000000E+00 0.  1.
         25    2    1    2    0    0 -0.82226873207E+02 -0.11475067926E+03  0.60186453110E+02  0.19792853335E+03  0.12499727240E+03 0.  0.
         25    2    1    2    0    0  0.82226873207E+02  0.11475067926E+03 -0.60480986817E+02  0.19801985783E+03  0.12499974903E+03 0.  0.
          5    1    3    3  501    0 -0.69902428117E+02 -0.24431290703E+02  0.74950003817E+02  0.10546483060E+03  0.47000000000E+01 0.  1.
         -5    1    3    3    0  501 -0.12324445090E+02 -0.90319388560E+02 -0.14763550708E+02  0.92463702749E+02  0.47000000000E+01 0.  1.
          5    1    4    4  502    0  0.75632468641E+02  0.90782721825E+02 -0.97443213894E+02  0.15322872717E+03  0.47000000000E+01 0.  1.
         -5    1    4    4    0  502  0.65944045665E+01  0.23967957437E+02  0.36962227077E+02  0.44791130660E+02  0.47000000000E+01 0.  1.
<mgrwt>
<rscale>  0 0.39594828E+03</rscale>
<asrwt>0</asrwt>
<pdfrwt beam="1">  1       21 0.30434912E-01 0.39594828E+03</pdfrwt>
<pdfrwt beam="2">  1       21 0.30480225E-01 0.39594828E+03</pdfrwt>
<totfact> 0.10097652E+05</totfact>
</mgrwt>
</event>
<event>
 8    1  0.9705063E-006  0.2707491E+03  0.7546771E-02  0.1100852E+00
         21   -1    0    0  504  503  0.00000000000E+00  0.00000000000E+00  0.19244112990E+03  0.19244112990E+03  0.00000000000E+00 0.  1.
         21   -1    0    0  503  504 -0.00000000000E+00 -0.00000000000E+00 -0.95230546671E+02  0.95230546671E+02  0.00000000000E+00 0.  1.
         25    2    1    2    0    0 -0.15921065401E+02  0.36752633954E+02  0.13403684091E+02  0.13194588638E+03  0.12500328699E+03 0.  0.
         25    2    1    2    0    0  0.15921065401E+02 -0.36752633954E+02  0.83806899136E+02  0.15572579019E+03  0.12499075551E+03 0.  0.
          5    1    3    3  501    0 -0.54411700397E+02  0.18903043847E+02 -0.34875938638E+02  0.67500957791E+02  0.47000000000E+01 0. -1.
         -5    1    3    3    0  501  0.38490634996E+02  0.17849590107E+02  0.48279622729E+02  0.64444928584E+02  0.47000000000E+01 0. -1.
          5    1    4    4  502    0 -0.40974552572E+01 -0.69518601095E+01  0.11040513085E+03  0.11079937011E+03  0.47000000000E+01 0. -1.
         -5    1    4    4    0  502  0.20018520658E+02 -0.29800773845E+02 -0.26598231716E+02  0.44926420083E+02  0.47000000000E+01 0. -1.
<mgrwt>
<rscale>  0 0.27074914E+03</rscale>
<asrwt>0</asrwt>
<pdfrwt beam="1">  1       21 0.29606328E-01 0.27074914E+03</pdfrwt>
<pdfrwt beam="2">  1       21 0.14650853E-01 0.27074914E+03</pdfrwt>
<totfact> 0.44066311E+05</totfact>
</mgrwt>
</event>
<event>
 8    1  0.9705063E-006  0.2641057E+03  0.7546771E-02  0.1104701E+00
         21   -1    0    0  504  503  0.00000000000E+00  0.00000000000E+00  0.72115024832E+03  0.72115024832E+03  0.00000000000E+00 0. -1.
         21   -1    0    0  503  504 -0.00000000000E+00 -0.00000000000E+00 -0.24180747428E+02  0.24180747428E+02  0.00000000000E+00 0. -1.
         25    2    1    2    0    0 -0.53436832994E+01 -0.38008761039E+01  0.22994610849E+03  0.26182091636E+03  0.12502790819E+03 0.  0.
         25    2    1    2    0    0  0.53436832994E+01  0.38008761039E+01  0.46702339240E+03  0.48351007938E+03  0.12501258417E+03 0.  0.
          5    1    3    3  501    0 -0.55385358581E+02  0.21120972923E+01  0.49661721907E+02  0.74567925564E+02  0.47000000000E+01 0. -1.
         -5    1    3    3    0  501  0.50041675282E+02 -0.59129733962E+01  0.18028438658E+03  0.18725299080E+03  0.47000000000E+01 0. -1.
          5    1    4    4  502    0  0.27490452790E+02  0.56229088553E+02  0.31321793957E+03  0.31944483571E+03  0.47000000000E+01 0.  1.
         -5    1    4    4    0  502 -0.22146769490E+02 -0.52428212450E+02  0.15380545283E+03  0.16406524367E+03  0.47000000000E+01 0.  1.
<mgrwt>
<rscale>  0 0.26410568E+03</rscale>
<asrwt>0</asrwt>
<pdfrwt beam="1">  1       21 0.11094618E+00 0.26410568E+03</pdfrwt>
<pdfrwt beam="2">  1       21 0.37201155E-02 0.26410568E+03</pdfrwt>
<totfact> 0.27706727E+05</totfact>
</mgrwt>
</event>
<event>
 8    1  0.9705063E-006  0.2878666E+03  0.7546771E-02  0.1091468E+00
         21   -1    0    0  504  503  0.00000000000E+00  0.00000000000E+00  0.11428170866E+04  0.11428170866E+04  0.00000000000E+00 0.  1.
         21   -1    0    0  503  504 -0.00000000000E+00 -0.00000000000E+00 -0.18127827144E+02  0.18127827144E+02  0.00000000000E+00 0.  1.
         25    2    1    2    0    0  0.27589350972E+02  0.64138614122E+02  0.62184727878E+03  0.63811752442E+03  0.12500001094E+03 0.  0.
         25    2    1    2    0    0 -0.27589350972E+02 -0.64138614122E+02  0.50284198071E+03  0.52282738936E+03  0.12499394942E+03 0.  0.
          5    1    3    3  501    0  0.34661638367E+02  0.99745805864E+02  0.49083557982E+03  0.50208795183E+03  0.47000000000E+01 0.  1.
         -5    1    3    3    0  501 -0.70722873944E+01 -0.35607191742E+02  0.13101169897E+03  0.13602957259E+03  0.47000000000E+01 0.  1.
          5    1    4    4  502    0 -0.12173178646E+02 -0.69225909736E+02  0.11668493707E+03  0.13630068744E+03  0.47000000000E+01 0. -1.
         -5    1    4    4    0  502 -0.15416172326E+02  0.50872956136E+01  0.38615704364E+03  0.38652670192E+03  0.47000000000E+01 0. -1.
<mgrwt>
<rscale>  0 0.28786657E+03</rscale>
<asrwt>0</asrwt>
<pdfrwt beam="1">  1       21 0.17581796E+00 0.28786657E+03</pdfrwt>
<pdfrwt beam="2">  1       21 0.27888974E-02 0.28786657E+03</pdfrwt>
<totfact> 0.13320816E+05</totfact>
</mgrwt>
</event>
<event>
 8    1  0.9705063E-006  0.3283704E+03  0.7546771E-02  0.1071860E+00
         21   -1    0    0  504  503  0.00000000000E+00  0.00000000000E+00  0.32013260358E+03  0.32013260358E+03  0.00000000000E+00 0.  1.
         21   -1    0    0  503  504 -0.00000000000E+00 -0.00000000000E+00 -0.84205059342E+02  0.84205059342E+02  0.00000000000E+00 0.  1.
         25    2    1    2    0    0 -0.92803186647E+02 -0.51290241546E+02  0.12954102281E+03  0.20892318461E+03  0.12499960058E+03 0.  0.
         25    2    1    2    0    0  0.92803186647E+02  0.51290241546E+02  0.10638652142E+03  0.19541447831E+03  0.12500242424E+03 0.  0.
          5    1    3    3  501    0 -0.68917834531E+02  0.24915749872E+02  0.99066735542E+02  0.12331573541E+03  0.47000000000E+01 0. -1.
         -5    1    3    3    0  501 -0.23885352116E+02 -0.76205991417E+02  0.30474287271E+02  0.85607449198E+02  0.47000000000E+01 0. -1.
          5    1    4    4  502    0  0.62225326503E+02  0.79372219480E+02  0.11470683533E+03  0.15281259292E+03  0.47000000000E+01 0.  1.
         -5    1    4    4    0  502  0.30577860144E+02 -0.28081977934E+02 -0.83203139057E+01  0.42601885395E+02  0.47000000000E+01 0.  1.
<mgrwt>
<rscale>  0 0.32837043E+03</rscale>
<asrwt>0</asrwt>
<pdfrwt beam="1">  1       21 0.49251169E-01 0.32837043E+03</pdfrwt>
<pdfrwt beam="2">  1       21 0.12954625E-01 0.32837043E+03</pdfrwt>
<totfact> 0.19408521E+05</totfact>
</mgrwt>
</event>
<event>
 8    1  0.9705063E-006  0.2809880E+03  0.7546771E-02  0.1095151E+00
         21   -1    0    0  504  503  0.00000000000E+00  0.00000000000E+00  0.42306672443E+02  0.42306672443E+02  0.00000000000E+00 0. -1.
         21   -1    0    0  503  504 -0.00000000000E+00 -0.00000000000E+00 -0.46655924588E+03  0.46655924588E+03  0.00000000000E+00 0. -1.
         25    2    1    2    0    0  0.37702098877E+02 -0.51034639398E+02 -0.19528474482E+03  0.24038928397E+03  0.12499957445E+03 0.  0.
         25    2    1    2    0    0 -0.37702098877E+02  0.51034639398E+02 -0.22896782862E+03  0.26847663436E+03  0.12500981550E+03 0.  0.
          5    1    3    3  501    0 -0.43316231417E+02 -0.32680637026E+02 -0.55808990328E+02  0.77981108879E+02  0.47000000000E+01 0. -1.
         -5    1    3    3    0  501  0.81018330294E+02 -0.18354002373E+02 -0.13947575449E+03  0.16240817509E+03  0.47000000000E+01 0. -1.
          5    1    4    4  502    0 -0.45352675979E+02  0.59449728648E+02 -0.24032390915E+03  0.25173161653E+03  0.47000000000E+01 0. -1.
         -5    1    4    4    0  502  0.76505771018E+01 -0.84150892498E+01  0.11356080522E+02  0.16745017823E+02  0.47000000000E+01 0. -1.
<mgrwt>
<rscale>  0 0.28098804E+03</rscale>
<asrwt>0</asrwt>
<pdfrwt beam="1">  1       21 0.65087190E-02 0.28098804E+03</pdfrwt>
<pdfrwt beam="2">  1       21 0.71778344E-01 0.28098804E+03</pdfrwt>
<totfact> 0.29390898E+05</totfact>
</mgrwt>
</event>
<event>
 8    1  0.9705063E-006  0.3848993E+03  0.7546771E-02  0.1049138E+00
         21   -1    0    0  504  503  0.00000000000E+00  0.00000000000E+00  0.96580254180E+03  0.96580254180E+03  0.00000000000E+00 0.  1.
         21   -1    0    0  503  504 -0.00000000000E+00 -0.00000000000E+00 -0.38348284170E+02  0.38348284170E+02  0.00000000000E+00 0.  1.
         25    2    1    2    0    0  0.70628685646E+02  0.80206042566E+02  0.72448693935E+03  0.74291884044E+03  0.12500263074E+03 0.  0.
         25    2    1    2    0    0 -0.70628685646E+02 -0.80206042566E+02  0.20296731828E+03  0.26123198554E+03  0.12499998990E+03 0.  0.
          5    1    3    3  501    0  0.31357941250E+02 -0.23937369405E+02  0.34902686736E+03  0.35128074566E+03  0.47000000000E+01 0. -1.
         -5    1    3    3    0  501  0.39270744396E+02  0.10414341197E+03  0.37546007199E+03  0.39163809478E+03  0.47000000000E+01 0. -1.
          5    1    4    4  502    0 -0.65393740758E+02  0.85345621100E+01  0.13108276824E+03  0.14681267728E+03  0.47000000000E+01 0. -1.
         -5    1    4    4    0  502 -0.52349448885E+01 -0.88740604676E+02  0.71884550041E+02  0.11441930825E+03  0.47000000000E+01 0. -1.
<mgrwt>
<rscale>  0 0.38489931E+03</rscale>
<asrwt>0</asrwt>
<pdfrwt beam="1">  1       21 0.14858499E+00 0.38489931E+03</pdfrwt>
<pdfrwt beam="2">  1       21 0.58997368E-02 0.38489931E+03</pdfrwt>
<totfact> 0.57629968E+04</totfact>
</mgrwt>
</event>
<event>
 8    1  0.9705063E-006  0.3489651E+03  0.7546771E-02  0.1063041E+00
         21   -1    0    0  504  503  0.00000000000E+00  0.00000000000E+00  0.39595847766E+03  0.39595847766E+03  0.00000000000E+00 0. -1.
         21   -1    0    0  503  504 -0.00000000000E+00 -0.00000000000E+00 -0.76887248703E+02  0.76887248703E+02  0.00000000000E+00 0. -1.
         25    2    1    2    0    0  0.27846556524E+02  0.11792121832E+03  0.17544280696E+03  0.24716172380E+03  0.12501157850E+03 0.  0.
         25    2    1    2    0    0 -0.27846556524E+02 -0.11792121832E+03  0.14362842200E+03  0.22568400256E+03  0.12499320368E+03 0.  0.
          5    1    3    3  501    0  0.50848826875E+02  0.13275207117E+03  0.16410603191E+03  0.21716720587E+03  0.47000000000E+01 0.  1.
         -5    1    3    3    0  501 -0.23002270351E+02 -0.14830852851E+02  0.11336775050E+02  0.29994517935E+02  0.47000000000E+01 0.  1.
          5    1    4    4  502    0 -0.33498378746E+02 -0.52507981703E+02 -0.54719896593E+01  0.62699778245E+02  0.47000000000E+01 0. -1.
         -5    1    4    4    0  502  0.56518222218E+01 -0.65413236619E+02  0.14910041165E+03  0.16298422431E+03  0.47000000000E+01 0. -1.
<mgrwt>
<rscale>  0 0.34896509E+03</rscale>
<asrwt>0</asrwt>
<pdfrwt beam="1">  1       21 0.60916688E-01 0.34896509E+03</pdfrwt>
<pdfrwt beam="2">  1       21 0.11828808E-01 0.34896509E+03</pdfrwt>
<totfact> 0.14447312E+05</totfact>
</mgrwt>
</event>
<event>
 8    1  0.9705063E-006  0.3369163E+03  0.7546771E-02  0.1068117E+00
         21   -1    0    0  504  503  0.00000000000E+00  0.00000000000E+00  0.51271809945E+02  0.51271809945E+02  0.00000000000E+00 0. -1.
         21   -1    0    0  503  504 -0.00000000000E+00 -0.00000000000E+00 -0.55348442250E+03  0.55348442250E+03  0.00000000000E+00 0. -1.
         25    2    1    2    0    0 -0.51282783423E+02  0.63191380624E+02 -0.39164752914E+03  0.41908919323E+03  0.12499956135E+03 0.  0.
         25    2    1    2    0    0  0.51282783423E+02 -0.63191380624E+02 -0.11056508341E+03  0.18566703921E+03  0.12499814927E+03 0.  0.
          5    1    3    3  501    0 -0.71316203469E+02 -0.31559428057E+01 -0.26671840791E+03  0.27614626553E+03  0.47000000000E+01 0.  1.
         -5    1    3    3    0  501  0.20033420046E+02  0.66347323430E+02 -0.12492912124E+03  0.14294292769E+03  0.47000000000E+01 0.  1.
          5    1    4    4  502    0 -0.24528981777E+01 -0.60865039992E+02  0.16727881561E+01  0.61118393491E+02  0.47000000000E+01 0.  1.
         -5    1    4    4    0  502  0.53735681600E+02 -0.23263406325E+01 -0.11223787157E+03  0.12454864572E+03  0.47000000000E+01 0.  1.
<mgrwt>
<rscale>  0 0.33691630E+03</rscale>
<asrwt>0</asrwt>
<pdfrwt beam="1">  1       21 0.78879706E-02 0.33691630E+03</pdfrwt>
<pdfrwt beam="2">  1       21 0.85151451E-01 0.33691630E+03</pdfrwt>
<totfact> 0.14051407E+05</totfact>
</mgrwt>
</event>
<event>
 8    1  0.9705063E-006  0.2748488E+03  0.7546771E-02  0.1098536E+00
         21   -1    0    0  504  503  0.00000000000E+00  0.00000000000E+00  0.35223804400E+02  0.35223804400E+02  0.00000000000E+00 0. -1.
         21   -1    0    0  503  504 -0.00000000000E+00 -0.00000000000E+00 -0.53615641608E+03  0.53615641608E+03  0.00000000000E+00 0. -1.
         25    2    1    2    0    0  0.56817171484E+02  0.54966713999E+01 -0.25311750163E+03  0.28801588133E+03  0.12500509547E+03 0.  0.
         25    2    1    2    0    0 -0.56817171484E+02 -0.54966713999E+01 -0.24781511004E+03  0.28336433915E+03  0.12499846224E+03 0.  0.
          5    1    3    3  501    0 -0.19626096127E+02 -0.12299749925E+02 -0.70935910477E+00  0.23644464209E+02  0.47000000000E+01 0.  1.
         -5    1    3    3    0  501  0.76443267611E+02  0.17796421325E+02 -0.25240814253E+03  0.26437141712E+03  0.47000000000E+01 0.  1.
          5    1    4    4  502    0  0.25120885573E+01  0.35568205509E+02 -0.13949610199E+02  0.38575762555E+02  0.47000000000E+01 0. -1.
         -5    1    4    4    0  502 -0.59329260042E+02 -0.41064876908E+02 -0.23386549985E+03  0.24478857659E+03  0.47000000000E+01 0. -1.
<mgrwt>
<rscale>  0 0.27484882E+03</rscale>
<asrwt>0</asrwt>
<pdfrwt beam="1">  1       21 0.54190464E-02 0.27484882E+03</pdfrwt>
<pdfrwt beam="2">  1       21 0.82485609E-01 0.27484882E+03</pdfrwt>
<totfact> 0.29460058E+05</totfact>
</mgrwt>
</event>
<event>
 8    1  0.9705063E-006  0.2907380E+03  0.7546771E-02  0.1089964E+00
         21   -1    0    0  504  503  0.00000000000E+00  0.00000000000E+00  0.47467326763E+03  0.47467326763E+03  0.00000000000E+00 0.  1.
         21   -1    0    0  503  504 -0.00000000000E+00 -0.00000000000E+00 -0.44519344993E+02  0.44519344993E+02  0.00000000000E+00 0.  1.
         25    2    1    2    0    0  0.40711157978E+02 -0.31691493552E+02  0.11980496380E+03  0.18066152574E+03  0.12499443340E+03 0.  0.
         25    2    1    2    0    0 -0.40711157978E+02  0.31691493552E+02  0.31034895884E+03  0.33853108689E+03  0.12500028557E+03 0.  0.
          5    1    3    3  501    0  0.16649583162E+01 -0.75393226760E+02  0.57112163120E+02  0.94714306753E+02  0.47000000000E+01 0. -1.
         -5    1    3    3    0  501  0.39046199662E+02  0.43701733208E+02  0.62692800685E+02  0.85947218984E+02  0.47000000000E+01 0. -1.
          5    1    4    4  502    0 -0.80359028137E+02  0.37959335061E+02  0.16269472122E+03  0.18544580565E+03  0.47000000000E+01 0. -1.
         -5    1    4    4    0  502  0.39647870159E+02 -0.62678415085E+01  0.14765423762E+03  0.15308528124E+03  0.47000000000E+01 0. -1.
<mgrwt>
<rscale>  0 0.29073798E+03</rscale>
<asrwt>0</asrwt>
<pdfrwt beam="1">  1       21 0.73026653E-01 0.29073798E+03</pdfrwt>
<pdfrwt beam="2">  1       21 0.68491303E-02 0.29073798E+03</pdfrwt>
<totfact> 0.25824389E+05</totfact>
</mgrwt>
</event>
<event>
 8    1  0.9705063E-006  0.3953899E+03  0.7546771E-02  0.1045388E+00
         21   -1    0    0  504  503  0.00000000000E+00  0.00000000000E+00  0.15803441869E+03  0.15803441869E+03  0.00000000000E+00 0. -1.
         21   -1    0    0  503  504 -0.00000000000E+00 -0.00000000000E+00 -0.24730874167E+03  0.24730874167E+03  0.00000000000E+00 0. -1.
         25    2    1    2    0    0  0.10733316618E+02 -0.39574217209E+02  0.10665329203E+03  0.16934602495E+03  0.12498731420E+03 0.  0.
         25    2    1    2    0    0 -0.10733316618E+02  0.39574217209E+02 -0.19592761501E+03  0.23599713542E+03  0.12500277937E+03 0.  0.
          5    1    3    3  501    0  0.79152483546E+01 -0.39157058687E+00 -0.27750450302E+02  0.29240074829E+02  0.47000000000E+01 0. -1.
         -5    1    3    3    0  501  0.28180682636E+01 -0.39182646622E+02  0.13440374233E+03  0.14010595012E+03  0.47000000000E+01 0. -1.
          5    1    4    4  502    0  0.28259610252E+02 -0.29893810400E+02 -0.11549895118E+03  0.12269614173E+03  0.47000000000E+01 0.  1.
         -5    1    4    4    0  502 -0.38992926870E+02  0.69468027609E+02 -0.80428663831E+02  0.11330099369E+03  0.47000000000E+01 0.  1.
<mgrwt>
<rscale>  0 0.39538990E+03</rscale>
<asrwt>0</asrwt>
<pdfrwt beam="1">  1       21 0.24312988E-01 0.39538990E+03</pdfrwt>
<pdfrwt beam="2">  1       21 0.38047499E-01 0.39538990E+03</pdfrwt>
<totfact> 0.10037416E+05</totfact>
</mgrwt>
</event>
<event>
 8    1  0.9705063E-006  0.3803455E+03  0.7546771E-02  0.1050806E+00
         21   -1    0    0  504  503  0.00000000000E+00  0.00000000000E+00  0.14373917111E+03  0.14373917111E+03  0.00000000000E+00 0. -1.
         21   -1    0    0  503  504 -0.00000000000E+00 -0.00000000000E+00 -0.25160629008E+03  0.25160629008E+03  0.00000000000E+00 0. -1.
         25    2    1    2    0    0 -0.30626187106E+02 -0.12732380265E+03  0.66028282097E+01  0.18115361668E+03  0.12499488565E+03 0.  0.
         25    2    1    2    0    0  0.30626187106E+02  0.12732380265E+03 -0.11446994718E+03  0.21419184451E+03  0.12500185354E+03 0.  0.
          5    1    3    3  501    0  0.39580301084E+01 -0.13379511553E+02 -0.47899943104E+02  0.50111594278E+02  0.47000000000E+01 0. -1.
         -5    1    3    3    0  501 -0.34584217215E+02 -0.11394429110E+03  0.54502771314E+02  0.13104202240E+03  0.47000000000E+01 0. -1.
          5    1    4    4  502    0  0.11185001371E+02  0.70523655160E+02 -0.13313391929E+03  0.15114701671E+03  0.47000000000E+01 0.  1.
         -5    1    4    4    0  502  0.19441185735E+02  0.56800147491E+02  0.18663972114E+02  0.63044827804E+02  0.47000000000E+01 0.  1.
<mgrwt>
<rscale>  0 0.38034552E+03</rscale>
<asrwt>0</asrwt>
<pdfrwt beam="1">  1       21 0.22113719E-01 0.38034552E+03</pdfrwt>
<pdfrwt beam="2">  1       21 0.38708659E-01 0.38034552E+03</pdfrwt>
<totfact> 0.11667567E+05</totfact>
</mgrwt>
</event>
<event>
 8    1  0.9705063E-006  0.2693429E+03  0.7546771E-02  0.1101656E+00
         21   -1    0    0  504  503  0.00000000000E+00  0.00000000000E+00  0.63320715766E+02  0.63320715766E+02  0.00000000000E+00 0.  1.
         21   -1    0    0  503  504 -0.00000000000E+00 -0.00000000000E+00 -0.28642128573E+03  0.28642128573E+03  0.00000000000E+00 0.  1.
         25    2    1    2    0    0 -0.23442588123E+02 -0.43946888301E+02 -0.10423333582E+03  0.17020219658E+03  0.12499326180E+03 0.  0.
         25    2    1    2    0    0  0.23442588123E+02  0.43946888301E+02 -0.11886723415E+03  0.17953980492E+03  0.12499695303E+03 0.  0.
          5    1    3    3  501    0 -0.57201124473E+02 -0.11976281664E+02 -0.30042726085E+01  0.58707032094E+02  0.47000000000E+01 0.  1.
         -5    1    3    3    0  501  0.33758536350E+02 -0.31970606637E+02 -0.10122906321E+03  0.11149516448E+03  0.47000000000E+01 0.  1.
          5    1    4    4  502    0  0.50783294289E+02 -0.13173066409E+02 -0.10044938712E+03  0.11342240533E+03  0.47000000000E+01 0.  1.
         -5    1    4    4    0  502 -0.27340706166E+02  0.57119954710E+02 -0.18417847029E+02  0.66117399593E+02  0.47000000000E+01 0.  1.
<mgrwt>
<rscale>  0 0.26934291E+03</rscale>
<asrwt>0</asrwt>
<pdfrwt beam="1">  1       21 0.97416485E-02 0.26934291E+03</pdfrwt>
<pdfrwt beam="2">  1       21 0.44064814E-01 0.26934291E+03</pdfrwt>
<totfact> 0.41357807E+05</totfact>
</mgrwt>
</event>
<event>
 8    1  0.9705063E-006  0.2824306E+03  0.7546771E-02  0.1094369E+00
         21   -1    0    0  504  503  0.00000000000E+00  0.00000000000E+00  0.21324912350E+02  0.21324912350E+02  0.00000000000E+00 0.  1.
         21   -1    0    0  503  504 -0.00000000000E+00 -0.00000000000E+00 -0.93513906130E+03  0.93513906130E+03  0.00000000000E+00 0.  1.
         25    2    1    2    0    0  0.42991473833E+02  0.24134235416E+02 -0.60399831098E+03  0.61876377144E+03  0.12499566807E+03 0.  0.
         25    2    1    2    0    0 -0.42991473833E+02 -0.24134235416E+02 -0.30981583796E+03  0.33770020221E+03  0.12499937990E+03 0.  0.
          5    1    3    3  501    0  0.58100726865E+02  0.66532095512E+02 -0.42757892162E+03  0.43663261263E+03  0.47000000000E+01 0. -1.
         -5    1    3    3    0  501 -0.15109253031E+02 -0.42397860096E+02 -0.17641938936E+03  0.18213115881E+03  0.47000000000E+01 0. -1.
          5    1    4    4  502    0  0.26943196245E+02  0.12955061038E+02 -0.17803152844E+02  0.35111418108E+02  0.47000000000E+01 0. -1.
         -5    1    4    4    0  502 -0.69934670079E+02 -0.37089296453E+02 -0.29201268512E+03  0.30258878410E+03  0.47000000000E+01 0. -1.
<mgrwt>
<rscale>  0 0.28243058E+03</rscale>
<asrwt>0</asrwt>
<pdfrwt beam="1">  1       21 0.32807557E-02 0.28243058E+03</pdfrwt>
<pdfrwt beam="2">  1       21 0.14386755E+00 0.28243058E+03</pdfrwt>
<totfact> 0.17602647E+05</totfact>
</mgrwt>
</event>
<event>
 8    1  0.9705063E-006  0.2699017E+03  0.7546771E-02  0.1101336E+00
         21   -1    0    0  504  503  0.00000000000E+00  0.00000000000E+00  0.24961635455E+02  0.24961635455E+02  0.00000000000E+00 0. -1.
         21   -1    0    0  503  504 -0.00000000000E+00 -0.00000000000E+00 -0.72958881496E+03  0.72958881496E+03  0.00000000000E+00 0. -1.
         25    2    1    2    0    0  0.44792023252E+02  0.49174111877E+01 -0.28653432715E+03  0.31584881802E+03  0.12501219513E+03 0.  0.
         25    2    1    2    0    0 -0.44792023252E+02 -0.49174111877E+01 -0.41809285235E+03  0.43870163239E+03  0.12500793092E+03 0.  0.
          5    1    3    3  501    0 -0.16313400166E+02 -0.11848072082E+02 -0.22960873536E+03  0.23054015961E+03  0.47000000000E+01 0. -1.
         -5    1    3    3    0  501  0.61105423418E+02  0.16765483270E+02 -0.56925591786E+02  0.85308658415E+02  0.47000000000E+01 0. -1.
          5    1    4    4  502    0  0.31637086483E+02  0.29565379494E+02 -0.89337480032E+02  0.99389598270E+02  0.47000000000E+01 0.  1.
         -5    1    4    4    0  502 -0.76429109735E+02 -0.34482790682E+02 -0.32875537232E+03  0.33931203412E+03  0.47000000000E+01 0.  1.
<mgrwt>
<rscale>  0 0.26990169E+03</rscale>
<asrwt>0</asrwt>
<pdfrwt beam="1">  1       21 0.38402516E-02 0.26990169E+03</pdfrwt>
<pdfrwt beam="2">  1       21 0.11224443E+00 0.26990169E+03</pdfrwt>
<totfact> 0.25485906E+05</totfact>
</mgrwt>
</event>
<event>
 8    1  0.9705063E-006  0.2615894E+03  0.7546771E-02  0.1106192E+00
         21   -1    0    0  504  503  0.00000000000E+00  0.00000000000E+00  0.89397806981E+03  0.89397806981E+03  0.00000000000E+00 0.  1.
         21   -1    0    0  503  504 -0.00000000000E+00 -0.00000000000E+00 -0.19136103208E+02  0.19136103208E+02  0.00000000000E+00 0.  1.
         25    2    1    2    0    0 -0.94125362868E+01  0.61798364946E+01  0.56592244038E+03  0.57967280541E+03  0.12500226635E+03 0.  0.
         25    2    1    2    0    0  0.94125362868E+01 -0.61798364946E+01  0.30891952622E+03  0.33344136761E+03  0.12500034292E+03 0.  0.
          5    1    3    3  501    0  0.10808009159E+01  0.51118910586E+02  0.47337030249E+03  0.47614687275E+03  0.47000000000E+01 0. -1.
         -5    1    3    3    0  501 -0.10493337203E+02 -0.44939074092E+02  0.92552137887E+02  0.10352593266E+03  0.47000000000E+01 0. -1.
          5    1    4    4  502    0  0.52210592399E+02 -0.38458127871E+02  0.22096484950E+03  0.23033134453E+03  0.47000000000E+01 0. -1.
         -5    1    4    4    0  502 -0.42798056112E+02  0.32278291377E+02  0.87954676721E+02  0.10311002307E+03  0.47000000000E+01 0. -1.
<mgrwt>
<rscale>  0 0.26158942E+03</rscale>
<asrwt>0</asrwt>
<pdfrwt beam="1">  1       21 0.13753506E+00 0.26158942E+03</pdfrwt>
<pdfrwt beam="2">  1       21 0.29440166E-02 0.26158942E+03</pdfrwt>
<totfact> 0.23884464E+05</totfact>
</mgrwt>
</event>
<event>
 8    1  0.9705063E-006  0.2850154E+03  0.7546771E-02  0.1092981E+00
         21   -1    0    0  504  503  0.00000000000E+00  0.00000000000E+00  0.19643569489E+03  0.19643569489E+03  0.00000000000E+00 0. -1.
         21   -1    0    0  503  504 -0.00000000000E+00 -0.00000000000E+00 -0.10338471780E+03  0.10338471780E+03  0.00000000000E+00 0. -1.
         25    2    1    2    0    0 -0.51087229196E+01 -0.65086788987E+02  0.24979232591E+02  0.14322006857E+03  0.12500254729E+03 0.  0.
         25    2    1    2    0    0  0.51087229196E+01  0.65086788987E+02  0.68071744496E+02  0.15660034413E+03  0.12501006452E+03 0.  0.
          5    1    3    3  501    0 -0.32571964675E+02  0.80906948113E+01 -0.31819865057E+02  0.46486407020E+02  0.47000000000E+01 0.  1.
         -5    1    3    3    0  501  0.27463241756E+02 -0.73177483799E+02  0.56799097648E+02  0.96733661548E+02  0.47000000000E+01 0.  1.
          5    1    4    4  502    0 -0.26315210508E+02  0.57372740308E+02  0.95060008400E+02  0.11420427677E+03  0.47000000000E+01 0.  1.
         -5    1    4    4    0  502  0.31423933427E+02  0.77140486793E+01 -0.26988263904E+02  0.42396067360E+02  0.47000000000E+01 0.  1.
<mgrwt>
<rscale>  0 0.28501543E+03</rscale>
<asrwt>0</asrwt>
<pdfrwt beam="1">  1       21 0.30220876E-01 0.28501543E+03</pdfrwt>
<pdfrwt beam="2">  1       21 0.15905341E-01 0.28501543E+03</pdfrwt>
<totfact> 0.36293781E+05</totfact>
</mgrwt>
</event>
<event>
 8    1  0.9705063E-006  0.3767475E+03  0.7546771E-02  0.1052142E+00
         21   -1    0    0  504  503  0.00000000000E+00  0.00000000000E+00  0.35926736532E+04  0.35926736532E+04  0.00000000000E+00 0.  1.
         21   -1    0    0  503  504 -0.00000000000E+00 -0.00000000000E+00 -0.98769541837E+01  0.98769541837E+01  0.00000000000E+00 0.  1.
         25    2    1    2    0    0  0.75368850717E+02  0.96541656347E+02  0.24579546149E+04  0.24641765360E+04  0.12499742678E+03 0.  0.
         25    2    1    2    0    0 -0.75368850717E+02 -0.96541656347E+02  0.11248420842E+04  0.11383740714E+04  0.12500022834E+03 0.  0.
          5    1    3    3  501    0 -0.28284861966E+02 -0.57574214305E+01  0.43231124586E+03  0.43329930143E+03  0.47000000000E+01 0. -1.
         -5    1    3    3    0  501  0.10365371268E+03  0.10229907778E+03  0.20256433690E+04  0.20308772346E+04  0.47000000000E+01 0. -1.
          5    1    4    4  502    0 -0.56092100773E+02 -0.24132731114E+02  0.88358360203E+03  0.88570355326E+03  0.47000000000E+01 0. -1.
         -5    1    4    4    0  502 -0.19276749944E+02 -0.72408925233E+02  0.24125848217E+03  0.25267051819E+03  0.47000000000E+01 0. -1.
<mgrwt>
<rscale>  0 0.37674752E+03</rscale>
<asrwt>0</asrwt>
<pdfrwt beam="1">  1       21 0.55271798E+00 0.37674752E+03</pdfrwt>
<pdfrwt beam="2">  1       21 0.15195343E-02 0.37674752E+03</pdfrwt>
<totfact> 0.12453957E+03</totfact>
</mgrwt>
</event>
<event>
 8    1  0.9705063E-006  0.2646839E+03  0.7546771E-02  0.1104361E+00
         21   -1    0    0  504  503  0.00000000000E+00  0.00000000000E+00  0.16099439542E+03  0.16099439542E+03  0.00000000000E+00 0.  1.
         21   -1    0    0  503  504 -0.00000000000E+00 -0.00000000000E+00 -0.10878882393E+03  0.10878882393E+03  0.00000000000E+00 0.  1.
         25    2    1    2    0    0  0.33856103358E+02  0.58965170010E+01 -0.11380186757E+01  0.12963458582E+03  0.12499130413E+03 0.  0.
         25    2    1    2    0    0 -0.33856103358E+02 -0.58965170010E+01  0.53343590162E+02  0.14014863353E+03  0.12496037861E+03 0.  0.
          5    1    3    3  501    0  0.12470342782E+02  0.44118737058E+02  0.46001655641E+02  0.65116931212E+02  0.47000000000E+01 0. -1.
         -5    1    3    3    0  501  0.21385760576E+02 -0.38222220057E+02 -0.47139674316E+02  0.64517654609E+02  0.47000000000E+01 0. -1.
          5    1    4    4  502    0 -0.47367210437E+02  0.29790780930E+02 -0.18115082136E+02  0.59003300364E+02  0.47000000000E+01 0.  1.
         -5    1    4    4    0  502  0.13511107079E+02 -0.35687297931E+02  0.71458672298E+02  0.81145333166E+02  0.47000000000E+01 0.  1.
<mgrwt>
<rscale>  0 0.26468389E+03</rscale>
<asrwt>0</asrwt>
<pdfrwt beam="1">  1       21 0.24768368E-01 0.26468389E+03</pdfrwt>
<pdfrwt beam="2">  1       21 0.16736742E-01 0.26468389E+03</pdfrwt>
<totfact> 0.48815209E+05</totfact>
</mgrwt>
</event>
<event>
 8    1  0.9705063E-006  0.3062524E+03  0.7546771E-02  0.1082156E+00
         21   -1    0    0  504  503  0.00000000000E+00  0.00000000000E+00  0.11910460068E+03  0.11910460068E+03  0.00000000000E+00 0. -1.
         21   -1    0    0  503  504 -0.00000000000E+00 -0.00000000000E+00 -0.19686583347E+03  0.19686583347E+03  0.00000000000E+00 0. -1.
         25    2    1    2    0    0  0.19158740665E+02  0.12865321053E+02 -0.12697451087E+03  0.17966279703E+03  0.12499448146E+03 0.  0.
         25    2    1    2    0    0 -0.19158740665E+02 -0.12865321053E+02  0.49213278077E+02  0.13630763712E+03  0.12500100547E+03 0.  0.
          5    1    3    3  501    0 -0.23874180585E+02  0.57166532473E+02 -0.44057585185E+02  0.76165279137E+02  0.47000000000E+01 0.  1.
         -5    1    3    3    0  501  0.43032921250E+02 -0.44301211420E+02 -0.82916925683E+02  0.10349751789E+03  0.47000000000E+01 0.  1.
          5    1    4    4  502    0  0.21207891381E+02  0.65552891429E+01  0.79075383644E+02  0.82266352605E+02  0.47000000000E+01 0. -1.
         -5    1    4    4    0  502 -0.40366632047E+02 -0.19420610196E+02 -0.29862105567E+02  0.54041284515E+02  0.47000000000E+01 0. -1.
<mgrwt>
<rscale>  0 0.30625236E+03</rscale>
<asrwt>0</asrwt>
<pdfrwt beam="1">  1       21 0.18323785E-01 0.30625236E+03</pdfrwt>
<pdfrwt beam="2">  1       21 0.30287051E-01 0.30625236E+03</pdfrwt>
<totfact> 0.27665425E+05</totfact>
</mgrwt>
</event>
<event>
 8    1  0.9705063E-006  0.3282564E+03  0.7546771E-02  0.1071911E+00
         21   -1    0    0  504  503  0.00000000000E+00  0.00000000000E+00  0.90075498497E+02  0.90075498497E+02  0.00000000000E+00 0.  1.
         21   -1    0    0  503  504 -0.00000000000E+00 -0.00000000000E+00 -0.29906092522E+03  0.29906092522E+03  0.00000000000E+00 0.  1.
         25    2    1    2    0    0 -0.62412111586E+02 -0.74274291752E+02 -0.52788625025E+02  0.16679848509E+03  0.12499261422E+03 0.  0.
         25    2    1    2    0    0  0.62412111586E+02  0.74274291752E+02 -0.15619680169E+03  0.22233793862E+03  0.12499910401E+03 0.  0.
          5    1    3    3  501    0 -0.42641350161E+02 -0.10017149143E+03 -0.70133954031E+02  0.12958963672E+03  0.47000000000E+01 0.  1.
         -5    1    3    3    0  501 -0.19770761426E+02  0.25897199676E+02  0.17345329006E+02  0.37208848366E+02  0.47000000000E+01 0.  1.
          5    1    4    4  502    0  0.88273417317E+02  0.63448317968E+02 -0.64851655499E+02  0.12667167197E+03  0.47000000000E+01 0. -1.
         -5    1    4    4    0  502 -0.25861305730E+02  0.10825973784E+02 -0.91345146194E+02  0.95666266655E+02  0.47000000000E+01 0. -1.
<mgrwt>
<rscale>  0 0.32825637E+03</rscale>
<asrwt>0</asrwt>
<pdfrwt beam="1">  1       21 0.13857769E-01 0.32825637E+03</pdfrwt>
<pdfrwt beam="2">  1       21 0.46009372E-01 0.32825637E+03</pdfrwt>
<totfact> 0.19794744E+05</totfact>
</mgrwt>
</event>
<event>
 8    1  0.9705063E-006  0.3167123E+03  0.7546771E-02  0.1077172E+00
         21   -1    0    0  504  503  0.00000000000E+00  0.00000000000E+00  0.31757591115E+03  0.31757591115E+03  0.00000000000E+00 0.  1.
         21   -1    0    0  503  504 -0.00000000000E+00 -0.00000000000E+00 -0.78962758071E+02  0.78962758071E+02  0.00000000000E+00 0.  1.
         25    2    1    2    0    0 -0.76537831238E+02 -0.51877821260E+02  0.81685446739E+02  0.17563254533E+03  0.12499972329E+03 0.  0.
         25    2    1    2    0    0  0.76537831238E+02  0.51877821260E+02  0.15692770634E+03  0.22090612389E+03  0.12499545034E+03 0.  0.
          5    1    3    3  501    0 -0.42175734433E+02 -0.11595055419E+02 -0.29106016673E+02  0.52749294703E+02  0.47000000000E+01 0.  1.
         -5    1    3    3    0  501 -0.34362096805E+02 -0.40282765842E+02  0.11079146341E+03  0.12288325063E+03  0.47000000000E+01 0.  1.
          5    1    4    4  502    0  0.10305133269E+03  0.31318701712E+02  0.15247260171E+03  0.18673623783E+03  0.47000000000E+01 0. -1.
         -5    1    4    4    0  502 -0.26513501455E+02  0.20559119549E+02  0.44551046316E+01  0.34169886059E+02  0.47000000000E+01 0. -1.
<mgrwt>
<rscale>  0 0.31671230E+03</rscale>
<asrwt>0</asrwt>
<pdfrwt beam="1">  1       21 0.48857832E-01 0.31671230E+03</pdfrwt>
<pdfrwt beam="2">  1       21 0.12148117E-01 0.31671230E+03</pdfrwt>
<totfact> 0.22236415E+05</totfact>
</mgrwt>
</event>
<event>
 8    1  0.9705063E-006  0.2545039E+03  0.7546771E-02  0.1110491E+00
         21   -1    0    0  504  503  0.00000000000E+00  0.00000000000E+00  0.59860553280E+02  0.59860553280E+02  0.00000000000E+00 0.  1.
         21   -1    0    0  503  504 -0.00000000000E+00 -0.00000000000E+00 -0.27051296848E+03  0.27051296848E+03  0.00000000000E+00 0.  1.
         25    2    1    2    0    0  0.62375969196E+01 -0.20664391529E+02 -0.11831808693E+03  0.17346577783E+03  0.12500112676E+03 0.  0.
         25    2    1    2    0    0 -0.62375969196E+01  0.20664391529E+02 -0.92334328271E+02  0.15690774393E+03  0.12501394816E+03 0.  0.
          5    1    3    3  501    0 -0.51850780749E+02  0.19436226828E+02 -0.60024221475E+02  0.81800168345E+02  0.47000000000E+01 0.  1.
         -5    1    3    3    0  501  0.58088377668E+02 -0.40100618356E+02 -0.58293865456E+02  0.91665609486E+02  0.47000000000E+01 0.  1.
          5    1    4    4  502    0 -0.25870009717E+02  0.46943943226E+01  0.25119958853E+02  0.36666020695E+02  0.47000000000E+01 0. -1.
         -5    1    4    4    0  502  0.19632412797E+02  0.15969997206E+02 -0.11745428712E+03  0.12024172324E+03  0.47000000000E+01 0. -1.
<mgrwt>
<rscale>  0 0.25450388E+03</rscale>
<asrwt>0</asrwt>
<pdfrwt beam="1">  1       21 0.92093158E-02 0.25450388E+03</pdfrwt>
<pdfrwt beam="2">  1       21 0.41617380E-01 0.25450388E+03</pdfrwt>
<totfact> 0.51521717E+05</totfact>
</mgrwt>
</event>
<event>
 8    1  0.9705063E-006  0.3197636E+03  0.7546771E-02  0.1075758E+00
         21   -1    0    0  504  503  0.00000000000E+00  0.00000000000E+00  0.29876223540E+03  0.29876223540E+03  0.00000000000E+00 0. -1.
         21   -1    0    0  503  504 -0.00000000000E+00 -0.00000000000E+00 -0.85560328332E+02  0.85560328332E+02  0.00000000000E+00 0. -1.
         25    2    1    2    0    0  0.20915111661E+02  0.21659576320E+02  0.22081491796E+03  0.25552102302E+03  0.12500074427E+03 0.  0.
         25    2    1    2    0    0 -0.20915111661E+02 -0.21659576320E+02 -0.76130108972E+01  0.12880154071E+03  0.12500119924E+03 0.  0.
          5    1    3    3  501    0 -0.30507271668E+02  0.60266917147E+00  0.18861928077E+03  0.19112922308E+03  0.47000000000E+01 0. -1.
         -5    1    3    3    0  501  0.51422383329E+02  0.21056907149E+02  0.32195637192E+02  0.64391799945E+02  0.47000000000E+01 0. -1.
          5    1    4    4  502    0  0.48712447180E+02 -0.30969159991E+02 -0.74935256884E+01  0.58397211475E+02  0.47000000000E+01 0.  1.
         -5    1    4    4    0  502 -0.69627558841E+02  0.93095836702E+01 -0.11948520884E+00  0.70404329235E+02  0.47000000000E+01 0.  1.
<mgrwt>
<rscale>  0 0.31976363E+03</rscale>
<asrwt>0</asrwt>
<pdfrwt beam="1">  1       21 0.45963420E-01 0.31976363E+03</pdfrwt>
<pdfrwt beam="2">  1       21 0.13163128E-01 0.31976363E+03</pdfrwt>
<totfact> 0.21828600E+05</totfact>
</mgrwt>
</event>
<event>
 8    1  0.9705063E-006  0.3349055E+03  0.7546771E-02  0.1068987E+00
         21   -1    0    0  504  503  0.00000000000E+00  0.00000000000E+00  0.12607191479E+03  0.12607191479E+03  0.00000000000E+00 0.  1.
         21   -1    0    0  503  504 -0.00000000000E+00 -0.00000000000E+00 -0.22241609386E+03  0.22241609386E+03  0.00000000000E+00 0.  1.
         25    2    1    2    0    0  0.76717248546E+02 -0.63109708070E+02 -0.10069042396E+03  0.18876170047E+03  0.12499618638E+03 0.  0.
         25    2    1    2    0    0 -0.76717248546E+02  0.63109708070E+02  0.43462448910E+01  0.15972630818E+03  0.12500092880E+03 0.  0.
          5    1    3    3  501    0 -0.20872417886E+02 -0.38226012599E+02 -0.71407431536E+02  0.83773487131E+02  0.47000000000E+01 0. -1.
         -5    1    3    3    0  501  0.97589666432E+02 -0.24883695472E+02 -0.29282992423E+02  0.10498821334E+03  0.47000000000E+01 0. -1.
          5    1    4    4  502    0  0.33786024209E+01  0.31626912903E+02 -0.48821192952E+02  0.58457467062E+02  0.47000000000E+01 0.  1.
         -5    1    4    4    0  502 -0.80095850966E+02  0.31482795168E+02  0.53167437843E+02  0.10126884111E+03  0.47000000000E+01 0.  1.
<mgrwt>
<rscale>  0 0.33490550E+03</rscale>
<asrwt>0</asrwt>
<pdfrwt beam="1">  1       21 0.19395679E-01 0.33490550E+03</pdfrwt>
<pdfrwt beam="2">  1       21 0.34217860E-01 0.33490550E+03</pdfrwt>
<totfact> 0.19394514E+05</totfact>
</mgrwt>
</event>
<event>
 8    1  0.9705063E-006  0.2582749E+03  0.7546771E-02  0.1108184E+00
         21   -1    0    0  504  503  0.00000000000E+00  0.00000000000E+00  0.21036065656E+03  0.21036065656E+03  0.00000000000E+00 0. -1.
         21   -1    0    0  503  504 -0.00000000000E+00 -0.00000000000E+00 -0.79275643622E+02  0.79275643622E+02  0.00000000000E+00 0. -1.
         25    2    1    2    0    0 -0.19506878777E+02  0.14096879453E+02  0.41088847756E+02  0.13374557050E+03  0.12498137417E+03 0.  0.
         25    2    1    2    0    0  0.19506878777E+02 -0.14096879453E+02  0.89996165177E+02  0.15589072968E+03  0.12499347792E+03 0.  0.
          5    1    3    3  501    0 -0.43530346795E+02 -0.23999223014E+02  0.65454242284E+02  0.82323761031E+02  0.47000000000E+01 0. -1.
         -5    1    3    3    0  501  0.24023468018E+02  0.38096102467E+02 -0.24365394527E+02  0.51421809471E+02  0.47000000000E+01 0. -1.
          5    1    4    4  502    0 -0.25103155153E+02  0.22374339743E+02 -0.14141995380E+02  0.36781320135E+02  0.47000000000E+01 0.  1.
         -5    1    4    4    0  502  0.44610033929E+02 -0.36471219196E+02  0.10413816056E+03  0.11910940954E+03  0.47000000000E+01 0.  1.
<mgrwt>
<rscale>  0 0.25827486E+03</rscale>
<asrwt>0</asrwt>
<pdfrwt beam="1">  1       21 0.32363178E-01 0.25827486E+03</pdfrwt>
<pdfrwt beam="2">  1       21 0.12196253E-01 0.25827486E+03</pdfrwt>
<totfact> 0.51710562E+05</totfact>
</mgrwt>
</event>
<event>
 8    1  0.9705063E-006  0.2880288E+03  0.7546771E-02  0.1091383E+00
         21   -1    0    0  504  503  0.00000000000E+00  0.00000000000E+00  0.17533491188E+03  0.17533491188E+03  0.00000000000E+00 0. -1.
         21   -1    0    0  503  504 -0.00000000000E+00 -0.00000000000E+00 -0.11828876671E+03  0.11828876671E+03  0.00000000000E+00 0. -1.
         25    2    1    2    0    0 -0.33180302544E+02 -0.62640554676E+02  0.18793408630E+02  0.14491824875E+03  0.12499334000E+03 0.  0.
         25    2    1    2    0    0  0.33180302544E+02  0.62640554676E+02  0.38252736541E+02  0.14870542984E+03  0.12500104577E+03 0.  0.
          5    1    3    3  501    0 -0.22107715682E+02 -0.17201989524E+02  0.69919685326E+02  0.75468615545E+02  0.47000000000E+01 0.  1.
         -5    1    3    3    0  501 -0.11072586863E+02 -0.45438565152E+02 -0.51126276696E+02  0.69449633200E+02  0.47000000000E+01 0.  1.
          5    1    4    4  502    0 -0.44379919585E+02  0.34505032033E+02  0.34195005334E+02  0.65966376949E+02  0.47000000000E+01 0.  1.
         -5    1    4    4    0  502  0.77560222129E+02  0.28135522642E+02  0.40577312068E+01  0.82739052893E+02  0.47000000000E+01 0.  1.
<mgrwt>
<rscale>  0 0.28802882E+03</rscale>
<asrwt>0</asrwt>
<pdfrwt beam="1">  1       21 0.26974602E-01 0.28802882E+03</pdfrwt>
<pdfrwt beam="2">  1       21 0.18198272E-01 0.28802882E+03</pdfrwt>
<totfact> 0.35280471E+05</totfact>
</mgrwt>
</event>
<event>
 8    1  0.9705063E-006  0.2830047E+03  0.7546771E-02  0.1094059E+00
         21   -1    0    0  504  503  0.00000000000E+00  0.00000000000E+00  0.22067772501E+03  0.22067772501E+03  0.00000000000E+00 0. -1.
         21   -1    0    0  503  504 -0.00000000000E+00 -0.00000000000E+00 -0.90733734905E+02  0.90733734905E+02  0.00000000000E+00 0. -1.
         25    2    1    2    0    0 -0.34256402310E+02  0.56267951552E+02  0.56542373339E+02  0.15218832613E+03  0.12499865261E+03 0.  0.
         25    2    1    2    0    0  0.34256402310E+02 -0.56267951552E+02  0.73401616764E+02  0.15922313379E+03  0.12499850206E+03 0.  0.
          5    1    3    3  501    0 -0.39767534144E+02  0.84266758745E+02  0.54228516610E+01  0.93455019776E+02  0.47000000000E+01 0. -1.
         -5    1    3    3    0  501  0.55111318343E+01 -0.27998807192E+02  0.51119521678E+02  0.58733306351E+02  0.47000000000E+01 0. -1.
          5    1    4    4  502    0  0.14101596043E+02 -0.92159202085E+02  0.27342655465E+02  0.97272217759E+02  0.47000000000E+01 0. -1.
         -5    1    4    4    0  502  0.20154806267E+02  0.35891250533E+02  0.46058961299E+02  0.61950916026E+02  0.47000000000E+01 0. -1.
<mgrwt>
<rscale>  0 0.28300469E+03</rscale>
<asrwt>0</asrwt>
<pdfrwt beam="1">  1       21 0.33950419E-01 0.28300469E+03</pdfrwt>
<pdfrwt beam="2">  1       21 0.13959036E-01 0.28300469E+03</pdfrwt>
<totfact> 0.36636599E+05</totfact>
</mgrwt>
</event>
<event>
 8    1  0.9705063E-006  0.3736605E+03  0.7546771E-02  0.1053302E+00
         21   -1    0    0  504  503  0.00000000000E+00  0.00000000000E+00  0.17612093913E+03  0.17612093913E+03  0.00000000000E+00 0. -1.
         21   -1    0    0  503  504 -0.00000000000E+00 -0.00000000000E+00 -0.19819079670E+03  0.19819079670E+03  0.00000000000E+00 0. -1.
         25    2    1    2    0    0 -0.13179219192E+03 -0.25190557025E+02 -0.46815667483E+02  0.18926545649E+03  0.12500384107E+03 0.  0.
         25    2    1    2    0    0  0.13179219192E+03  0.25190557025E+02  0.24745809913E+02  0.18504627935E+03  0.12500409745E+03 0.  0.
          5    1    3    3  501    0  0.14609475189E+02 -0.23405991185E+02  0.13218383701E+02  0.30953075070E+02  0.47000000000E+01 0. -1.
         -5    1    3    3    0  501 -0.14640166711E+03 -0.17845658401E+01 -0.60034051184E+02  0.15831238141E+03  0.47000000000E+01 0. -1.
          5    1    4    4  502    0  0.15065000657E+03  0.38700302025E+02  0.34592160537E+02  0.15941093258E+03  0.47000000000E+01 0.  1.
         -5    1    4    4    0  502 -0.18857814649E+02 -0.13509745000E+02 -0.98463506239E+01  0.25635346768E+02  0.47000000000E+01 0.  1.
<mgrwt>
<rscale>  0 0.37366054E+03</rscale>
<asrwt>0</asrwt>
<pdfrwt beam="1">  1       21 0.27095529E-01 0.37366054E+03</pdfrwt>
<pdfrwt beam="2">  1       21 0.30490892E-01 0.37366054E+03</pdfrwt>
<totfact> 0.12746349E+05</totfact>
</mgrwt>
</event>
<event>
 8    1  0.9705063E-006  0.2898051E+03  0.7546771E-02  0.1090451E+00
         21   -1    0    0  504  503  0.00000000000E+00  0.00000000000E+00  0.11431272964E+03  0.11431272964E+03  0.00000000000E+00 0.  1.
         21   -1    0    0  503  504 -0.00000000000E+00 -0.00000000000E+00 -0.18367814977E+03  0.18367814977E+03  0.00000000000E+00 0.  1.
         25    2    1    2    0    0 -0.48634935825E+02  0.30897548259E+01 -0.91036491493E+02  0.16213356664E+03  0.12499898832E+03 0.  0.
         25    2    1    2    0    0  0.48634935825E+02 -0.30897548259E+01  0.21671071363E+02  0.13585731278E+03  0.12495067240E+03 0.  0.
          5    1    3    3  501    0 -0.15942501098E+02  0.40097259342E+02 -0.10242283645E+03  0.11124064444E+03  0.47000000000E+01 0. -1.
         -5    1    3    3    0  501 -0.32692434727E+02 -0.37007504516E+02  0.11386344957E+02  0.50892922203E+02  0.47000000000E+01 0. -1.
          5    1    4    4  502    0  0.80001438710E+02 -0.14502073009E+02 -0.18400711606E+02  0.83493811177E+02  0.47000000000E+01 0.  1.
         -5    1    4    4    0  502 -0.31366502885E+02  0.11412318183E+02  0.40071782969E+02  0.52363501600E+02  0.47000000000E+01 0.  1.
<mgrwt>
<rscale>  0 0.28980511E+03</rscale>
<asrwt>0</asrwt>
<pdfrwt beam="1">  1       21 0.17586574E-01 0.28980511E+03</pdfrwt>
<pdfrwt beam="2">  1       21 0.28258177E-01 0.28980511E+03</pdfrwt>
<totfact> 0.34334661E+05</totfact>
</mgrwt>
</event>
<event>
 8    1  0.9705063E-006  0.2882376E+03  0.7546771E-02  0.1091273E+00
         21   -1    0    0  504  503  0.00000000000E+00  0.00000000000E+00  0.10057604553E+02  0.10057604553E+02  0.00000000000E+00 0.  1.
         21   -1    0    0  503  504 -0.00000000000E+00 -0.00000000000E+00 -0.20651273880E+04  0.20651273880E+04  0.00000000000E+00 0.  1.
         25    2    1    2    0    0 -0.42031357996E+02 -0.53713704150E+02 -0.11870393313E+04  0.11955495328E+04  0.12499805718E+03 0.  0.
         25    2    1    2    0    0  0.42031357996E+02  0.53713704150E+02 -0.86803045212E+03  0.87963545971E+03  0.12501951489E+03 0.  0.
          5    1    3    3  501    0 -0.51301714809E+02 -0.90514947274E+02 -0.87290993000E+03  0.87910105079E+03  0.47000000000E+01 0. -1.
         -5    1    3    3    0  501  0.92703568128E+01  0.36801243124E+02 -0.31412940132E+03  0.31644848204E+03  0.47000000000E+01 0. -1.
          5    1    4    4  502    0  0.83442000281E+02  0.48953549498E+02 -0.50631673616E+03  0.51549757006E+03  0.47000000000E+01 0. -1.
         -5    1    4    4    0  502 -0.41410642285E+02  0.47601546519E+01 -0.36171371596E+03  0.36413788965E+03  0.47000000000E+01 0. -1.
<mgrwt>
<rscale>  0 0.28823764E+03</rscale>
<asrwt>0</asrwt>
<pdfrwt beam="1">  1       21 0.15473231E-02 0.28823764E+03</pdfrwt>
<pdfrwt beam="2">  1       21 0.31771205E+00 0.28823764E+03</pdfrwt>
<totfact> 0.46721084E+04</totfact>
</mgrwt>
</event>
<event>
 8    1  0.9705063E-006  0.3003376E+03  0.7546771E-02  0.1085072E+00
         21   -1    0    0  504  503  0.00000000000E+00  0.00000000000E+00  0.69239507978E+02  0.69239507978E+02  0.00000000000E+00 0.  1.
         21   -1    0    0  503  504 -0.00000000000E+00 -0.00000000000E+00 -0.32569069569E+03  0.32569069569E+03  0.00000000000E+00 0.  1.
         25    2    1    2    0    0 -0.56387332795E+02  0.57580022652E+02 -0.10098059696E+03  0.17977051049E+03  0.12500146068E+03 0.  0.
         25    2    1    2    0    0  0.56387332795E+02 -0.57580022652E+02 -0.15547059076E+03  0.21515969318E+03  0.12501039425E+03 0.  0.
          5    1    3    3  501    0 -0.44991651154E+02  0.79309869920E+01  0.18721233765E+02  0.49595602849E+02  0.47000000000E+01 0.  1.
         -5    1    3    3    0  501 -0.11395681641E+02  0.49649035660E+02 -0.11970183072E+03  0.13017490764E+03  0.47000000000E+01 0.  1.
          5    1    4    4  502    0 -0.29393405923E+02 -0.42481556192E+02 -0.97459888589E+02  0.11040459597E+03  0.47000000000E+01 0. -1.
         -5    1    4    4    0  502  0.85780738718E+02 -0.15098466460E+02 -0.58010702171E+02  0.10475509721E+03  0.47000000000E+01 0. -1.
<mgrwt>
<rscale>  0 0.30033757E+03</rscale>
<asrwt>0</asrwt>
<pdfrwt beam="1">  1       21 0.10652232E-01 0.30033757E+03</pdfrwt>
<pdfrwt beam="2">  1       21 0.50106261E-01 0.30033757E+03</pdfrwt>
<totfact> 0.26806720E+05</totfact>
</mgrwt>
</event>
<event>
 8    1  0.9705063E-006  0.2973842E+03  0.7546771E-02  0.1086556E+00
         21   -1    0    0  504  503  0.00000000000E+00  0.00000000000E+00  0.39124708289E+02  0.39124708289E+02  0.00000000000E+00 0. -1.
         21   -1    0    0  503  504 -0.00000000000E+00 -0.00000000000E+00 -0.56509923819E+03  0.56509923819E+03  0.00000000000E+00 0. -1.
         25    2    1    2    0    0 -0.64039401974E+02  0.29994784609E+02 -0.34125080093E+03  0.37024084034E+03  0.12500175443E+03 0.  0.
         25    2    1    2    0    0  0.64039401974E+02 -0.29994784609E+02 -0.18472372897E+03  0.23398310614E+03  0.12499802320E+03 0.  0.
          5    1    3    3  501    0 -0.34427604402E+02  0.58773267806E+02 -0.31209145811E+03  0.31947257344E+03  0.47000000000E+01 0.  1.
         -5    1    3    3    0  501 -0.29611797572E+02 -0.28778483196E+02 -0.29159342816E+02  0.50768266900E+02  0.47000000000E+01 0.  1.
          5    1    4    4  502    0  0.23779017471E+02 -0.57581185815E+02 -0.17248114898E+03  0.18344718964E+03  0.47000000000E+01 0. -1.
         -5    1    4    4    0  502  0.40260384503E+02  0.27586401205E+02 -0.12242579988E+02  0.50535916500E+02  0.47000000000E+01 0. -1.
<mgrwt>
<rscale>  0 0.29738422E+03</rscale>
<asrwt>0</asrwt>
<pdfrwt beam="1">  1       21 0.60191865E-02 0.29738422E+03</pdfrwt>
<pdfrwt beam="2">  1       21 0.86938335E-01 0.29738422E+03</pdfrwt>
<totfact> 0.21659892E+05</totfact>
</mgrwt>
</event>
<event>
 8    1  0.9705063E-006  0.2870157E+03  0.7546771E-02  0.1091918E+00
         21   -1    0    0  504  503  0.00000000000E+00  0.00000000000E+00  0.17263538082E+04  0.17263538082E+04  0.00000000000E+00 0. -1.
         21   -1    0    0  503  504 -0.00000000000E+00 -0.00000000000E+00 -0.11929481342E+02  0.11929481342E+02  0.00000000000E+00 0. -1.
         25    2    1    2    0    0 -0.50025081590E+02 -0.23346264026E+02  0.59172814149E+03  0.60730194713E+03  0.12500361883E+03 0.  0.
         25    2    1    2    0    0  0.50025081590E+02  0.23346264026E+02  0.11226961854E+04  0.11309813424E+04  0.12499806167E+03 0.  0.
          5    1    3    3  501    0  0.11884608112E+02 -0.29835619085E+02  0.37612482087E+02  0.49680950926E+02  0.47000000000E+01 0.  1.
         -5    1    3    3    0  501 -0.61909689702E+02  0.64893550595E+01  0.55411565941E+03  0.55762099620E+03  0.47000000000E+01 0.  1.
          5    1    4    4  502    0  0.99282200388E+01  0.71973829708E+02  0.65501009174E+03  0.65904408957E+03  0.47000000000E+01 0. -1.
         -5    1    4    4    0  502  0.40096861551E+02 -0.48627565683E+02  0.46768609364E+03  0.47193725286E+03  0.47000000000E+01 0. -1.
<mgrwt>
<rscale>  0 0.28701572E+03</rscale>
<asrwt>0</asrwt>
<pdfrwt beam="1">  1       21 0.26559270E+00 0.28701572E+03</pdfrwt>
<pdfrwt beam="2">  1       21 0.18353062E-02 0.28701572E+03</pdfrwt>
<totfact> 0.71816660E+04</totfact>
</mgrwt>
</event>
<event>
 8    1  0.9705063E-006  0.3349668E+03  0.7546771E-02  0.1068960E+00
         21   -1    0    0  504  503  0.00000000000E+00  0.00000000000E+00  0.51800953036E+02  0.51800953036E+02  0.00000000000E+00 0.  1.
         21   -1    0    0  503  504 -0.00000000000E+00 -0.00000000000E+00 -0.54150908377E+03  0.54150908377E+03  0.00000000000E+00 0.  1.
         25    2    1    2    0    0 -0.96352844025E+02  0.52392059209E+02 -0.28037473566E+03  0.32597830591E+03  0.12499226017E+03 0.  0.
         25    2    1    2    0    0  0.96352844025E+02 -0.52392059209E+02 -0.20933339507E+03  0.26733173090E+03  0.12496793843E+03 0.  0.
          5    1    3    3  501    0 -0.64770629161E+00 -0.28796390784E+02 -0.11309444013E+03  0.11679937514E+03  0.47000000000E+01 0. -1.
         -5    1    3    3    0  501 -0.95705137733E+02  0.81188449994E+02 -0.16728029554E+03  0.20917893076E+03  0.47000000000E+01 0. -1.
          5    1    4    4  502    0  0.36616454141E+02 -0.33348109426E+02 -0.19709578966E+03  0.20327740017E+03  0.47000000000E+01 0. -1.
         -5    1    4    4    0  502  0.59736389883E+02 -0.19043949783E+02 -0.12237605409E+02  0.64054330734E+02  0.47000000000E+01 0. -1.
<mgrwt>
<rscale>  0 0.33496678E+03</rscale>
<asrwt>0</asrwt>
<pdfrwt beam="1">  1       21 0.79693773E-02 0.33496678E+03</pdfrwt>
<pdfrwt beam="2">  1       21 0.83309091E-01 0.33496678E+03</pdfrwt>
<totfact> 0.14524137E+05</totfact>
</mgrwt>
</event>
<event>
 8    1  0.9705063E-006  0.2717242E+03  0.7546771E-02  0.1100297E+00
         21   -1    0    0  504  503  0.00000000000E+00  0.00000000000E+00  0.51330527538E+02  0.51330527538E+02  0.00000000000E+00 0.  1.
         21   -1    0    0  503  504 -0.00000000000E+00 -0.00000000000E+00 -0.35960092399E+03  0.35960092399E+03  0.00000000000E+00 0.  1.
         25    2    1    2    0    0 -0.35479251721E+02  0.16197054548E+02 -0.20891950244E+03  0.24656575861E+03  0.12500477167E+03 0.  0.
         25    2    1    2    0    0  0.35479251721E+02 -0.16197054548E+02 -0.99350894009E+02  0.16436569292E+03  0.12499743593E+03 0.  0.
          5    1    3    3  501    0 -0.37948997794E+02 -0.26737612749E+02 -0.16731405170E+02  0.49568702706E+02  0.47000000000E+01 0. -1.
         -5    1    3    3    0  501  0.24697460730E+01  0.42934667297E+02 -0.19218809727E+03  0.19699705590E+03  0.47000000000E+01 0. -1.
          5    1    4    4  502    0 -0.33885058652E+02 -0.39592704110E+02 -0.19254204012E+02  0.55754764736E+02  0.47000000000E+01 0.  1.
         -5    1    4    4    0  502  0.69364310372E+02  0.23395649562E+02 -0.80096689997E+02  0.10861092818E+03  0.47000000000E+01 0.  1.
<mgrwt>
<rscale>  0 0.27172416E+03</rscale>
<asrwt>0</asrwt>
<pdfrwt beam="1">  1       21 0.78970039E-02 0.27172416E+03</pdfrwt>
<pdfrwt beam="2">  1       21 0.55323221E-01 0.27172416E+03</pdfrwt>
<totfact> 0.37136376E+05</totfact>
</mgrwt>
</event>
<event>
 8    1  0.9705063E-006  0.3209310E+03  0.7546771E-02  0.1075222E+00
         21   -1    0    0  504  503  0.00000000000E+00  0.00000000000E+00  0.28625141854E+03  0.28625141854E+03  0.00000000000E+00 0. -1.
         21   -1    0    0  503  504 -0.00000000000E+00 -0.00000000000E+00 -0.89953034936E+02  0.89953034936E+02  0.00000000000E+00 0. -1.
         25    2    1    2    0    0  0.83805872215E+02 -0.55189080904E+02  0.89505313286E+02  0.18358953395E+03  0.12499862799E+03 0.  0.
         25    2    1    2    0    0 -0.83805872215E+02  0.55189080904E+02  0.10679307031E+03  0.19261491953E+03  0.12500595381E+03 0.  0.
          5    1    3    3  501    0  0.14010845425E+02 -0.52501767462E+02  0.98914499014E+02  0.11295533405E+03  0.47000000000E+01 0.  1.
         -5    1    3    3    0  501  0.69795026790E+02 -0.26873134423E+01 -0.94091857278E+01  0.70634199891E+02  0.47000000000E+01 0.  1.
          5    1    4    4  502    0 -0.10729946298E+02 -0.36287818366E+02  0.71413508499E+01  0.38794669753E+02  0.47000000000E+01 0.  1.
         -5    1    4    4    0  502 -0.73075925918E+02  0.91476899270E+02  0.99651719465E+02  0.15382024978E+03  0.47000000000E+01 0.  1.
<mgrwt>
<rscale>  0 0.32093104E+03</rscale>
<asrwt>0</asrwt>
<pdfrwt beam="1">  1       21 0.44038679E-01 0.32093104E+03</pdfrwt>
<pdfrwt beam="2">  1       21 0.13838929E-01 0.32093104E+03</pdfrwt>
<totfact> 0.21768343E+05</totfact>
</mgrwt>
</event>
<event>
 8    1  0.9705063E-006  0.2797099E+03  0.7546771E-02  0.1095847E+00
         21   -1    0    0  504  503  0.00000000000E+00  0.00000000000E+00  0.75302928859E+02  0.75302928859E+02  0.00000000000E+00 0. -1.
         21   -1    0    0  503  504 -0.00000000000E+00 -0.00000000000E+00 -0.25974306895E+03  0.25974306895E+03  0.00000000000E+00 0. -1.
         25    2    1    2    0    0 -0.24617410103E+02  0.19076973933E+02 -0.26994042667E+02  0.13161743550E+03  0.12499809268E+03 0.  0.
         25    2    1    2    0    0  0.24617410103E+02 -0.19076973933E+02 -0.15744609743E+03  0.20342856231E+03  0.12499583415E+03 0.  0.
          5    1    3    3  501    0 -0.43545632063E+02  0.16241401994E+02 -0.70089355329E+02  0.84229525352E+02  0.47000000000E+01 0.  1.
         -5    1    3    3    0  501  0.18928221960E+02  0.28355719385E+01  0.43095312662E+02  0.47387910149E+02  0.47000000000E+01 0.  1.
          5    1    4    4  502    0 -0.21013880718E+02  0.18036923814E+02  0.68036242850E+01  0.28901437800E+02  0.47000000000E+01 0. -1.
         -5    1    4    4    0  502  0.45631290821E+02 -0.37113897747E+02 -0.16424972171E+03  0.17452712451E+03  0.47000000000E+01 0. -1.
<mgrwt>
<rscale>  0 0.27970995E+03</rscale>
<asrwt>0</asrwt>
<pdfrwt beam="1">  1       21 0.11585066E-01 0.27970995E+03</pdfrwt>
<pdfrwt beam="2">  1       21 0.39960472E-01 0.27970995E+03</pdfrwt>
<totfact> 0.37002713E+05</totfact>
</mgrwt>
</event>
<event>
 8    1  0.9705063E-006  0.2805517E+03  0.7546771E-02  0.1095388E+00
         21   -1    0    0  504  503  0.00000000000E+00  0.00000000000E+00  0.25743221237E+03  0.25743221237E+03  0.00000000000E+00 0. -1.
         21   -1    0    0  503  504 -0.00000000000E+00 -0.00000000000E+00 -0.76436853322E+02  0.76436853322E+02  0.00000000000E+00 0. -1.
         25    2    1    2    0    0  0.37280309843E+02 -0.22052326747E+01  0.15184894993E+03  0.20019795694E+03  0.12500573512E+03 0.  0.
         25    2    1    2    0    0 -0.37280309843E+02  0.22052326747E+01  0.29146409112E+02  0.13367110875E+03  0.12499507029E+03 0.  0.
          5    1    3    3  501    0 -0.24447157653E+02  0.29340221753E+02  0.11558891582E+03  0.12182528305E+03  0.47000000000E+01 0.  1.
         -5    1    3    3    0  501  0.61727467496E+02 -0.31545454427E+02  0.36260034109E+02  0.78372673886E+02  0.47000000000E+01 0.  1.
          5    1    4    4  502    0 -0.30929418348E+02  0.11375212641E+01  0.78064518220E+02  0.84107561366E+02  0.47000000000E+01 0. -1.
         -5    1    4    4    0  502 -0.63508914945E+01  0.10677114105E+01 -0.48918109108E+02  0.49563547382E+02  0.47000000000E+01 0. -1.
<mgrwt>
<rscale>  0 0.28055166E+03</rscale>
<asrwt>0</asrwt>
<pdfrwt beam="1">  1       21 0.39604955E-01 0.28055166E+03</pdfrwt>
<pdfrwt beam="2">  1       21 0.11759516E-01 0.28055166E+03</pdfrwt>
<totfact> 0.36676232E+05</totfact>
</mgrwt>
</event>
<event>
 8    1  0.9705063E-006  0.3375544E+03  0.7546771E-02  0.1067842E+00
         21   -1    0    0  504  503  0.00000000000E+00  0.00000000000E+00  0.28777795522E+03  0.28777795522E+03  0.00000000000E+00 0. -1.
         21   -1    0    0  503  504 -0.00000000000E+00 -0.00000000000E+00 -0.98985149614E+02  0.98985149614E+02  0.00000000000E+00 0. -1.
         25    2    1    2    0    0 -0.90525552421E+02  0.95304756382E+01  0.16892778970E+02  0.15555054431E+03  0.12499960099E+03 0.  0.
         25    2    1    2    0    0  0.90525552421E+02 -0.95304756382E+01  0.17190002663E+03  0.23121256052E+03  0.12499569344E+03 0.  0.
          5    1    3    3  501    0 -0.11306045516E+02 -0.41197508148E+02  0.39845597137E+02  0.58607362626E+02  0.47000000000E+01 0. -1.
         -5    1    3    3    0  501 -0.79219506904E+02  0.50727983786E+02 -0.22952818167E+02  0.96943181684E+02  0.47000000000E+01 0. -1.
          5    1    4    4  502    0  0.22020908612E+02  0.55578325316E+02  0.69078050469E+02  0.91475339397E+02  0.47000000000E+01 0.  1.
         -5    1    4    4    0  502  0.68504643808E+02 -0.65108800955E+02  0.10282197616E+03  0.13973722112E+03  0.47000000000E+01 0.  1.
<mgrwt>
<rscale>  0 0.33755440E+03</rscale>
<asrwt>0</asrwt>
<pdfrwt beam="1">  1       21 0.44273531E-01 0.33755440E+03</pdfrwt>
<pdfrwt beam="2">  1       21 0.15228485E-01 0.33755440E+03</pdfrwt>
<totfact> 0.17995251E+05</totfact>
</mgrwt>
</event>
<event>
 8    1  0.9705063E-006  0.3542783E+03  0.7546771E-02  0.1060873E+00
         21   -1    0    0  504  503  0.00000000000E+00  0.00000000000E+00  0.58360508574E+02  0.58360508574E+02  0.00000000000E+00 0.  1.
         21   -1    0    0  503  504 -0.00000000000E+00 -0.00000000000E+00 -0.53766284795E+03  0.53766284795E+03  0.00000000000E+00 0.  1.
         25    2    1    2    0    0 -0.84266483202E+02 -0.82337080325E+02 -0.16683270769E+03  0.23945287139E+03  0.12499716106E+03 0.  0.
         25    2    1    2    0    0  0.84266483202E+02  0.82337080325E+02 -0.31246963168E+03  0.35657048513E+03  0.12500002062E+03 0.  0.
          5    1    3    3  501    0  0.14859971828E+02  0.50292784064E+01  0.95953888836E+01  0.18980882273E+02  0.47000000000E+01 0. -1.
         -5    1    3    3    0  501 -0.99126455030E+02 -0.87366358731E+02 -0.17642809657E+03  0.22047198912E+03  0.47000000000E+01 0. -1.
          5    1    4    4  502    0  0.66810102489E+02  0.18868309784E+02 -0.26826043711E+03  0.27713779069E+03  0.47000000000E+01 0.  1.
         -5    1    4    4    0  502  0.17456380713E+02  0.63468770540E+02 -0.44209194571E+02  0.79432694441E+02  0.47000000000E+01 0.  1.
<mgrwt>
<rscale>  0 0.35427829E+03</rscale>
<asrwt>0</asrwt>
<pdfrwt beam="1">  1       21 0.89785397E-02 0.35427829E+03</pdfrwt>
<pdfrwt beam="2">  1       21 0.82717362E-01 0.35427829E+03</pdfrwt>
<totfact> 0.11903882E+05</totfact>
</mgrwt>
</event>
<event>
 8    1  0.9705063E-006  0.2743359E+03  0.7546771E-02  0.1098823E+00
         21   -1    0    0  504  503  0.00000000000E+00  0.00000000000E+00  0.70984208641E+03  0.70984208641E+03  0.00000000000E+00 0.  1.
         21   -1    0    0  503  504 -0.00000000000E+00 -0.00000000000E+00 -0.26505968224E+02  0.26505968224E+02  0.00000000000E+00 0.  1.
         25    2    1    2    0    0 -0.30582038801E+02  0.44050887227E+02  0.29419759383E+03  0.32412336310E+03  0.12501195355E+03 0.  0.
         25    2    1    2    0    0  0.30582038801E+02 -0.44050887227E+02  0.38913852435E+03  0.41222469153E+03  0.12499865362E+03 0.  0.
          5    1    3    3  501    0  0.33406360071E+02  0.44075153785E+02  0.21577117399E+03  0.22279563191E+03  0.47000000000E+01 0. -1.
         -5    1    3    3    0  501 -0.63988398872E+02 -0.24266558179E-01  0.78426419842E+02  0.10132773119E+03  0.47000000000E+01 0. -1.
          5    1    4    4  502    0  0.53298428092E+01  0.39786593558E+02  0.19585880383E+03  0.19998535269E+03  0.47000000000E+01 0. -1.
         -5    1    4    4    0  502  0.25252195992E+02 -0.83837480785E+02  0.19327972052E+03  0.21223933884E+03  0.47000000000E+01 0. -1.
<mgrwt>
<rscale>  0 0.27433594E+03</rscale>
<asrwt>0</asrwt>
<pdfrwt beam="1">  1       21 0.10920646E+00 0.27433594E+03</pdfrwt>
<pdfrwt beam="2">  1       21 0.40778418E-02 0.27433594E+03</pdfrwt>
<totfact> 0.24601624E+05</totfact>
</mgrwt>
</event>
<event>
 8    1  0.9705063E-006  0.2672465E+03  0.7546771E-02  0.1102866E+00
         21   -1    0    0  504  503  0.00000000000E+00  0.00000000000E+00  0.17962791048E+03  0.17962791048E+03  0.00000000000E+00 0. -1.
         21   -1    0    0  503  504 -0.00000000000E+00 -0.00000000000E+00 -0.99400880086E+02  0.99400880086E+02  0.00000000000E+00 0. -1.
         25    2    1    2    0    0  0.38858715252E+02 -0.26145719066E+02  0.46432280186E+02  0.14132922367E+03  0.12499757775E+03 0.  0.
         25    2    1    2    0    0 -0.38858715252E+02  0.26145719066E+02  0.33794750212E+02  0.13769956690E+03  0.12500194881E+03 0.  0.
          5    1    3    3  501    0  0.30161236049E+01  0.33257995025E+02  0.61534688175E+02  0.70169787540E+02  0.47000000000E+01 0. -1.
         -5    1    3    3    0  501  0.35842591647E+02 -0.59403714091E+02 -0.15102407989E+02  0.71159436134E+02  0.47000000000E+01 0. -1.
          5    1    4    4  502    0 -0.45221971520E+02 -0.41417072888E+02 -0.53325112050E+00  0.61504268076E+02  0.47000000000E+01 0.  1.
         -5    1    4    4    0  502  0.63632562677E+01  0.67562791955E+02  0.34328001333E+02  0.76195298822E+02  0.47000000000E+01 0.  1.
<mgrwt>
<rscale>  0 0.26724650E+03</rscale>
<asrwt>0</asrwt>
<pdfrwt beam="1">  1       21 0.27635063E-01 0.26724650E+03</pdfrwt>
<pdfrwt beam="2">  1       21 0.15292443E-01 0.26724650E+03</pdfrwt>
<totfact> 0.46633210E+05</totfact>
</mgrwt>
</event>
<event>
 8    1  0.9705063E-006  0.3295527E+03  0.7546771E-02  0.1071335E+00
         21   -1    0    0  504  503  0.00000000000E+00  0.00000000000E+00  0.70658357762E+02  0.70658357762E+02  0.00000000000E+00 0. -1.
         21   -1    0    0  503  504 -0.00000000000E+00 -0.00000000000E+00 -0.38426102245E+03  0.38426102245E+03  0.00000000000E+00 0. -1.
         25    2    1    2    0    0  0.83112731672E+02 -0.55905180234E+02 -0.21018357528E+03  0.26425958271E+03  0.12499150528E+03 0.  0.
         25    2    1    2    0    0 -0.83112731672E+02  0.55905180234E+02 -0.10341908940E+03  0.19065979750E+03  0.12499013956E+03 0.  0.
          5    1    3    3  501    0 -0.28416351645E+02 -0.25827167902E+02 -0.25362567322E+02  0.46258852816E+02  0.47000000000E+01 0.  1.
         -5    1    3    3    0  501  0.11152908332E+03 -0.30078012331E+02 -0.18482100796E+03  0.21800072990E+03  0.47000000000E+01 0.  1.
          5    1    4    4  502    0 -0.47525881001E+02  0.77136132458E+02 -0.11584612511E+03  0.14714315138E+03  0.47000000000E+01 0. -1.
         -5    1    4    4    0  502 -0.35586850671E+02 -0.21230952224E+02  0.12427035705E+02  0.43516646119E+02  0.47000000000E+01 0. -1.
<mgrwt>
<rscale>  0 0.32955274E+03</rscale>
<asrwt>0</asrwt>
<pdfrwt beam="1">  1       21 0.10870517E-01 0.32955274E+03</pdfrwt>
<pdfrwt beam="2">  1       21 0.59117080E-01 0.32955274E+03</pdfrwt>
<totfact> 0.18037689E+05</totfact>
</mgrwt>
</event>
<event>
 8    1  0.9705063E-006  0.2790343E+03  0.7546771E-02  0.1096218E+00
         21   -1    0    0  504  503  0.00000000000E+00  0.00000000000E+00  0.19440100431E+03  0.19440100431E+03  0.00000000000E+00 0. -1.
         21   -1    0    0  503  504 -0.00000000000E+00 -0.00000000000E+00 -0.10012826416E+03  0.10012826416E+03  0.00000000000E+00 0. -1.
         25    2    1    2    0    0 -0.17108292364E+02 -0.40557857712E+02  0.10994677961E+01  0.13252767229E+03  0.12499896641E+03 0.  0.
         25    2    1    2    0    0  0.17108292364E+02  0.40557857712E+02  0.93173272355E+02  0.16200159617E+03  0.12500249994E+03 0.  0.
          5    1    3    3  501    0 -0.12395611946E+02  0.17437207280E+01  0.59009163183E+02  0.60505066705E+02  0.47000000000E+01 0.  1.
         -5    1    3    3    0  501 -0.47126804179E+01 -0.42301578440E+02 -0.57909695387E+02  0.72022605583E+02  0.47000000000E+01 0.  1.
          5    1    4    4  502    0  0.60244332861E+02  0.58365571516E+02  0.47384385493E+02  0.96453561722E+02  0.47000000000E+01 0. -1.
         -5    1    4    4    0  502 -0.43136040496E+02 -0.17807713804E+02  0.45788886862E+02  0.65548034453E+02  0.47000000000E+01 0. -1.
<mgrwt>
<rscale>  0 0.27903430E+03</rscale>
<asrwt>0</asrwt>
<pdfrwt beam="1">  1       21 0.29907847E-01 0.27903430E+03</pdfrwt>
<pdfrwt beam="2">  1       21 0.15404348E-01 0.27903430E+03</pdfrwt>
<totfact> 0.39339609E+05</totfact>
</mgrwt>
</event>
<event>
 8    1  0.9705063E-006  0.3468439E+03  0.7546771E-02  0.1063918E+00
         21   -1    0    0  504  503  0.00000000000E+00  0.00000000000E+00  0.16700484404E+03  0.16700484404E+03  0.00000000000E+00 0. -1.
         21   -1    0    0  503  504 -0.00000000000E+00 -0.00000000000E+00 -0.18008558612E+03  0.18008558612E+03  0.00000000000E+00 0. -1.
         25    2    1    2    0    0  0.57879129899E+02  0.64774004938E+02  0.76617269853E+02  0.17040754321E+03  0.12499143711E+03 0.  0.
         25    2    1    2    0    0 -0.57879129899E+02 -0.64774004938E+02 -0.89698011925E+02  0.17668288695E+03  0.12500177520E+03 0.  0.
          5    1    3    3  501    0  0.80428235325E+02  0.82268319039E+02  0.36193251474E+02  0.12070136208E+03  0.47000000000E+01 0.  1.
         -5    1    3    3    0  501 -0.22549105426E+02 -0.17494314101E+02  0.40424018378E+02  0.49706181137E+02  0.47000000000E+01 0.  1.
          5    1    4    4  502    0 -0.84237313923E+02 -0.18398266702E+02 -0.87729134951E+02  0.12309716647E+03  0.47000000000E+01 0. -1.
         -5    1    4    4    0  502  0.26358184024E+02 -0.46375738235E+02 -0.19688769734E+01  0.53585720472E+02  0.47000000000E+01 0. -1.
<mgrwt>
<rscale>  0 0.34684386E+03</rscale>
<asrwt>0</asrwt>
<pdfrwt beam="1">  1       21 0.25693053E-01 0.34684386E+03</pdfrwt>
<pdfrwt beam="2">  1       21 0.27705475E-01 0.34684386E+03</pdfrwt>
<totfact> 0.17167621E+05</totfact>
</mgrwt>
</event>
<event>
 8    1  0.9705063E-006  0.2584758E+03  0.7546771E-02  0.1108062E+00
         21   -1    0    0  504  503  0.00000000000E+00  0.00000000000E+00  0.39188111213E+02  0.39188111213E+02  0.00000000000E+00 0.  1.
         21   -1    0    0  503  504 -0.00000000000E+00 -0.00000000000E+00 -0.42621189264E+03  0.42621189264E+03  0.00000000000E+00 0.  1.
         25    2    1    2    0    0  0.10531076777E+02 -0.13311659495E+02 -0.24404208126E+03  0.27471875472E+03  0.12500301162E+03 0.  0.
         25    2    1    2    0    0 -0.10531076777E+02  0.13311659495E+02 -0.14298170017E+03  0.19068124914E+03  0.12500987294E+03 0.  0.
          5    1    3    3  501    0  0.63080692185E+02 -0.31070771804E+02 -0.13783123539E+03  0.15480344323E+03  0.47000000000E+01 0. -1.
         -5    1    3    3    0  501 -0.52549615407E+02  0.17759112309E+02 -0.10621084587E+03  0.11991531149E+03  0.47000000000E+01 0. -1.
          5    1    4    4  502    0 -0.10919056440E+02 -0.46043894370E+02 -0.15560930264E+02  0.50034973299E+02  0.47000000000E+01 0.  1.
         -5    1    4    4    0  502  0.38797966259E+00  0.59355553866E+02 -0.12742076991E+03  0.14064627584E+03  0.47000000000E+01 0.  1.
<mgrwt>
<rscale>  0 0.25847583E+03</rscale>
<asrwt>0</asrwt>
<pdfrwt beam="1">  1       21 0.60289399E-02 0.25847583E+03</pdfrwt>
<pdfrwt beam="2">  1       21 0.65571063E-01 0.25847583E+03</pdfrwt>
<totfact> 0.41194046E+05</totfact>
</mgrwt>
</event>
<event>
 8    1  0.9705063E-006  0.2636701E+03  0.7546771E-02  0.1104958E+00
         21   -1    0    0  504  503  0.00000000000E+00  0.00000000000E+00  0.18101191119E+03  0.18101191119E+03  0.00000000000E+00 0. -1.
         21   -1    0    0  503  504 -0.00000000000E+00 -0.00000000000E+00 -0.96018409079E+02  0.96018409079E+02  0.00000000000E+00 0. -1.
         25    2    1    2    0    0  0.17628677235E+02 -0.19166071941E+02  0.80054996670E+01  0.12793494369E+03  0.12500061287E+03 0.  0.
         25    2    1    2    0    0 -0.17628677235E+02  0.19166071941E+02  0.76988002447E+02  0.14909537658E+03  0.12499668085E+03 0.  0.
          5    1    3    3  501    0 -0.57251941321E+01  0.51757832509E+02 -0.27016507089E+01  0.52354942368E+02  0.47000000000E+01 0. -1.
         -5    1    3    3    0  501  0.23353871367E+02 -0.70923904450E+02  0.10707150376E+02  0.75580001319E+02  0.47000000000E+01 0. -1.
          5    1    4    4  502    0  0.27636991244E+02  0.59231224795E+02  0.28501918225E+02  0.71460412945E+02  0.47000000000E+01 0.  1.
         -5    1    4    4    0  502 -0.45265668478E+02 -0.40065152854E+02  0.48486084222E+02  0.77634963639E+02  0.47000000000E+01 0.  1.
<mgrwt>
<rscale>  0 0.26367006E+03</rscale>
<asrwt>0</asrwt>
<pdfrwt beam="1">  1       21 0.27847986E-01 0.26367006E+03</pdfrwt>
<pdfrwt beam="2">  1       21 0.14772063E-01 0.26367006E+03</pdfrwt>
<totfact> 0.48984823E+05</totfact>
</mgrwt>
</event>
<event>
 8    1  0.9705063E-006  0.2596344E+03  0.7546771E-02  0.1107363E+00
         21   -1    0    0  504  503  0.00000000000E+00  0.00000000000E+00  0.19113314686E+03  0.19113314686E+03  0.00000000000E+00 0. -1.
         21   -1    0    0  503  504 -0.00000000000E+00 -0.00000000000E+00 -0.88171564924E+02  0.88171564924E+02  0.00000000000E+00 0. -1.
         25    2    1    2    0    0 -0.27331007560E+02 -0.20347066919E+01  0.28024308381E+02  0.13100961661E+03  0.12500813485E+03 0.  0.
         25    2    1    2    0    0  0.27331007560E+02  0.20347066919E+01  0.74937273558E+02  0.14829509518E+03  0.12499886511E+03 0.  0.
          5    1    3    3  501    0 -0.32836471288E+02  0.53028267490E+02 -0.10493933553E+02  0.63422737571E+02  0.47000000000E+01 0. -1.
         -5    1    3    3    0  501  0.55054637277E+01 -0.55062974182E+02  0.38518241934E+02  0.67586879039E+02  0.47000000000E+01 0. -1.
          5    1    4    4  502    0  0.57450364069E+02 -0.35540879152E+02  0.11782910570E+02  0.68735910586E+02  0.47000000000E+01 0.  1.
         -5    1    4    4    0  502 -0.30119356509E+02  0.37575585844E+02  0.63154362988E+02  0.79559184589E+02  0.47000000000E+01 0.  1.
<mgrwt>
<rscale>  0 0.25963443E+03</rscale>
<asrwt>0</asrwt>
<pdfrwt beam="1">  1       21 0.29405099E-01 0.25963443E+03</pdfrwt>
<pdfrwt beam="2">  1       21 0.13564856E-01 0.25963443E+03</pdfrwt>
<totfact> 0.51499938E+05</totfact>
</mgrwt>
</event>
<event>
 8    1  0.9705063E-006  0.2998477E+03  0.7546771E-02  0.1085317E+00
         21   -1    0    0  504  503  0.00000000000E+00  0.00000000000E+00  0.83285708978E+02  0.83285708978E+02  0.00000000000E+00 0.  1.
         21   -1    0    0  503  504 -0.00000000000E+00 -0.00000000000E+00 -0.26988010983E+03  0.26988010983E+03  0.00000000000E+00 0.  1.
         25    2    1    2    0    0  0.24451096630E+02 -0.52221719424E+02 -0.16325246792E+03  0.21354224938E+03  0.12499583945E+03 0.  0.
         25    2    1    2    0    0 -0.24451096630E+02  0.52221719424E+02 -0.23341932930E+02  0.13962356943E+03  0.12499972481E+03 0.  0.
          5    1    3    3  501    0  0.41245333265E+02  0.31434624470E+02 -0.57362771544E+02  0.77471870320E+02  0.47000000000E+01 0.  1.
         -5    1    3    3    0  501 -0.16794236634E+02 -0.83656343893E+02 -0.10588969638E+03  0.13607037906E+03  0.47000000000E+01 0.  1.
          5    1    4    4  502    0  0.43987828779E+02 -0.56368751196E+01 -0.22334544763E+02  0.49876099803E+02  0.47000000000E+01 0. -1.
         -5    1    4    4    0  502 -0.68438925409E+02  0.57858594543E+02 -0.10073881674E+01  0.89747469628E+02  0.47000000000E+01 0. -1.
<mgrwt>
<rscale>  0 0.29984767E+03</rscale>
<asrwt>0</asrwt>
<pdfrwt beam="1">  1       21 0.12813186E-01 0.29984767E+03</pdfrwt>
<pdfrwt beam="2">  1       21 0.41520017E-01 0.29984767E+03</pdfrwt>
<totfact> 0.28406233E+05</totfact>
</mgrwt>
</event>
<event>
 8    1  0.9705063E-006  0.2643976E+03  0.7546771E-02  0.1104529E+00
         21   -1    0    0  504  503  0.00000000000E+00  0.00000000000E+00  0.37331083756E+03  0.37331083756E+03  0.00000000000E+00 0.  1.
         21   -1    0    0  503  504 -0.00000000000E+00 -0.00000000000E+00 -0.46814950424E+02  0.46814950424E+02  0.00000000000E+00 0.  1.
         25    2    1    2    0    0  0.13861448770E+02 -0.40316731067E+02  0.17245793768E+03  0.21721993062E+03  0.12500071770E+03 0.  0.
         25    2    1    2    0    0 -0.13861448770E+02  0.40316731067E+02  0.15403794946E+03  0.20290585737E+03  0.12500207403E+03 0.  0.
          5    1    3    3  501    0  0.25380962743E+02  0.17314199308E+02 -0.38462571081E+01  0.31318659952E+02  0.47000000000E+01 0.  1.
         -5    1    3    3    0  501 -0.11519513973E+02 -0.57630930376E+02  0.17630419478E+03  0.18590127067E+03  0.47000000000E+01 0.  1.
          5    1    4    4  502    0  0.77279119935E+01  0.45929180650E+02  0.16918111772E+03  0.17553789008E+03  0.47000000000E+01 0.  1.
         -5    1    4    4    0  502 -0.21589360764E+02 -0.56124495822E+01 -0.15143168259E+02  0.27367967287E+02  0.47000000000E+01 0.  1.
<mgrwt>
<rscale>  0 0.26439764E+03</rscale>
<asrwt>0</asrwt>
<pdfrwt beam="1">  1       21 0.57432435E-01 0.26439764E+03</pdfrwt>
<pdfrwt beam="2">  1       21 0.72023003E-02 0.26439764E+03</pdfrwt>
<totfact> 0.40319328E+05</totfact>
</mgrwt>
</event>
<event>
 8    1  0.9705063E-006  0.2585237E+03  0.7546771E-02  0.1108033E+00
         21   -1    0    0  504  503  0.00000000000E+00  0.00000000000E+00  0.10618442367E+03  0.10618442367E+03  0.00000000000E+00 0.  1.
         21   -1    0    0  503  504 -0.00000000000E+00 -0.00000000000E+00 -0.15735483016E+03  0.15735483016E+03  0.00000000000E+00 0.  1.
         25    2    1    2    0    0 -0.28807396943E+02  0.96217446547E+00 -0.90878604121E+01  0.12860136260E+03  0.12499971743E+03 0.  0.
         25    2    1    2    0    0  0.28807396943E+02 -0.96217446547E+00 -0.42082546073E+02  0.13493789123E+03  0.12492598571E+03 0.  0.
          5    1    3    3  501    0 -0.38524790131E+02 -0.53954441258E+02 -0.24029912961E+02  0.70673671922E+02  0.47000000000E+01 0. -1.
         -5    1    3    3    0  501  0.97173931875E+01  0.54916615723E+02  0.14942052549E+02  0.57927690677E+02  0.47000000000E+01 0. -1.
          5    1    4    4  502    0  0.35201622162E+02 -0.59319083353E+02 -0.19192720966E+02  0.71752061927E+02  0.47000000000E+01 0.  1.
         -5    1    4    4    0  502 -0.63942252190E+01  0.58356908887E+02 -0.22889825107E+02  0.63185829301E+02  0.47000000000E+01 0.  1.
<mgrwt>
<rscale>  0 0.25852375E+03</rscale>
<asrwt>0</asrwt>
<pdfrwt beam="1">  1       21 0.16336065E-01 0.25852375E+03</pdfrwt>
<pdfrwt beam="2">  1       21 0.24208435E-01 0.25852375E+03</pdfrwt>
<totfact> 0.53397076E+05</totfact>
</mgrwt>
</event>
<event>
 8    1  0.9705063E-006  0.3746010E+03  0.7546771E-02  0.1052948E+00
         21   -1    0    0  504  503  0.00000000000E+00  0.00000000000E+00  0.33836779072E+02  0.33836779072E+02  0.00000000000E+00 0. -1.
         21   -1    0    0  503  504 -0.00000000000E+00 -0.00000000000E+00 -0.10367850927E+04  0.10367850927E+04  0.00000000000E+00 0. -1.
         25    2    1    2    0    0 -0.21592552875E+02  0.98385522368E+02 -0.22570039405E+03  0.27696869811E+03  0.12500017003E+03 0.  0.
         25    2    1    2    0    0  0.21592552875E+02 -0.98385522368E+02 -0.77724791954E+03  0.79365317362E+03  0.12500032888E+03 0.  0.
          5    1    3    3  501    0 -0.49943016072E+02  0.10394748871E+03 -0.11681247868E+03  0.16421519552E+03  0.47000000000E+01 0.  1.
         -5    1    3    3    0  501  0.28350463197E+02 -0.55619663453E+01 -0.10888791537E+03  0.11275350259E+03  0.47000000000E+01 0.  1.
          5    1    4    4  502    0 -0.13221062664E+02 -0.10136897239E+03 -0.71353526307E+03  0.72083640772E+03  0.47000000000E+01 0. -1.
         -5    1    4    4    0  502  0.34813615539E+02  0.29834500192E+01 -0.63712656472E+02  0.72816765896E+02  0.47000000000E+01 0. -1.
<mgrwt>
<rscale>  0 0.37460095E+03</rscale>
<asrwt>0</asrwt>
<pdfrwt beam="1">  1       21 0.52056584E-02 0.37460095E+03</pdfrwt>
<pdfrwt beam="2">  1       21 0.15950540E+00 0.37460095E+03</pdfrwt>
<totfact> 0.59152338E+04</totfact>
</mgrwt>
</event>
<event>
 8    1  0.9705063E-006  0.4111405E+03  0.7546771E-02  0.1039989E+00
         21   -1    0    0  504  503  0.00000000000E+00  0.00000000000E+00  0.10096871315E+03  0.10096871315E+03  0.00000000000E+00 0. -1.
         21   -1    0    0  503  504 -0.00000000000E+00 -0.00000000000E+00 -0.41853689968E+03  0.41853689968E+03  0.00000000000E+00 0. -1.
         25    2    1    2    0    0 -0.54884781449E+02 -0.12302048002E+03 -0.27519909310E+03  0.33091387658E+03  0.12499230030E+03 0.  0.
         25    2    1    2    0    0  0.54884781449E+02  0.12302048002E+03 -0.42369093431E+02  0.18859173626E+03  0.12500130066E+03 0.  0.
          5    1    3    3  501    0  0.10601377841E+02 -0.11189929209E+03 -0.20701265646E+03  0.23560596494E+03  0.47000000000E+01 0. -1.
         -5    1    3    3    0  501 -0.65486159290E+02 -0.11121187929E+02 -0.68186436638E+02  0.95307911639E+02  0.47000000000E+01 0. -1.
          5    1    4    4  502    0  0.65537283280E+02  0.64219776106E+02 -0.76550525453E+02  0.11958841119E+03  0.47000000000E+01 0.  1.
         -5    1    4    4    0  502 -0.10652501830E+02  0.58800703910E+02  0.34181432022E+02  0.69003325070E+02  0.47000000000E+01 0.  1.
<mgrwt>
<rscale>  0 0.41114052E+03</rscale>
<asrwt>0</asrwt>
<pdfrwt beam="1">  1       21 0.15533648E-01 0.41114052E+03</pdfrwt>
<pdfrwt beam="2">  1       21 0.64390293E-01 0.41114052E+03</pdfrwt>
<totfact> 0.76546784E+04</totfact>
</mgrwt>
</event>
<event>
 8    1  0.9705063E-006  0.2645192E+03  0.7546771E-02  0.1104458E+00
         21   -1    0    0  504  503  0.00000000000E+00  0.00000000000E+00  0.16344541917E+03  0.16344541917E+03  0.00000000000E+00 0. -1.
         21   -1    0    0  503  504 -0.00000000000E+00 -0.00000000000E+00 -0.10702412489E+03  0.10702412489E+03  0.00000000000E+00 0. -1.
         25    2    1    2    0    0  0.35994724905E+02 -0.61419230457E+01  0.45802237426E+01  0.13030741671E+03  0.12500280381E+03 0.  0.
         25    2    1    2    0    0 -0.35994724905E+02  0.61419230457E+01  0.51841070540E+02  0.14016212735E+03  0.12499832763E+03 0.  0.
          5    1    3    3  501    0  0.46515644908E+02  0.50885451619E+02  0.16206360106E+02  0.70977253508E+02  0.47000000000E+01 0.  1.
         -5    1    3    3    0  501 -0.10520920004E+02 -0.57027374665E+02 -0.11626136363E+02  0.59330163202E+02  0.47000000000E+01 0.  1.
          5    1    4    4  502    0 -0.56629053421E+02 -0.44917083813E+02  0.42868177156E+02  0.84167480195E+02  0.47000000000E+01 0.  1.
         -5    1    4    4    0  502  0.20634328517E+02  0.51059006858E+02  0.89728933842E+01  0.55994647158E+02  0.47000000000E+01 0.  1.
<mgrwt>
<rscale>  0 0.26451921E+03</rscale>
<asrwt>0</asrwt>
<pdfrwt beam="1">  1       21 0.25145449E-01 0.26451921E+03</pdfrwt>
<pdfrwt beam="2">  1       21 0.16465250E-01 0.26451921E+03</pdfrwt>
<totfact> 0.48874815E+05</totfact>
</mgrwt>
</event>
<event>
 8    1  0.9705063E-006  0.3587675E+03  0.7546771E-02  0.1059073E+00
         21   -1    0    0  504  503  0.00000000000E+00  0.00000000000E+00  0.17814204956E+03  0.17814204956E+03  0.00000000000E+00 0. -1.
         21   -1    0    0  503  504 -0.00000000000E+00 -0.00000000000E+00 -0.18063410100E+03  0.18063410100E+03  0.00000000000E+00 0. -1.
         25    2    1    2    0    0  0.54246601130E+02 -0.10819739633E+03  0.42392903973E+02  0.17908535726E+03  0.12500014628E+03 0.  0.
         25    2    1    2    0    0 -0.54246601130E+02  0.10819739633E+03 -0.44884955415E+02  0.17969079330E+03  0.12499900666E+03 0.  0.
          5    1    3    3  501    0  0.37890721840E+02  0.21072459629E+02  0.10694848054E+02  0.44902395607E+02  0.47000000000E+01 0.  1.
         -5    1    3    3    0  501  0.16355879290E+02 -0.12926985596E+03  0.31698055919E+02  0.13418296165E+03  0.47000000000E+01 0.  1.
          5    1    4    4  502    0  0.11081657191E+02  0.79915684201E+02 -0.67022768204E+02  0.10499267196E+03  0.47000000000E+01 0.  1.
         -5    1    4    4    0  502 -0.65328258322E+02  0.28281712132E+02  0.22137812789E+02  0.74698121339E+02  0.47000000000E+01 0.  1.
<mgrwt>
<rscale>  0 0.35876750E+03</rscale>
<asrwt>0</asrwt>
<pdfrwt beam="1">  1       21 0.27406469E-01 0.35876750E+03</pdfrwt>
<pdfrwt beam="2">  1       21 0.27789862E-01 0.35876750E+03</pdfrwt>
<totfact> 0.15012042E+05</totfact>
</mgrwt>
</event>
<event>
 8    1  0.9705063E-006  0.3075820E+03  0.7546771E-02  0.1081511E+00
         21   -1    0    0  504  503  0.00000000000E+00  0.00000000000E+00  0.19605203803E+04  0.19605203803E+04  0.00000000000E+00 0. -1.
         21   -1    0    0  503  504 -0.00000000000E+00 -0.00000000000E+00 -0.12063975850E+02  0.12063975850E+02  0.00000000000E+00 0. -1.
         25    2    1    2    0    0 -0.34874847412E+02  0.66235413444E+02  0.12899162829E+04  0.12981190418E+04  0.12500257896E+03 0.  0.
         25    2    1    2    0    0  0.34874847412E+02 -0.66235413444E+02  0.65854012148E+03  0.67446531431E+03  0.12499993452E+03 0.  0.
          5    1    3    3  501    0 -0.49659955165E+02 -0.76619498430E+01  0.22785472538E+03  0.23337669656E+03  0.47000000000E+01 0.  1.
         -5    1    3    3    0  501  0.14785107753E+02  0.73897363287E+02  0.10620615576E+04  0.10647423452E+04  0.47000000000E+01 0.  1.
          5    1    4    4  502    0  0.37355221153E+02 -0.99229766269E+02  0.40266779929E+03  0.41641974695E+03  0.47000000000E+01 0. -1.
         -5    1    4    4    0  502 -0.24803737411E+01  0.32994352825E+02  0.25587232219E+03  0.25804556736E+03  0.47000000000E+01 0. -1.
<mgrwt>
<rscale>  0 0.30758199E+03</rscale>
<asrwt>0</asrwt>
<pdfrwt beam="1">  1       21 0.30161827E+00 0.30758199E+03</pdfrwt>
<pdfrwt beam="2">  1       21 0.18559978E-02 0.30758199E+03</pdfrwt>
<totfact> 0.42716653E+04</totfact>
</mgrwt>
</event>
<event>
 8    1  0.9705063E-006  0.2883225E+03  0.7546771E-02  0.1091228E+00
         21   -1    0    0  504  503  0.00000000000E+00  0.00000000000E+00  0.17511270759E+03  0.17511270759E+03  0.00000000000E+00 0.  1.
         21   -1    0    0  503  504 -0.00000000000E+00 -0.00000000000E+00 -0.11868049694E+03  0.11868049694E+03  0.00000000000E+00 0.  1.
         25    2    1    2    0    0  0.29331201344E+02 -0.58764074454E+02  0.57791081345E+02  0.15257814570E+03  0.12500698238E+03 0.  0.
         25    2    1    2    0    0 -0.29331201344E+02  0.58764074454E+02 -0.13588706929E+01  0.14121505883E+03  0.12500524186E+03 0.  0.
          5    1    3    3  501    0  0.43924219703E+02 -0.89543510611E+02  0.20644554180E+02  0.10195913390E+03  0.47000000000E+01 0. -1.
         -5    1    3    3    0  501 -0.14593018359E+02  0.30779436157E+02  0.37146527164E+02  0.50619011797E+02  0.47000000000E+01 0. -1.
          5    1    4    4  502    0 -0.43506114260E+01  0.64515350902E+02 -0.52758093456E+02  0.83586271283E+02  0.47000000000E+01 0.  1.
         -5    1    4    4    0  502 -0.24980589918E+02 -0.57512764479E+01  0.51399222764E+02  0.57628787547E+02  0.47000000000E+01 0.  1.
<mgrwt>
<rscale>  0 0.28832248E+03</rscale>
<asrwt>0</asrwt>
<pdfrwt beam="1">  1       21 0.26940417E-01 0.28832248E+03</pdfrwt>
<pdfrwt beam="2">  1       21 0.18258538E-01 0.28832248E+03</pdfrwt>
<totfact> 0.35147774E+05</totfact>
</mgrwt>
</event>
<event>
 8    1  0.9705063E-006  0.2983281E+03  0.7546771E-02  0.1086079E+00
         21   -1    0    0  504  503  0.00000000000E+00  0.00000000000E+00  0.18776134707E+02  0.18776134707E+02  0.00000000000E+00 0. -1.
         21   -1    0    0  503  504 -0.00000000000E+00 -0.00000000000E+00 -0.11850104430E+04  0.11850104430E+04  0.00000000000E+00 0. -1.
         25    2    1    2    0    0  0.35080729713E+02 -0.60428346928E+02 -0.41428047836E+03  0.43831806717E+03  0.12494867166E+03 0.  0.
         25    2    1    2    0    0 -0.35080729713E+02  0.60428346928E+02 -0.75195382996E+03  0.76546851056E+03  0.12500094223E+03 0.  0.
          5    1    3    3  501    0 -0.26024642667E+02 -0.51502281696E+02 -0.82382949740E+02  0.10069164540E+03  0.47000000000E+01 0.  1.
         -5    1    3    3    0  501  0.61105372380E+02 -0.89260652319E+01 -0.33189752862E+03  0.33762642177E+03  0.47000000000E+01 0.  1.
          5    1    4    4  502    0  0.43977461892E+02  0.77197803556E+01 -0.32204209361E+03  0.32515659646E+03  0.47000000000E+01 0.  1.
         -5    1    4    4    0  502 -0.79058191605E+02  0.52708566572E+02 -0.42991173634E+03  0.44031191410E+03  0.47000000000E+01 0.  1.
<mgrwt>
<rscale>  0 0.29832811E+03</rscale>
<asrwt>0</asrwt>
<pdfrwt beam="1">  1       21 0.28886355E-02 0.29832811E+03</pdfrwt>
<pdfrwt beam="2">  1       21 0.18230934E+00 0.29832811E+03</pdfrwt>
<totfact> 0.11281663E+05</totfact>
</mgrwt>
</event>
<event>
 8    1  0.9705063E-006  0.3846713E+03  0.7546771E-02  0.1049221E+00
         21   -1    0    0  504  503  0.00000000000E+00  0.00000000000E+00  0.14225338526E+03  0.14225338526E+03  0.00000000000E+00 0. -1.
         21   -1    0    0  503  504 -0.00000000000E+00 -0.00000000000E+00 -0.26005000825E+03  0.26005000825E+03  0.00000000000E+00 0. -1.
         25    2    1    2    0    0  0.12289217912E+03  0.70918250237E+02 -0.22136196930E+02  0.19038887676E+03  0.12500410904E+03 0.  0.
         25    2    1    2    0    0 -0.12289217912E+03 -0.70918250237E+02 -0.95660426065E+02  0.21191451675E+03  0.12499983755E+03 0.  0.
          5    1    3    3  501    0 -0.25447789865E+02  0.98477961672E+01 -0.10013093428E+02  0.29443524557E+02  0.47000000000E+01 0.  1.
         -5    1    3    3    0  501  0.14833996898E+03  0.61070454070E+02 -0.12123103501E+02  0.16094535221E+03  0.47000000000E+01 0.  1.
          5    1    4    4  502    0  0.14308047960E+02  0.93313575680E+01  0.10615877209E+02  0.20653845148E+02  0.47000000000E+01 0. -1.
         -5    1    4    4    0  502 -0.13720022708E+03 -0.80249607805E+02 -0.10627630327E+03  0.19126067160E+03  0.47000000000E+01 0. -1.
<mgrwt>
<rscale>  0 0.38467126E+03</rscale>
<asrwt>0</asrwt>
<pdfrwt beam="1">  1       21 0.21885136E-01 0.38467126E+03</pdfrwt>
<pdfrwt beam="2">  1       21 0.40007693E-01 0.38467126E+03</pdfrwt>
<totfact> 0.11113958E+05</totfact>
</mgrwt>
</event>
<event>
 8    1  0.9705063E-006  0.2805858E+03  0.7546771E-02  0.1095369E+00
         21   -1    0    0  504  503  0.00000000000E+00  0.00000000000E+00  0.13844857105E+03  0.13844857105E+03  0.00000000000E+00 0. -1.
         21   -1    0    0  503  504 -0.00000000000E+00 -0.00000000000E+00 -0.14216184455E+03  0.14216184455E+03  0.00000000000E+00 0. -1.
         25    2    1    2    0    0 -0.43790787226E+00  0.52721260033E+01  0.61633738244E+02  0.13945811621E+03  0.12498744501E+03 0.  0.
         25    2    1    2    0    0  0.43790787226E+00 -0.52721260033E+01 -0.65347011744E+02  0.14115229940E+03  0.12500301038E+03 0.  0.
          5    1    3    3  501    0 -0.30118583181E+02  0.23727170642E+02 -0.24937966803E+02  0.45979341750E+02  0.47000000000E+01 0.  1.
         -5    1    3    3    0  501  0.29680675309E+02 -0.18455044638E+02  0.86571705046E+02  0.93478774457E+02  0.47000000000E+01 0.  1.
          5    1    4    4  502    0  0.45014138715E+02 -0.15376081201E+01 -0.81603027766E+02  0.93326207807E+02  0.47000000000E+01 0.  1.
         -5    1    4    4    0  502 -0.44576230842E+02 -0.37345178832E+01  0.16256016022E+02  0.47826091591E+02  0.47000000000E+01 0.  1.
<mgrwt>
<rscale>  0 0.28058585E+03</rscale>
<asrwt>0</asrwt>
<pdfrwt beam="1">  1       21 0.21299780E-01 0.28058585E+03</pdfrwt>
<pdfrwt beam="2">  1       21 0.21871053E-01 0.28058585E+03</pdfrwt>
<totfact> 0.39309584E+05</totfact>
</mgrwt>
</event>
<event>
 8    1  0.9705063E-006  0.3662441E+03  0.7546771E-02  0.1056138E+00
         21   -1    0    0  504  503  0.00000000000E+00  0.00000000000E+00  0.10310132636E+03  0.10310132636E+03  0.00000000000E+00 0. -1.
         21   -1    0    0  503  504 -0.00000000000E+00 -0.00000000000E+00 -0.32524987258E+03  0.32524987258E+03  0.00000000000E+00 0. -1.
         25    2    1    2    0    0 -0.11800417735E+03 -0.59154909026E+02 -0.85337872135E+02  0.20083013652E+03  0.12500360866E+03 0.  0.
         25    2    1    2    0    0  0.11800417735E+03  0.59154909026E+02 -0.13681067408E+03  0.22752106243E+03  0.12499753667E+03 0.  0.
          5    1    3    3  501    0  0.19269029068E+02  0.67875501440E+01  0.76704897147E+01  0.22322471428E+02  0.47000000000E+01 0. -1.
         -5    1    3    3    0  501 -0.13727320641E+03 -0.65942459170E+02 -0.93008361850E+02  0.17850766509E+03  0.47000000000E+01 0. -1.
          5    1    4    4  502    0 -0.21290838949E+02  0.21291355152E+02 -0.29778646882E+01  0.30619916810E+02  0.47000000000E+01 0. -1.
         -5    1    4    4    0  502  0.13929501630E+03  0.37863553874E+02 -0.13383280939E+03  0.19690114562E+03  0.47000000000E+01 0. -1.
<mgrwt>
<rscale>  0 0.36624414E+03</rscale>
<asrwt>0</asrwt>
<pdfrwt beam="1">  1       21 0.15861743E-01 0.36624414E+03</pdfrwt>
<pdfrwt beam="2">  1       21 0.50038441E-01 0.36624414E+03</pdfrwt>
<totfact> 0.12832485E+05</totfact>
</mgrwt>
</event>
<event>
 8    1  0.9705063E-006  0.3975864E+03  0.7546771E-02  0.1044619E+00
         21   -1    0    0  504  503  0.00000000000E+00  0.00000000000E+00  0.29681847382E+03  0.29681847382E+03  0.00000000000E+00 0.  1.
         21   -1    0    0  503  504 -0.00000000000E+00 -0.00000000000E+00 -0.13314109650E+03  0.13314109650E+03  0.00000000000E+00 0.  1.
         25    2    1    2    0    0  0.12103054878E+03  0.42070418629E+02  0.17534083959E+03  0.25057910012E+03  0.12500864581E+03 0.  0.
         25    2    1    2    0    0 -0.12103054878E+03 -0.42070418629E+02 -0.11663462272E+02  0.17938047021E+03  0.12499201126E+03 0.  0.
          5    1    3    3  501    0 -0.20161231552E+02  0.30406637700E+02  0.43804468743E+02  0.57201052051E+02  0.47000000000E+01 0.  1.
         -5    1    3    3    0  501  0.14119178033E+03  0.11663780929E+02  0.13153637085E+03  0.19337804806E+03  0.47000000000E+01 0.  1.
          5    1    4    4  502    0  0.26389488197E+01 -0.44718767765E+02 -0.30176528122E+02  0.54216649572E+02  0.47000000000E+01 0. -1.
         -5    1    4    4    0  502 -0.12366949759E+03  0.26483491358E+01  0.18513065850E+02  0.12516382063E+03  0.47000000000E+01 0. -1.
<mgrwt>
<rscale>  0 0.39758640E+03</rscale>
<asrwt>0</asrwt>
<pdfrwt beam="1">  1       21 0.45664380E-01 0.39758640E+03</pdfrwt>
<pdfrwt beam="2">  1       21 0.20483246E-01 0.39758640E+03</pdfrwt>
<totfact> 0.95602365E+04</totfact>
</mgrwt>
</event>
<event>
 8    1  0.9705063E-006  0.3013481E+03  0.7546771E-02  0.1084569E+00
         21   -1    0    0  504  503  0.00000000000E+00  0.00000000000E+00  0.20400932351E+03  0.20400932351E+03  0.00000000000E+00 0. -1.
         21   -1    0    0  503  504 -0.00000000000E+00 -0.00000000000E+00 -0.11128251145E+03  0.11128251145E+03  0.00000000000E+00 0. -1.
         25    2    1    2    0    0  0.76814935094E+02  0.15301095941E+02  0.14254697781E+02  0.14819766921E+03  0.12499877983E+03 0.  0.
         25    2    1    2    0    0 -0.76814935094E+02 -0.15301095941E+02  0.78472114280E+02  0.16709416576E+03  0.12501171833E+03 0.  0.
          5    1    3    3  501    0  0.50353029433E+02 -0.33669117782E+02  0.52666740687E+02  0.80404680460E+02  0.47000000000E+01 0. -1.
         -5    1    3    3    0  501  0.26461905661E+02  0.48970213723E+02 -0.38412042906E+02  0.67792988749E+02  0.47000000000E+01 0. -1.
          5    1    4    4  502    0 -0.56231156531E+02  0.49846022616E+02  0.22307781147E+02  0.78525766696E+02  0.47000000000E+01 0. -1.
         -5    1    4    4    0  502 -0.20583778562E+02 -0.65147118557E+02  0.56164333133E+02  0.88568399062E+02  0.47000000000E+01 0. -1.
<mgrwt>
<rscale>  0 0.30134810E+03</rscale>
<asrwt>0</asrwt>
<pdfrwt beam="1">  1       21 0.31386050E-01 0.30134810E+03</pdfrwt>
<pdfrwt beam="2">  1       21 0.17120386E-01 0.30134810E+03</pdfrwt>
<totfact> 0.29295357E+05</totfact>
</mgrwt>
</event>
<event>
 8    1  0.9705063E-006  0.2982107E+03  0.7546771E-02  0.1086139E+00
         21   -1    0    0  504  503  0.00000000000E+00  0.00000000000E+00  0.63713163110E+02  0.63713163110E+02  0.00000000000E+00 0.  1.
         21   -1    0    0  503  504 -0.00000000000E+00 -0.00000000000E+00 -0.34894516789E+03  0.34894516789E+03  0.00000000000E+00 0.  1.
         25    2    1    2    0    0  0.39275907789E+02  0.70994311431E+02 -0.13569045325E+03  0.20154294975E+03  0.12499948921E+03 0.  0.
         25    2    1    2    0    0 -0.39275907789E+02 -0.70994311431E+02 -0.14954155153E+03  0.21111538125E+03  0.12499695748E+03 0.  0.
          5    1    3    3  501    0  0.36543153629E+02  0.77327535528E+01  0.13027832234E+02  0.39837318777E+02  0.47000000000E+01 0.  1.
         -5    1    3    3    0  501  0.27327541604E+01  0.63261557878E+02 -0.14871828548E+03  0.16170563097E+03  0.47000000000E+01 0.  1.
          5    1    4    4  502    0 -0.42204738732E+02 -0.88184510751E+02 -0.16193185570E+03  0.18921354021E+03  0.47000000000E+01 0. -1.
         -5    1    4    4    0  502  0.29288309426E+01  0.17190199320E+02  0.12390304174E+02  0.21901841039E+02  0.47000000000E+01 0. -1.
<mgrwt>
<rscale>  0 0.29821067E+03</rscale>
<asrwt>0</asrwt>
<pdfrwt beam="1">  1       21 0.98020251E-02 0.29821067E+03</pdfrwt>
<pdfrwt beam="2">  1       21 0.53683872E-01 0.29821067E+03</pdfrwt>
<totfact> 0.26884302E+05</totfact>
</mgrwt>
</event>
<event>
 8    1  0.9705063E-006  0.2715074E+03  0.7546771E-02  0.1100420E+00
         21   -1    0    0  504  503  0.00000000000E+00  0.00000000000E+00  0.13822977780E+03  0.13822977780E+03  0.00000000000E+00 0. -1.
         21   -1    0    0  503  504 -0.00000000000E+00 -0.00000000000E+00 -0.13332196611E+03  0.13332196611E+03  0.00000000000E+00 0. -1.
         25    2    1    2    0    0 -0.32993783098E+02 -0.11422692345E+02  0.42272379108E+02  0.13649655701E+03  0.12500115367E+03 0.  0.
         25    2    1    2    0    0  0.32993783098E+02  0.11422692345E+02 -0.37364567419E+02  0.13505518689E+03  0.12499889993E+03 0.  0.
          5    1    3    3  501    0  0.62690159747E+01  0.51438756631E+02  0.21264562271E+01  0.52075503465E+02  0.47000000000E+01 0.  1.
         -5    1    3    3    0  501 -0.39262799072E+02 -0.62861448976E+02  0.40145922881E+02  0.84421053549E+02  0.47000000000E+01 0.  1.
          5    1    4    4  502    0 -0.97096218914E+00  0.54226804614E+02 -0.55058408531E+02  0.77427433485E+02  0.47000000000E+01 0. -1.
         -5    1    4    4    0  502  0.33964745287E+02 -0.42804112268E+02  0.17693841112E+02  0.57627753407E+02  0.47000000000E+01 0. -1.
<mgrwt>
<rscale>  0 0.27150739E+03</rscale>
<asrwt>0</asrwt>
<pdfrwt beam="1">  1       21 0.21266120E-01 0.27150739E+03</pdfrwt>
<pdfrwt beam="2">  1       21 0.20511072E-01 0.27150739E+03</pdfrwt>
<totfact> 0.44596663E+05</totfact>
</mgrwt>
</event>
<event>
 8    1  0.9705063E-006  0.4084453E+03  0.7546771E-02  0.1040894E+00
         21   -1    0    0  504  503  0.00000000000E+00  0.00000000000E+00  0.27198875452E+03  0.27198875452E+03  0.00000000000E+00 0. -1.
         21   -1    0    0  503  504 -0.00000000000E+00 -0.00000000000E+00 -0.15334052562E+03  0.15334052562E+03  0.00000000000E+00 0. -1.
         25    2    1    2    0    0 -0.80154167431E+02 -0.12891143149E+03  0.11672612943E+03  0.22867864548E+03  0.12500434345E+03 0.  0.
         25    2    1    2    0    0  0.80154167431E+02  0.12891143149E+03  0.19220994739E+01  0.19665063465E+03  0.12499971967E+03 0.  0.
          5    1    3    3  501    0 -0.56456576124E+02 -0.10511734741E+03  0.14262285035E+03  0.18601174467E+03  0.47000000000E+01 0. -1.
         -5    1    3    3    0  501 -0.23697591307E+02 -0.23794084081E+02 -0.25896720913E+02  0.42666900814E+02  0.47000000000E+01 0. -1.
          5    1    4    4  502    0  0.61701507040E+01 -0.11562214950E+02  0.32086247344E+02  0.34976747174E+02  0.47000000000E+01 0. -1.
         -5    1    4    4    0  502  0.73984016727E+02  0.14047364644E+03 -0.30164147870E+02  0.16167388748E+03  0.47000000000E+01 0. -1.
<mgrwt>
<rscale>  0 0.40844534E+03</rscale>
<asrwt>0</asrwt>
<pdfrwt beam="1">  1       21 0.41844424E-01 0.40844534E+03</pdfrwt>
<pdfrwt beam="2">  1       21 0.23590850E-01 0.40844534E+03</pdfrwt>
<totfact> 0.87270838E+04</totfact>
</mgrwt>
</event>
<event>
 8    1  0.9705063E-006  0.3953749E+03  0.7546771E-02  0.1045393E+00
         21   -1    0    0  504  503  0.00000000000E+00  0.00000000000E+00  0.58054642902E+02  0.58054642902E+02  0.00000000000E+00 0.  1.
         21   -1    0    0  503  504 -0.00000000000E+00 -0.00000000000E+00 -0.67316471628E+03  0.67316471628E+03  0.00000000000E+00 0.  1.
         25    2    1    2    0    0  0.71345881489E+02 -0.33697785097E+02 -0.55031100840E+03  0.56981748164E+03  0.12499592352E+03 0.  0.
         25    2    1    2    0    0 -0.71345881489E+02  0.33697785097E+02 -0.64799064984E+02  0.16140187754E+03  0.12500348685E+03 0.  0.
          5    1    3    3  501    0 -0.24216749258E+02  0.25308140507E+02 -0.13895898592E+03  0.14338285354E+03  0.47000000000E+01 0. -1.
         -5    1    3    3    0  501  0.95562630747E+02 -0.59005925604E+02 -0.41135202248E+03  0.42643462811E+03  0.47000000000E+01 0. -1.
          5    1    4    4  502    0 -0.86999923896E+02  0.43386468511E+02 -0.88137205939E+02  0.13130738547E+03  0.47000000000E+01 0. -1.
         -5    1    4    4    0  502  0.15654042407E+02 -0.96886834140E+01  0.23338140955E+02  0.30094492075E+02  0.47000000000E+01 0. -1.
<mgrwt>
<rscale>  0 0.39537495E+03</rscale>
<asrwt>0</asrwt>
<pdfrwt beam="1">  1       21 0.89314833E-02 0.39537495E+03</pdfrwt>
<pdfrwt beam="2">  1       21 0.10356380E+00 0.39537495E+03</pdfrwt>
<totfact> 0.69777922E+04</totfact>
</mgrwt>
</event>
<event>
 8    1  0.9705063E-006  0.2994636E+03  0.7546771E-02  0.1085509E+00
         21   -1    0    0  504  503  0.00000000000E+00  0.00000000000E+00  0.11527108009E+03  0.11527108009E+03  0.00000000000E+00 0. -1.
         21   -1    0    0  503  504 -0.00000000000E+00 -0.00000000000E+00 -0.19449465179E+03  0.19449465179E+03  0.00000000000E+00 0. -1.
         25    2    1    2    0    0 -0.74458905118E+02  0.35339025585E+02 -0.38215847735E+02  0.15452486119E+03  0.12499802569E+03 0.  0.
         25    2    1    2    0    0  0.74458905118E+02 -0.35339025585E+02 -0.41007723965E+02  0.15524087070E+03  0.12500047692E+03 0.  0.
          5    1    3    3  501    0 -0.58779155639E+02  0.62897855890E+02  0.19601951200E+02  0.88416378030E+02  0.47000000000E+01 0. -1.
         -5    1    3    3    0  501 -0.15679749479E+02 -0.27558830305E+02 -0.57817798935E+02  0.66108483156E+02  0.47000000000E+01 0. -1.
          5    1    4    4  502    0  0.56355198248E+02 -0.74143209469E+02 -0.57002110512E+02  0.10929068800E+03  0.47000000000E+01 0. -1.
         -5    1    4    4    0  502  0.18103706870E+02  0.38804183884E+02  0.15994386547E+02  0.45950182702E+02  0.47000000000E+01 0. -1.
<mgrwt>
<rscale>  0 0.29946358E+03</rscale>
<asrwt>0</asrwt>
<pdfrwt beam="1">  1       21 0.17734012E-01 0.29946358E+03</pdfrwt>
<pdfrwt beam="2">  1       21 0.29922254E-01 0.29946358E+03</pdfrwt>
<totfact> 0.30159606E+05</totfact>
</mgrwt>
</event>
<event>
 8    1  0.9705063E-006  0.3056144E+03  0.7546771E-02  0.1082467E+00
         21   -1    0    0  504  503  0.00000000000E+00  0.00000000000E+00  0.74487880530E+02  0.74487880530E+02  0.00000000000E+00 0. -1.
         21   -1    0    0  503  504 -0.00000000000E+00 -0.00000000000E+00 -0.31347429232E+03  0.31347429232E+03  0.00000000000E+00 0. -1.
         25    2    1    2    0    0 -0.37087958192E+02 -0.71370057713E+02 -0.74517712592E+02  0.16627484680E+03  0.12500093363E+03 0.  0.
         25    2    1    2    0    0  0.37087958192E+02  0.71370057713E+02 -0.16446869920E+03  0.22168732605E+03  0.12500446286E+03 0.  0.
          5    1    3    3  501    0  0.24175546684E+02 -0.77590634457E+02 -0.19834658067E+02  0.83787035235E+02  0.47000000000E+01 0.  1.
         -5    1    3    3    0  501 -0.61263504876E+02  0.62205767438E+01 -0.54683054525E+02  0.82487811566E+02  0.47000000000E+01 0.  1.
          5    1    4    4  502    0 -0.40150572167E+02  0.19103843985E+02 -0.95983154036E+02  0.10588617076E+03  0.47000000000E+01 0. -1.
         -5    1    4    4    0  502  0.77238530359E+02  0.52266213728E+02 -0.68485545164E+02  0.11580115529E+03  0.47000000000E+01 0. -1.
<mgrwt>
<rscale>  0 0.30561437E+03</rscale>
<asrwt>0</asrwt>
<pdfrwt beam="1">  1       21 0.11459674E-01 0.30561437E+03</pdfrwt>
<pdfrwt beam="2">  1       21 0.48226814E-01 0.30561437E+03</pdfrwt>
<totfact> 0.25449356E+05</totfact>
</mgrwt>
</event>
<event>
 8    1  0.9705063E-006  0.3204512E+03  0.7546771E-02  0.1075442E+00
         21   -1    0    0  504  503  0.00000000000E+00  0.00000000000E+00  0.14621927678E+03  0.14621927678E+03  0.00000000000E+00 0.  1.
         21   -1    0    0  503  504 -0.00000000000E+00 -0.00000000000E+00 -0.17557359587E+03  0.17557359587E+03  0.00000000000E+00 0.  1.
         25    2    1    2    0    0  0.27751794712E+02 -0.66956547877E+02 -0.84208569476E+02  0.16723988472E+03  0.12499901782E+03 0.  0.
         25    2    1    2    0    0 -0.27751794712E+02  0.66956547877E+02  0.54854250386E+02  0.15455298793E+03  0.12499718349E+03 0.  0.
          5    1    3    3  501    0  0.62567191421E+02 -0.16298619931E+02 -0.24868061850E+01  0.64873512769E+02  0.47000000000E+01 0. -1.
         -5    1    3    3    0  501 -0.34815396709E+02 -0.50657927947E+02 -0.81721763291E+02  0.10236637196E+03  0.47000000000E+01 0. -1.
          5    1    4    4  502    0 -0.68338169180E+02  0.95976683153E+01  0.47148916232E+02  0.83709801731E+02  0.47000000000E+01 0.  1.
         -5    1    4    4    0  502  0.40586374468E+02  0.57358879562E+02  0.77053341543E+01  0.70843186204E+02  0.47000000000E+01 0.  1.
<mgrwt>
<rscale>  0 0.32045121E+03</rscale>
<asrwt>0</asrwt>
<pdfrwt beam="1">  1       21 0.22495273E-01 0.32045121E+03</pdfrwt>
<pdfrwt beam="2">  1       21 0.27011323E-01 0.32045121E+03</pdfrwt>
<totfact> 0.23426025E+05</totfact>
</mgrwt>
</event>
<event>
 8    1  0.9705063E-006  0.2844152E+03  0.7546771E-02  0.1093302E+00
         21   -1    0    0  504  503  0.00000000000E+00  0.00000000000E+00  0.45353321164E+03  0.45353321164E+03  0.00000000000E+00 0. -1.
         21   -1    0    0  503  504 -0.00000000000E+00 -0.00000000000E+00 -0.44589900300E+02  0.44589900300E+02  0.00000000000E+00 0. -1.
         25    2    1    2    0    0  0.19242681541E+02 -0.18984359078E+02  0.31332714742E+03  0.33842636619E+03  0.12501126885E+03 0.  0.
         25    2    1    2    0    0 -0.19242681541E+02  0.18984359078E+02  0.95616163916E+02  0.15969674575E+03  0.12501965092E+03 0.  0.
          5    1    3    3  501    0  0.13767103318E+02  0.51340049553E+02  0.17687279370E+03  0.18474687811E+03  0.47000000000E+01 0.  1.
         -5    1    3    3    0  501  0.54755782222E+01 -0.70324408631E+02  0.13645435372E+03  0.15367948808E+03  0.47000000000E+01 0.  1.
          5    1    4    4  502    0 -0.63947879845E+01 -0.53441926670E+02  0.36354005320E+02  0.65120170012E+02  0.47000000000E+01 0.  1.
         -5    1    4    4    0  502 -0.12847893556E+02  0.72426285748E+02  0.59262158595E+02  0.94576575734E+02  0.47000000000E+01 0.  1.
<mgrwt>
<rscale>  0 0.28441519E+03</rscale>
<asrwt>0</asrwt>
<pdfrwt beam="1">  1       21 0.69774337E-01 0.28441519E+03</pdfrwt>
<pdfrwt beam="2">  1       21 0.68599850E-02 0.28441519E+03</pdfrwt>
<totfact> 0.28554371E+05</totfact>
</mgrwt>
</event>
<event>
 8    1  0.9705063E-006  0.3252787E+03  0.7546771E-02  0.1073245E+00
         21   -1    0    0  504  503  0.00000000000E+00  0.00000000000E+00  0.14532921447E+03  0.14532921447E+03  0.00000000000E+00 0. -1.
         21   -1    0    0  503  504 -0.00000000000E+00 -0.00000000000E+00 -0.18201134469E+03  0.18201134469E+03  0.00000000000E+00 0. -1.
         25    2    1    2    0    0 -0.34535971763E+02  0.13472314995E+02 -0.11618187445E+03  0.17463633924E+03  0.12500154564E+03 0.  0.
         25    2    1    2    0    0  0.34535971763E+02 -0.13472314995E+02  0.79499744240E+02  0.15270421992E+03  0.12499653127E+03 0.  0.
          5    1    3    3  501    0 -0.39808136945E+02 -0.46825685077E+02 -0.88653952444E+02  0.10797659855E+03  0.47000000000E+01 0.  1.
         -5    1    3    3    0  501  0.52721651819E+01  0.60298000072E+02 -0.27527922009E+02  0.66659740688E+02  0.47000000000E+01 0.  1.
          5    1    4    4  502    0 -0.30901664743E+01  0.22364642609E+01 -0.32688292389E+02  0.33244027442E+02  0.47000000000E+01 0.  1.
         -5    1    4    4    0  502  0.37626138238E+02 -0.15708779256E+02  0.11218803663E+03  0.11946019248E+03  0.47000000000E+01 0.  1.
<mgrwt>
<rscale>  0 0.32527875E+03</rscale>
<asrwt>0</asrwt>
<pdfrwt beam="1">  1       21 0.22358341E-01 0.32527875E+03</pdfrwt>
<pdfrwt beam="2">  1       21 0.28001745E-01 0.32527875E+03</pdfrwt>
<totfact> 0.22070119E+05</totfact>
</mgrwt>
</event>
<event>
 8    1  0.9705063E-006  0.2655204E+03  0.7546771E-02  0.1103871E+00
         21   -1    0    0  504  503  0.00000000000E+00  0.00000000000E+00  0.13473449661E+03  0.13473449661E+03  0.00000000000E+00 0.  1.
         21   -1    0    0  503  504 -0.00000000000E+00 -0.00000000000E+00 -0.13081479814E+03  0.13081479814E+03  0.00000000000E+00 0.  1.
         25    2    1    2    0    0  0.15939291292E+02 -0.34936394740E+02 -0.21026637251E+02  0.13242661249E+03  0.12498030059E+03 0.  0.
         25    2    1    2    0    0 -0.15939291292E+02  0.34936394740E+02  0.24946335728E+02  0.13312268226E+03  0.12499886473E+03 0.  0.
          5    1    3    3  501    0 -0.42111827794E-01 -0.78601388330E+02  0.50601441906E+01  0.78904214589E+02  0.47000000000E+01 0.  1.
         -5    1    3    3    0  501  0.15981403120E+02  0.43664993590E+02 -0.26086781441E+02  0.53522397899E+02  0.47000000000E+01 0.  1.
          5    1    4    4  502    0 -0.27367996329E+02  0.79189380976E+02  0.86040472248E+01  0.84356890122E+02  0.47000000000E+01 0.  1.
         -5    1    4    4    0  502  0.11428705037E+02 -0.44252986237E+02  0.16342288503E+02  0.48765792142E+02  0.47000000000E+01 0.  1.
<mgrwt>
<rscale>  0 0.26552036E+03</rscale>
<asrwt>0</asrwt>
<pdfrwt beam="1">  1       21 0.20728384E-01 0.26552036E+03</pdfrwt>
<pdfrwt beam="2">  1       21 0.20125353E-01 0.26552036E+03</pdfrwt>
<totfact> 0.48565732E+05</totfact>
</mgrwt>
</event>
<event>
 8    1  0.9705063E-006  0.2809523E+03  0.7546771E-02  0.1095170E+00
         21   -1    0    0  504  503  0.00000000000E+00  0.00000000000E+00  0.66111025106E+03  0.66111025106E+03  0.00000000000E+00 0.  1.
         21   -1    0    0  503  504 -0.00000000000E+00 -0.00000000000E+00 -0.29849111607E+02  0.29849111607E+02  0.00000000000E+00 0.  1.
         25    2    1    2    0    0 -0.28143780771E+02 -0.10346173723E+02  0.17630866421E+03  0.21819380588E+03  0.12499870456E+03 0.  0.
         25    2    1    2    0    0  0.28143780771E+02  0.10346173723E+02  0.45495247525E+03  0.47276555679E+03  0.12500560486E+03 0.  0.
          5    1    3    3  501    0 -0.38834871357E+02 -0.39644209349E+02  0.17809788904E+03  0.18660321179E+03  0.47000000000E+01 0. -1.
         -5    1    3    3    0  501  0.10691090586E+02  0.29298035626E+02 -0.17892248363E+01  0.31590594090E+02  0.47000000000E+01 0. -1.
          5    1    4    4  502    0  0.21457224024E+01 -0.55918208051E+02  0.17077761648E+03  0.17977356426E+03  0.47000000000E+01 0.  1.
         -5    1    4    4    0  502  0.25998058368E+02  0.66264381775E+02  0.28417485877E+03  0.29299199253E+03  0.47000000000E+01 0.  1.
<mgrwt>
<rscale>  0 0.28095234E+03</rscale>
<asrwt>0</asrwt>
<pdfrwt beam="1">  1       21 0.10170926E+00 0.28095234E+03</pdfrwt>
<pdfrwt beam="2">  1       21 0.45921715E-02 0.28095234E+03</pdfrwt>
<totfact> 0.23863826E+05</totfact>
</mgrwt>
</event>
<event>
 8    1  0.9705063E-006  0.3645783E+03  0.7546771E-02  0.1056786E+00
         21   -1    0    0  504  503  0.00000000000E+00  0.00000000000E+00  0.29244080601E+02  0.29244080601E+02  0.00000000000E+00 0.  1.
         21   -1    0    0  503  504 -0.00000000000E+00 -0.00000000000E+00 -0.11362757451E+04  0.11362757451E+04  0.00000000000E+00 0.  1.
         25    2    1    2    0    0  0.86462345892E+02 -0.87585660674E+02 -0.39497177581E+03  0.43217293077E+03  0.12499501265E+03 0.  0.
         25    2    1    2    0    0 -0.86462345892E+02  0.87585660674E+02 -0.71205988869E+03  0.73334689493E+03  0.12498559123E+03 0.  0.
          5    1    3    3  501    0  0.90043479687E+02 -0.44219089074E+01 -0.17459772558E+03  0.19655492181E+03  0.47000000000E+01 0. -1.
         -5    1    3    3    0  501 -0.35811337951E+01 -0.83163751766E+02 -0.22037405023E+03  0.23561800895E+03  0.47000000000E+01 0. -1.
          5    1    4    4  502    0 -0.11647188348E+03  0.49639471125E+02 -0.50297200559E+03  0.51868362722E+03  0.47000000000E+01 0.  1.
         -5    1    4    4    0  502  0.30009537593E+02  0.37946189549E+02 -0.20908788309E+03  0.21466326771E+03  0.47000000000E+01 0.  1.
<mgrwt>
<rscale>  0 0.36457833E+03</rscale>
<asrwt>0</asrwt>
<pdfrwt beam="1">  1       21 0.44990902E-02 0.36457833E+03</pdfrwt>
<pdfrwt beam="2">  1       21 0.17481162E+00 0.36457833E+03</pdfrwt>
<totfact> 0.58918117E+04</totfact>
</mgrwt>
</event>
<event>
 8    1  0.9705063E-006  0.3209008E+03  0.7546771E-02  0.1075235E+00
         21   -1    0    0  504  503  0.00000000000E+00  0.00000000000E+00  0.92016400962E+03  0.92016400962E+03  0.00000000000E+00 0.  1.
         21   -1    0    0  503  504 -0.00000000000E+00 -0.00000000000E+00 -0.27977976048E+02  0.27977976048E+02  0.00000000000E+00 0.  1.
         25    2    1    2    0    0 -0.46627105808E+02  0.71052992359E+02  0.60516368132E+03  0.62375202370E+03  0.12498356356E+03 0.  0.
         25    2    1    2    0    0  0.46627105808E+02 -0.71052992359E+02  0.28702235225E+03  0.32438996197E+03  0.12499760804E+03 0.  0.
          5    1    3    3  501    0  0.19078041214E+02 -0.90388046187E+01  0.31270646177E+03  0.31345349396E+03  0.47000000000E+01 0. -1.
         -5    1    3    3    0  501 -0.65705147022E+02  0.80091796978E+02  0.29245721955E+03  0.31029852974E+03  0.47000000000E+01 0. -1.
          5    1    4    4  502    0  0.21937331592E+01 -0.33066105368E+02  0.21455567812E+01  0.33539129435E+02  0.47000000000E+01 0. -1.
         -5    1    4    4    0  502  0.44433372649E+02 -0.37986886991E+02  0.28487679547E+03  0.29085083253E+03  0.47000000000E+01 0. -1.
<mgrwt>
<rscale>  0 0.32090077E+03</rscale>
<asrwt>0</asrwt>
<pdfrwt beam="1">  1       21 0.14156367E+00 0.32090077E+03</pdfrwt>
<pdfrwt beam="2">  1       21 0.43043047E-02 0.32090077E+03</pdfrwt>
<totfact> 0.11483032E+05</totfact>
</mgrwt>
</event>
<event>
 8    1  0.9705063E-006  0.2680722E+03  0.7546771E-02  0.1102388E+00
         21   -1    0    0  504  503  0.00000000000E+00  0.00000000000E+00  0.55553367042E+02  0.55553367042E+02  0.00000000000E+00 0.  1.
         21   -1    0    0  503  504 -0.00000000000E+00 -0.00000000000E+00 -0.32339500666E+03  0.32339500666E+03  0.00000000000E+00 0.  1.
         25    2    1    2    0    0 -0.80476930655E+01 -0.19376879129E+02 -0.72288101272E+02  0.14591236812E+03  0.12499848310E+03 0.  0.
         25    2    1    2    0    0  0.80476930655E+01  0.19376879129E+02 -0.19555353835E+03  0.23303600558E+03  0.12499745889E+03 0.  0.
          5    1    3    3  501    0  0.53725402178E+02 -0.14254746766E+02 -0.61129446370E+02  0.82755760271E+02  0.47000000000E+01 0.  1.
         -5    1    3    3    0  501 -0.61773095243E+02 -0.51221323626E+01 -0.11158654903E+02  0.63156607850E+02  0.47000000000E+01 0.  1.
          5    1    4    4  502    0  0.30881303210E+01  0.70363872229E+02 -0.14312107239E+03  0.15958177348E+03  0.47000000000E+01 0. -1.
         -5    1    4    4    0  502  0.49595627445E+01 -0.50986993100E+02 -0.52432465955E+02  0.73454232105E+02  0.47000000000E+01 0. -1.
<mgrwt>
<rscale>  0 0.26807224E+03</rscale>
<asrwt>0</asrwt>
<pdfrwt beam="1">  1       21 0.85466717E-02 0.26807224E+03</pdfrwt>
<pdfrwt beam="2">  1       21 0.49753079E-01 0.26807224E+03</pdfrwt>
<totfact> 0.40495264E+05</totfact>
</mgrwt>
</event>
<event>
 8    1  0.9705063E-006  0.2723996E+03  0.7546771E-02  0.1099914E+00
         21   -1    0    0  504  503  0.00000000000E+00  0.00000000000E+00  0.10939885763E+04  0.10939885763E+04  0.00000000000E+00 0.  1.
         21   -1    0    0  503  504 -0.00000000000E+00 -0.00000000000E+00 -0.16956651060E+02  0.16956651060E+02  0.00000000000E+00 0.  1.
         25    2    1    2    0    0  0.88163349436E+01 -0.76810515560E+01  0.75390120630E+03  0.76428283725E+03  0.12499800055E+03 0.  0.
         25    2    1    2    0    0 -0.88163349436E+01  0.76810515560E+01  0.32313071893E+03  0.34666239010E+03  0.12499849951E+03 0.  0.
          5    1    3    3  501    0  0.17285792844E+02  0.14469281977E+02  0.72974115694E+03  0.73010437945E+03  0.47000000000E+01 0.  1.
         -5    1    3    3    0  501 -0.84694579002E+01 -0.22150333533E+02  0.24160049358E+02  0.34178457802E+02  0.47000000000E+01 0.  1.
          5    1    4    4  502    0 -0.37209965554E+02  0.47661658478E+02  0.90975819684E+02  0.10933848816E+03  0.47000000000E+01 0.  1.
         -5    1    4    4    0  502  0.28393630611E+02 -0.39980606922E+02  0.23215489924E+03  0.23732390194E+03  0.47000000000E+01 0.  1.
<mgrwt>
<rscale>  0 0.27239958E+03</rscale>
<asrwt>0</asrwt>
<pdfrwt beam="1">  1       21 0.16830588E+00 0.27239958E+03</pdfrwt>
<pdfrwt beam="2">  1       21 0.26087164E-02 0.27239958E+03</pdfrwt>
<totfact> 0.16918155E+05</totfact>
</mgrwt>
</event>
<event>
 8    1  0.9705063E-006  0.2701122E+03  0.7546771E-02  0.1101215E+00
         21   -1    0    0  504  503  0.00000000000E+00  0.00000000000E+00  0.14319891800E+02  0.14319891800E+02  0.00000000000E+00 0. -1.
         21   -1    0    0  503  504 -0.00000000000E+00 -0.00000000000E+00 -0.12737628355E+04  0.12737628355E+04  0.00000000000E+00 0. -1.
         25    2    1    2    0    0 -0.17872248178E+02 -0.24513431194E+02 -0.82601574369E+03  0.83597269616E+03  0.12501205672E+03 0.  0.
         25    2    1    2    0    0  0.17872248178E+02  0.24513431194E+02 -0.43342720005E+03  0.45211003118E+03  0.12499606791E+03 0.  0.
          5    1    3    3  501    0 -0.32192688227E+02 -0.44870084136E+02 -0.15731936615E+03  0.16679678232E+03  0.47000000000E+01 0. -1.
         -5    1    3    3    0  501  0.14320440048E+02  0.20356652942E+02 -0.66869637754E+03  0.66917591384E+03  0.47000000000E+01 0. -1.
          5    1    4    4  502    0 -0.24146638540E+02 -0.78493845234E+01 -0.36251395776E+03  0.36343243191E+03  0.47000000000E+01 0. -1.
         -5    1    4    4    0  502  0.42018886719E+02  0.32362815717E+02 -0.70913242288E+02  0.88677599280E+02  0.47000000000E+01 0. -1.
<mgrwt>
<rscale>  0 0.27011217E+03</rscale>
<asrwt>0</asrwt>
<pdfrwt beam="1">  1       21 0.22030598E-02 0.27011217E+03</pdfrwt>
<pdfrwt beam="2">  1       21 0.19596355E+00 0.27011217E+03</pdfrwt>
<totfact> 0.14454695E+05</totfact>
</mgrwt>
</event>
<event>
 8    1  0.9705063E-006  0.3264703E+03  0.7546771E-02  0.1072709E+00
         21   -1    0    0  504  503  0.00000000000E+00  0.00000000000E+00  0.11746365895E+03  0.11746365895E+03  0.00000000000E+00 0.  1.
         21   -1    0    0  503  504 -0.00000000000E+00 -0.00000000000E+00 -0.22684214437E+03  0.22684214437E+03  0.00000000000E+00 0.  1.
         25    2    1    2    0    0  0.76729088626E+02 -0.66039142011E+01  0.20499772940E+02  0.14825420746E+03  0.12501241784E+03 0.  0.
         25    2    1    2    0    0 -0.76729088626E+02  0.66039142011E+01 -0.12987825835E+03  0.19605159586E+03  0.12504759703E+03 0.  0.
          5    1    3    3  501    0  0.89390363943E+02 -0.28402593324E+02  0.52228763183E+02  0.10745826249E+03  0.47000000000E+01 0.  1.
         -5    1    3    3    0  501 -0.12661275317E+02  0.21798679123E+02 -0.31728990244E+02  0.40795944971E+02  0.47000000000E+01 0.  1.
          5    1    4    4  502    0  0.23393275153E+02  0.30097504593E+02 -0.61346599121E+02  0.72378175777E+02  0.47000000000E+01 0. -1.
         -5    1    4    4    0  502 -0.10012236378E+03 -0.23493590392E+02 -0.68531659232E+02  0.12367342008E+03  0.47000000000E+01 0. -1.
<mgrwt>
<rscale>  0 0.32647026E+03</rscale>
<asrwt>0</asrwt>
<pdfrwt beam="1">  1       21 0.18071332E-01 0.32647026E+03</pdfrwt>
<pdfrwt beam="2">  1       21 0.34898791E-01 0.32647026E+03</pdfrwt>
<totfact> 0.21328228E+05</totfact>
</mgrwt>
</event>
<event>
 8    1  0.9705063E-006  0.7310384E+03  0.7546771E-02  0.9665577E-01
         21   -1    0    0  504  503  0.00000000000E+00  0.00000000000E+00  0.17433417868E+03  0.17433417868E+03  0.00000000000E+00 0.  1.
         21   -1    0    0  503  504 -0.00000000000E+00 -0.00000000000E+00 -0.76636893124E+03  0.76636893124E+03  0.00000000000E+00 0.  1.
         25    2    1    2    0    0 -0.24604649074E+03  0.18201795491E+03 -0.95391180462E+02  0.34408962794E+03  0.12501513202E+03 0.  0.
         25    2    1    2    0    0  0.24604649074E+03 -0.18201795491E+03 -0.49664357210E+03  0.59661348198E+03  0.12499359047E+03 0.  0.
          5    1    3    3  501    0 -0.12662017771E+03  0.16214810142E+03 -0.35089240036E+02  0.20875349330E+03  0.47000000000E+01 0. -1.
         -5    1    3    3    0  501 -0.11942631303E+03  0.19869853488E+02 -0.60301940425E+02  0.13533613464E+03  0.47000000000E+01 0. -1.
          5    1    4    4  502    0  0.17500037562E+03 -0.53633662199E+02 -0.29471101902E+03  0.34695587028E+03  0.47000000000E+01 0. -1.
         -5    1    4    4    0  502  0.71046115122E+02 -0.12838429271E+03 -0.20193255307E+03  0.24965761170E+03  0.47000000000E+01 0. -1.
<mgrwt>
<rscale>  0 0.73103843E+03</rscale>
<asrwt>0</asrwt>
<pdfrwt beam="1">  1       21 0.26820643E-01 0.73103843E+03</pdfrwt>
<pdfrwt beam="2">  1       21 0.11790291E+00 0.73103843E+03</pdfrwt>
<totfact> 0.59901249E+03</totfact>
</mgrwt>
</event>
<event>
 8    1  0.9705063E-006  0.2671618E+03  0.7546771E-02  0.1102915E+00
         21   -1    0    0  504  503  0.00000000000E+00  0.00000000000E+00  0.39368679944E+03  0.39368679944E+03  0.00000000000E+00 0. -1.
         21   -1    0    0  503  504 -0.00000000000E+00 -0.00000000000E+00 -0.45325017476E+02  0.45325017476E+02  0.00000000000E+00 0. -1.
         25    2    1    2    0    0 -0.39673284861E+02 -0.24093695073E+02  0.18729694834E+03  0.22991706548E+03  0.12500893755E+03 0.  0.
         25    2    1    2    0    0  0.39673284861E+02  0.24093695073E+02  0.16106483362E+03  0.20909475143E+03  0.12499703506E+03 0.  0.
          5    1    3    3  501    0 -0.67092444282E+02 -0.21075842074E+02  0.42206049968E+02  0.82152467113E+02  0.47000000000E+01 0.  1.
         -5    1    3    3    0  501  0.27419159421E+02 -0.30178529999E+01  0.14509089838E+03  0.14776459837E+03  0.47000000000E+01 0.  1.
          5    1    4    4  502    0  0.15618647735E+02 -0.47365913423E+02  0.31688172481E+02  0.59276489324E+02  0.47000000000E+01 0. -1.
         -5    1    4    4    0  502  0.24054637126E+02  0.71459608496E+02  0.12937666114E+03  0.14981826211E+03  0.47000000000E+01 0. -1.
<mgrwt>
<rscale>  0 0.26716183E+03</rscale>
<asrwt>0</asrwt>
<pdfrwt beam="1">  1       21 0.60567198E-01 0.26716183E+03</pdfrwt>
<pdfrwt beam="2">  1       21 0.69730799E-02 0.26716183E+03</pdfrwt>
<totfact> 0.38010310E+05</totfact>
</mgrwt>
</event>
<event>
 8    1  0.9705063E-006  0.2998630E+03  0.7546771E-02  0.1085309E+00
         21   -1    0    0  504  503  0.00000000000E+00  0.00000000000E+00  0.12434550595E+04  0.12434550595E+04  0.00000000000E+00 0. -1.
         21   -1    0    0  503  504 -0.00000000000E+00 -0.00000000000E+00 -0.18078225913E+02  0.18078225913E+02  0.00000000000E+00 0. -1.
         25    2    1    2    0    0  0.25362369235E+01 -0.27079676869E+02  0.94166799511E+03  0.95031767137E+03  0.12500128838E+03 0.  0.
         25    2    1    2    0    0 -0.25362369235E+01  0.27079676869E+02  0.28370883851E+03  0.31121561408E+03  0.12499884800E+03 0.  0.
          5    1    3    3  501    0 -0.40280096106E+02 -0.30276792151E+02  0.16830159085E+03  0.17574608322E+03  0.47000000000E+01 0.  1.
         -5    1    3    3    0  501  0.42816333030E+02  0.31971152814E+01  0.77336640427E+03  0.77457158815E+03  0.47000000000E+01 0.  1.
          5    1    4    4  502    0 -0.42758751581E+02  0.31807998917E+02  0.25691994807E+03  0.26243096111E+03  0.47000000000E+01 0.  1.
         -5    1    4    4    0  502  0.40222514657E+02 -0.47283220476E+01  0.26788890443E+02  0.48784652975E+02  0.47000000000E+01 0.  1.
<mgrwt>
<rscale>  0 0.29986305E+03</rscale>
<asrwt>0</asrwt>
<pdfrwt beam="1">  1       21 0.19130071E+00 0.29986305E+03</pdfrwt>
<pdfrwt beam="2">  1       21 0.27812665E-02 0.29986305E+03</pdfrwt>
<totfact> 0.10435474E+05</totfact>
</mgrwt>
</event>
<event>
 8    1  0.9705063E-006  0.2947613E+03  0.7546771E-02  0.1087889E+00
         21   -1    0    0  504  503  0.00000000000E+00  0.00000000000E+00  0.50836641196E+03  0.50836641196E+03  0.00000000000E+00 0.  1.
         21   -1    0    0  503  504 -0.00000000000E+00 -0.00000000000E+00 -0.42727164386E+02  0.42727164386E+02  0.00000000000E+00 0.  1.
         25    2    1    2    0    0  0.20780930225E+02  0.73897962267E+02  0.20619035871E+03  0.25304519441E+03  0.12499860200E+03 0.  0.
         25    2    1    2    0    0 -0.20780930225E+02 -0.73897962267E+02  0.25944888886E+03  0.29804838193E+03  0.12500542450E+03 0.  0.
          5    1    3    3  501    0 -0.25971139253E+02 -0.11496313657E+02  0.11846447954E+03  0.12191221520E+03  0.47000000000E+01 0. -1.
         -5    1    3    3    0  501  0.46752069477E+02  0.85394275924E+02  0.87725879173E+02  0.13113297921E+03  0.47000000000E+01 0. -1.
          5    1    4    4  502    0 -0.50630508907E+02 -0.15157678059E+02  0.33755306402E+02  0.62886519594E+02  0.47000000000E+01 0. -1.
         -5    1    4    4    0  502  0.29849578682E+02 -0.58740284208E+02  0.22569358246E+03  0.23516186234E+03  0.47000000000E+01 0. -1.
<mgrwt>
<rscale>  0 0.29476129E+03</rscale>
<asrwt>0</asrwt>
<pdfrwt beam="1">  1       21 0.78210213E-01 0.29476129E+03</pdfrwt>
<pdfrwt beam="2">  1       21 0.65734103E-02 0.29476129E+03</pdfrwt>
<totfact> 0.23732309E+05</totfact>
</mgrwt>
</event>
<event>
 8    1  0.9705063E-006  0.4678787E+03  0.7546771E-02  0.1022521E+00
         21   -1    0    0  504  503  0.00000000000E+00  0.00000000000E+00  0.34061193544E+03  0.34061193544E+03  0.00000000000E+00 0. -1.
         21   -1    0    0  503  504 -0.00000000000E+00 -0.00000000000E+00 -0.16067437229E+03  0.16067437229E+03  0.00000000000E+00 0. -1.
         25    2    1    2    0    0  0.11183363898E+03 -0.16212752149E+03  0.71079913370E+02  0.24386286327E+03  0.12499858386E+03 0.  0.
         25    2    1    2    0    0 -0.11183363898E+03  0.16212752149E+03  0.10885764978E+03  0.25742344445E+03  0.12499898322E+03 0.  0.
          5    1    3    3  501    0  0.10128066868E+03 -0.18250742022E+03  0.56572855315E+02  0.21630836840E+03  0.47000000000E+01 0. -1.
         -5    1    3    3    0  501  0.10552970296E+02  0.20379898724E+02  0.14507058055E+02  0.27554494869E+02  0.47000000000E+01 0. -1.
          5    1    4    4  502    0 -0.47593915733E+02  0.58998461108E+02 -0.21727154471E+02  0.78994673677E+02  0.47000000000E+01 0.  1.
         -5    1    4    4    0  502 -0.64239723244E+02  0.10312906039E+03  0.13058480426E+03  0.17842877078E+03  0.47000000000E+01 0.  1.
<mgrwt>
<rscale>  0 0.46787865E+03</rscale>
<asrwt>0</asrwt>
<pdfrwt beam="1">  1       21 0.52401836E-01 0.46787865E+03</pdfrwt>
<pdfrwt beam="2">  1       21 0.24719134E-01 0.46787865E+03</pdfrwt>
<totfact> 0.49020304E+04</totfact>
</mgrwt>
</event>
<event>
 8    1  0.9705063E-006  0.2933416E+03  0.7546771E-02  0.1088617E+00
         21   -1    0    0  504  503  0.00000000000E+00  0.00000000000E+00  0.31656427949E+02  0.31656427949E+02  0.00000000000E+00 0. -1.
         21   -1    0    0  503  504 -0.00000000000E+00 -0.00000000000E+00 -0.67955637698E+03  0.67955637698E+03  0.00000000000E+00 0. -1.
         25    2    1    2    0    0 -0.53066394302E+01  0.24301267220E+02 -0.14796769645E+03  0.19529100205E+03  0.12500169710E+03 0.  0.
         25    2    1    2    0    0  0.53066394302E+01 -0.24301267220E+02 -0.49993225258E+03  0.51592180288E+03  0.12499735001E+03 0.  0.
          5    1    3    3  501    0  0.14338766964E+02 -0.48730315910E+02 -0.49908233857E+02  0.71366418808E+02  0.47000000000E+01 0. -1.
         -5    1    3    3    0  501 -0.19645406395E+02  0.73031583130E+02 -0.98059462595E+02  0.12392458324E+03  0.47000000000E+01 0. -1.
          5    1    4    4  502    0  0.28332148656E+02  0.36404857021E+02 -0.94126587373E+02  0.10492820742E+03  0.47000000000E+01 0.  1.
         -5    1    4    4    0  502 -0.23025509226E+02 -0.60706124241E+02 -0.40580566521E+03  0.41099359546E+03  0.47000000000E+01 0.  1.
<mgrwt>
<rscale>  0 0.29334163E+03</rscale>
<asrwt>0</asrwt>
<pdfrwt beam="1">  1       21 0.48702203E-02 0.29334163E+03</pdfrwt>
<pdfrwt beam="2">  1       21 0.10454712E+00 0.29334163E+03</pdfrwt>
<totfact> 0.20132808E+05</totfact>
</mgrwt>
</event>
<event>
 8    1  0.9705063E-006  0.2576887E+03  0.7546771E-02  0.1108540E+00
         21   -1    0    0  504  503  0.00000000000E+00  0.00000000000E+00  0.13197719039E+03  0.13197719039E+03  0.00000000000E+00 0.  1.
         21   -1    0    0  503  504 -0.00000000000E+00 -0.00000000000E+00 -0.12578587924E+03  0.12578587924E+03  0.00000000000E+00 0.  1.
         25    2    1    2    0    0 -0.28516329312E+01 -0.28065941892E+02 -0.10311868608E+02  0.12855794875E+03  0.12499993060E+03 0.  0.
         25    2    1    2    0    0  0.28516329312E+01  0.28065941892E+02  0.16503179767E+02  0.12920512088E+03  0.12500311761E+03 0.  0.
          5    1    3    3  501    0  0.58907547489E+01 -0.44056796719E+02 -0.60348809950E+02  0.75098410043E+02  0.47000000000E+01 0.  1.
         -5    1    3    3    0  501 -0.87423876801E+01  0.15990854827E+02  0.50036941342E+02  0.53459538712E+02  0.47000000000E+01 0.  1.
          5    1    4    4  502    0 -0.55188140354E+02 -0.70086044592E+01  0.24090915107E+02  0.60805538916E+02  0.47000000000E+01 0. -1.
         -5    1    4    4    0  502  0.58039773285E+02  0.35074546351E+02 -0.75877353401E+01  0.68399581960E+02  0.47000000000E+01 0. -1.
<mgrwt>
<rscale>  0 0.25768870E+03</rscale>
<asrwt>0</asrwt>
<pdfrwt beam="1">  1       21 0.20304183E-01 0.25768870E+03</pdfrwt>
<pdfrwt beam="2">  1       21 0.19351674E-01 0.25768870E+03</pdfrwt>
<totfact> 0.54428771E+05</totfact>
</mgrwt>
</event>
<event>
 8    1  0.9705063E-006  0.3032659E+03  0.7546771E-02  0.1083619E+00
         21   -1    0    0  504  503  0.00000000000E+00  0.00000000000E+00  0.24638262553E+02  0.24638262553E+02  0.00000000000E+00 0. -1.
         21   -1    0    0  503  504 -0.00000000000E+00 -0.00000000000E+00 -0.93320525895E+03  0.93320525895E+03  0.00000000000E+00 0. -1.
         25    2    1    2    0    0 -0.38613081046E+01  0.83265279934E+02 -0.38939224761E+03  0.41737071576E+03  0.12499590123E+03 0.  0.
         25    2    1    2    0    0  0.38613081046E+01 -0.83265279934E+02 -0.51917474878E+03  0.54047280575E+03  0.12498166841E+03 0.  0.
          5    1    3    3  501    0  0.33271259456E+02 -0.14266586240E+02 -0.47701064156E+02  0.60066577315E+02  0.47000000000E+01 0.  1.
         -5    1    3    3    0  501 -0.37132567561E+02  0.97531866174E+02 -0.34169118346E+03  0.35730413844E+03  0.47000000000E+01 0.  1.
          5    1    4    4  502    0 -0.26638611477E+01  0.26271651587E+02 -0.22267299344E+03  0.22428251792E+03  0.47000000000E+01 0. -1.
         -5    1    4    4    0  502  0.65251692523E+01 -0.10953693152E+03 -0.29650175534E+03  0.31619028783E+03  0.47000000000E+01 0. -1.
<mgrwt>
<rscale>  0 0.30326593E+03</rscale>
<asrwt>0</asrwt>
<pdfrwt beam="1">  1       21 0.37905015E-02 0.30326593E+03</pdfrwt>
<pdfrwt beam="2">  1       21 0.14357006E+00 0.30326593E+03</pdfrwt>
<totfact> 0.13795653E+05</totfact>
</mgrwt>
</event>
<event>
 8    1  0.9705063E-006  0.2938297E+03  0.7546771E-02  0.1088366E+00
         21   -1    0    0  504  503  0.00000000000E+00  0.00000000000E+00  0.16430849609E+03  0.16430849609E+03  0.00000000000E+00 0. -1.
         21   -1    0    0  503  504 -0.00000000000E+00 -0.00000000000E+00 -0.13136244716E+03  0.13136244716E+03  0.00000000000E+00 0. -1.
         25    2    1    2    0    0 -0.33375301717E+02  0.59251775202E+02  0.53188555189E+02  0.15191818760E+03  0.12500171875E+03 0.  0.
         25    2    1    2    0    0  0.33375301717E+02 -0.59251775202E+02 -0.20242506260E+02  0.14375275565E+03  0.12502164640E+03 0.  0.
          5    1    3    3  501    0  0.31597510341E+02  0.68061270835E+02  0.17805804212E+02  0.77264972084E+02  0.47000000000E+01 0. -1.
         -5    1    3    3    0  501 -0.64972812059E+02 -0.88094956325E+01  0.35382750977E+02  0.74653215516E+02  0.47000000000E+01 0. -1.
          5    1    4    4  502    0 -0.34149009021E+02 -0.62184546682E+02 -0.26123164065E+02  0.75746830719E+02  0.47000000000E+01 0.  1.
         -5    1    4    4    0  502  0.67524310739E+02  0.29327714797E+01  0.58806578048E+01  0.68005924930E+02  0.47000000000E+01 0.  1.
<mgrwt>
<rscale>  0 0.29382965E+03</rscale>
<asrwt>0</asrwt>
<pdfrwt beam="1">  1       21 0.25278230E-01 0.29382965E+03</pdfrwt>
<pdfrwt beam="2">  1       21 0.20209607E-01 0.29382965E+03</pdfrwt>
<totfact> 0.32822555E+05</totfact>
</mgrwt>
</event>
<event>
 8    1  0.9705063E-006  0.4344014E+03  0.7546771E-02  0.1032479E+00
         21   -1    0    0  504  503  0.00000000000E+00  0.00000000000E+00  0.63928271884E+03  0.63928271884E+03  0.00000000000E+00 0.  1.
         21   -1    0    0  503  504 -0.00000000000E+00 -0.00000000000E+00 -0.73795424469E+02  0.73795424469E+02  0.00000000000E+00 0.  1.
         25    2    1    2    0    0  0.11310084297E+03 -0.13084058493E+03  0.21623593555E+03  0.30379741393E+03  0.12499531809E+03 0.  0.
         25    2    1    2    0    0 -0.11310084297E+03  0.13084058493E+03  0.34925135882E+03  0.40928072938E+03  0.12499257760E+03 0.  0.
          5    1    3    3  501    0  0.13516436489E+03 -0.10558227713E+03  0.14392745341E+03  0.22395138897E+03  0.47000000000E+01 0. -1.
         -5    1    3    3    0  501 -0.22063521919E+02 -0.25258307805E+02  0.72308482141E+02  0.79846024961E+02  0.47000000000E+01 0. -1.
          5    1    4    4  502    0  0.70839981742E+01  0.45643401245E+02  0.24164825326E+02  0.52340537734E+02  0.47000000000E+01 0.  1.
         -5    1    4    4    0  502 -0.12018484114E+03  0.85197183686E+02  0.32508653350E+03  0.35694019164E+03  0.47000000000E+01 0.  1.
<mgrwt>
<rscale>  0 0.43440138E+03</rscale>
<asrwt>0</asrwt>
<pdfrwt beam="1">  1       21 0.98351184E-01 0.43440138E+03</pdfrwt>
<pdfrwt beam="2">  1       21 0.11353143E-01 0.43440138E+03</pdfrwt>
<totfact> 0.50928470E+04</totfact>
</mgrwt>
</event>
<event>
 8    1  0.9705063E-006  0.3666776E+03  0.7546771E-02  0.1055971E+00
         21   -1    0    0  504  503  0.00000000000E+00  0.00000000000E+00  0.11673238981E+04  0.11673238981E+04  0.00000000000E+00 0. -1.
         21   -1    0    0  503  504 -0.00000000000E+00 -0.00000000000E+00 -0.28795021655E+02  0.28795021655E+02  0.00000000000E+00 0. -1.
         25    2    1    2    0    0  0.10644858653E+03  0.79818437828E+02  0.51410222231E+03  0.54555291366E+03  0.12499840811E+03 0.  0.
         25    2    1    2    0    0 -0.10644858653E+03 -0.79818437828E+02  0.62442665412E+03  0.65056600607E+03  0.12500078919E+03 0.  0.
          5    1    3    3  501    0  0.32100379511E+02 -0.33615060863E+02  0.14083641948E+03  0.14838259242E+03  0.47000000000E+01 0.  1.
         -5    1    3    3    0  501  0.74348207019E+02  0.11343349869E+03  0.37326580283E+03  0.39717032124E+03  0.47000000000E+01 0.  1.
          5    1    4    4  502    0 -0.40482398143E+02 -0.14730248704E+01  0.39682085116E+02  0.56901249905E+02  0.47000000000E+01 0.  1.
         -5    1    4    4    0  502 -0.65966188388E+02 -0.78345412957E+02  0.58474456900E+03  0.59366475617E+03  0.47000000000E+01 0.  1.
<mgrwt>
<rscale>  0 0.36667761E+03</rscale>
<asrwt>0</asrwt>
<pdfrwt beam="1">  1       21 0.17958826E+00 0.36667761E+03</pdfrwt>
<pdfrwt beam="2">  1       21 0.44300042E-02 0.36667761E+03</pdfrwt>
<totfact> 0.55938763E+04</totfact>
</mgrwt>
</event>
<event>
 8    1  0.9705063E-006  0.2805299E+03  0.7546771E-02  0.1095400E+00
         21   -1    0    0  504  503  0.00000000000E+00  0.00000000000E+00  0.86275827679E+02  0.86275827679E+02  0.00000000000E+00 0. -1.
         21   -1    0    0  503  504 -0.00000000000E+00 -0.00000000000E+00 -0.22803895195E+03  0.22803895195E+03  0.00000000000E+00 0. -1.
         25    2    1    2    0    0 -0.54735238595E+02 -0.25337386467E+02 -0.48134350467E+02  0.14689454987E+03  0.12499265414E+03 0.  0.
         25    2    1    2    0    0  0.54735238595E+02  0.25337386467E+02 -0.93628773803E+02  0.16742022976E+03  0.12500102621E+03 0.  0.
          5    1    3    3  501    0  0.27465361824E+02 -0.21130608301E+02  0.19695079363E+02  0.40135207218E+02  0.47000000000E+01 0.  1.
         -5    1    3    3    0  501 -0.82200600419E+02 -0.42067781653E+01 -0.67829429829E+02  0.10675934265E+03  0.47000000000E+01 0.  1.
          5    1    4    4  502    0  0.23911115694E+02  0.50814022823E+02 -0.11028238954E+03  0.12384709045E+03  0.47000000000E+01 0.  1.
         -5    1    4    4    0  502  0.30824122902E+02 -0.25476636357E+02  0.16653615738E+02  0.43573139316E+02  0.47000000000E+01 0.  1.
<mgrwt>
<rscale>  0 0.28052985E+03</rscale>
<asrwt>0</asrwt>
<pdfrwt beam="1">  1       21 0.13273205E-01 0.28052985E+03</pdfrwt>
<pdfrwt beam="2">  1       21 0.35082915E-01 0.28052985E+03</pdfrwt>
<totfact> 0.37627511E+05</totfact>
</mgrwt>
</event>
<event>
 8    1  0.9705063E-006  0.2614777E+03  0.7546771E-02  0.1106259E+00
         21   -1    0    0  504  503  0.00000000000E+00  0.00000000000E+00  0.44327550102E+02  0.44327550102E+02  0.00000000000E+00 0.  1.
         21   -1    0    0  503  504 -0.00000000000E+00 -0.00000000000E+00 -0.38559861821E+03  0.38559861821E+03  0.00000000000E+00 0.  1.
         25    2    1    2    0    0 -0.10748207264E+02  0.11417135078E+02 -0.22808110146E+03  0.26056106376E+03  0.12500081667E+03 0.  0.
         25    2    1    2    0    0  0.10748207264E+02 -0.11417135078E+02 -0.11318996665E+03  0.16936510456E+03  0.12500678045E+03 0.  0.
          5    1    3    3  501    0 -0.99896256431E+01 -0.11158064777E+02  0.11759677845E+02  0.19613134708E+02  0.47000000000E+01 0.  1.
         -5    1    3    3    0  501 -0.75858162118E+00  0.22575199855E+02 -0.23984077931E+03  0.24094792905E+03  0.47000000000E+01 0.  1.
          5    1    4    4  502    0 -0.56448418305E+02 -0.13890571691E+02 -0.47118492805E+02  0.74977425104E+02  0.47000000000E+01 0. -1.
         -5    1    4    4    0  502  0.67196625569E+02  0.24734366122E+01 -0.66071473842E+02  0.94387679451E+02  0.47000000000E+01 0. -1.
<mgrwt>
<rscale>  0 0.26147766E+03</rscale>
<asrwt>0</asrwt>
<pdfrwt beam="1">  1       21 0.68196230E-02 0.26147766E+03</pdfrwt>
<pdfrwt beam="2">  1       21 0.59322865E-01 0.26147766E+03</pdfrwt>
<totfact> 0.41371596E+05</totfact>
</mgrwt>
</event>
<event>
 8    1  0.9705063E-006  0.3066303E+03  0.7546771E-02  0.1081972E+00
         21   -1    0    0  504  503  0.00000000000E+00  0.00000000000E+00  0.57038689499E+03  0.57038689499E+03  0.00000000000E+00 0.  1.
         21   -1    0    0  503  504 -0.00000000000E+00 -0.00000000000E+00 -0.41209808290E+02  0.41209808290E+02  0.00000000000E+00 0.  1.
         25    2    1    2    0    0  0.39510113484E+02  0.21408278792E+01  0.42308180831E+03  0.44293376969E+03  0.12500590224E+03 0.  0.
         25    2    1    2    0    0 -0.39510113484E+02 -0.21408278792E+01  0.10609527839E+03  0.16866293360E+03  0.12500137943E+03 0.  0.
          5    1    3    3  501    0  0.70196518310E+02 -0.35306676266E+02  0.20741294328E+03  0.22184754137E+03  0.47000000000E+01 0.  1.
         -5    1    3    3    0  501 -0.30686404826E+02  0.37447504145E+02  0.21566886503E+03  0.22108622832E+03  0.47000000000E+01 0.  1.
          5    1    4    4  502    0 -0.55799285948E+02  0.39461034802E+02  0.19691202046E+02  0.71278096341E+02  0.47000000000E+01 0. -1.
         -5    1    4    4    0  502  0.16289172464E+02 -0.41601862681E+02  0.86404076345E+02  0.97384837255E+02  0.47000000000E+01 0. -1.
<mgrwt>
<rscale>  0 0.30663030E+03</rscale>
<asrwt>0</asrwt>
<pdfrwt beam="1">  1       21 0.87751825E-01 0.30663030E+03</pdfrwt>
<pdfrwt beam="2">  1       21 0.63399709E-02 0.30663030E+03</pdfrwt>
<totfact> 0.19330293E+05</totfact>
</mgrwt>
</event>
<event>
 8    1  0.9705063E-006  0.3309891E+03  0.7546771E-02  0.1070700E+00
         21   -1    0    0  504  503  0.00000000000E+00  0.00000000000E+00  0.73522193402E+02  0.73522193402E+02  0.00000000000E+00 0. -1.
         21   -1    0    0  503  504 -0.00000000000E+00 -0.00000000000E+00 -0.37251946114E+03  0.37251946114E+03  0.00000000000E+00 0. -1.
         25    2    1    2    0    0 -0.85384186786E+02  0.48888373607E+02 -0.21099001080E+03  0.26424049396E+03  0.12500288622E+03 0.  0.
         25    2    1    2    0    0  0.85384186786E+02 -0.48888373607E+02 -0.88007256937E+02  0.18180116058E+03  0.12500340911E+03 0.  0.
          5    1    3    3  501    0  0.24894223438E+02  0.26425867169E+02 -0.18025055097E+02  0.40804919157E+02  0.47000000000E+01 0. -1.
         -5    1    3    3    0  501 -0.11027841022E+03  0.22462506439E+02 -0.19296495571E+03  0.22343557480E+03  0.47000000000E+01 0. -1.
          5    1    4    4  502    0  0.10960401369E+03 -0.65051355039E+01 -0.57283600044E+02  0.12393085749E+03  0.47000000000E+01 0. -1.
         -5    1    4    4    0  502 -0.24219826901E+02 -0.42383238103E+02 -0.30723656893E+02  0.57870303093E+02  0.47000000000E+01 0. -1.
<mgrwt>
<rscale>  0 0.33098911E+03</rscale>
<asrwt>0</asrwt>
<pdfrwt beam="1">  1       21 0.11311107E-01 0.33098911E+03</pdfrwt>
<pdfrwt beam="2">  1       21 0.57310686E-01 0.33098911E+03</pdfrwt>
<totfact> 0.17954014E+05</totfact>
</mgrwt>
</event>
<event>
 8    1  0.9705063E-006  0.3314645E+03  0.7546771E-02  0.1070491E+00
         21   -1    0    0  504  503  0.00000000000E+00  0.00000000000E+00  0.11353248991E+04  0.11353248991E+04  0.00000000000E+00 0. -1.
         21   -1    0    0  503  504 -0.00000000000E+00 -0.00000000000E+00 -0.24193230170E+02  0.24193230170E+02  0.00000000000E+00 0. -1.
         25    2    1    2    0    0 -0.44388586900E+02 -0.86329106630E+02  0.38356756800E+03  0.41493910509E+03  0.12500928131E+03 0.  0.
         25    2    1    2    0    0  0.44388586900E+02  0.86329106630E+02  0.72756410088E+03  0.74457902413E+03  0.12500136394E+03 0.  0.
          5    1    3    3  501    0 -0.57573541567E+02  0.31506140282E+01  0.84101737918E+02  0.10207757530E+03  0.47000000000E+01 0. -1.
         -5    1    3    3    0  501  0.13184954667E+02 -0.89479720658E+02  0.29946583008E+03  0.31286152980E+03  0.47000000000E+01 0. -1.
          5    1    4    4  502    0  0.95507319213E+01  0.50439505582E+01  0.50364652368E+03  0.50378424819E+03  0.47000000000E+01 0. -1.
         -5    1    4    4    0  502  0.34837854979E+02  0.81285156071E+02  0.22391757720E+03  0.24079477594E+03  0.47000000000E+01 0. -1.
<mgrwt>
<rscale>  0 0.33146449E+03</rscale>
<asrwt>0</asrwt>
<pdfrwt beam="1">  1       21 0.17466533E+00 0.33146449E+03</pdfrwt>
<pdfrwt beam="2">  1       21 0.37220363E-02 0.33146449E+03</pdfrwt>
<totfact> 0.82402904E+04</totfact>
</mgrwt>
</event>
<event>
 8    1  0.9705063E-006  0.7229327E+03  0.7546771E-02  0.9678799E-01
         21   -1    0    0  504  503  0.00000000000E+00  0.00000000000E+00  0.28423328143E+03  0.28423328143E+03  0.00000000000E+00 0.  1.
         21   -1    0    0  503  504 -0.00000000000E+00 -0.00000000000E+00 -0.45968549493E+03  0.45968549493E+03  0.00000000000E+00 0.  1.
         25    2    1    2    0    0 -0.18651757728E+03 -0.28141399679E+03 -0.54371024197E+02  0.36409230845E+03  0.12499742628E+03 0.  0.
         25    2    1    2    0    0  0.18651757728E+03  0.28141399679E+03 -0.12108118930E+03  0.37982646791E+03  0.12499938839E+03 0.  0.
          5    1    3    3  501    0 -0.59139640589E+02 -0.13434794370E+02  0.64665402535E+01  0.61171046514E+02  0.47000000000E+01 0.  1.
         -5    1    3    3    0  501 -0.12737793669E+03 -0.26797920242E+03 -0.60837564451E+02  0.30292126194E+03  0.47000000000E+01 0.  1.
          5    1    4    4  502    0  0.28984863857E+02  0.28094049988E+02  0.24922306349E+02  0.47671892466E+02  0.47000000000E+01 0.  1.
         -5    1    4    4    0  502  0.15753271342E+03  0.25331994681E+03 -0.14600349565E+03  0.33215457545E+03  0.47000000000E+01 0.  1.
<mgrwt>
<rscale>  0 0.72293268E+03</rscale>
<asrwt>0</asrwt>
<pdfrwt beam="1">  1       21 0.43728198E-01 0.72293268E+03</pdfrwt>
<pdfrwt beam="2">  1       21 0.70720844E-01 0.72293268E+03</pdfrwt>
<totfact> 0.75839386E+03</totfact>
</mgrwt>
</event>
<event>
 8    1  0.9705063E-006  0.2804936E+03  0.7546771E-02  0.1095420E+00
         21   -1    0    0  504  503  0.00000000000E+00  0.00000000000E+00  0.24488632193E+03  0.24488632193E+03  0.00000000000E+00 0. -1.
         21   -1    0    0  503  504 -0.00000000000E+00 -0.00000000000E+00 -0.80319596441E+02  0.80319596441E+02  0.00000000000E+00 0. -1.
         25    2    1    2    0    0  0.29818584587E+02 -0.51037203720E+02  0.10954212011E+03  0.17638978689E+03  0.12497974512E+03 0.  0.
         25    2    1    2    0    0 -0.29818584587E+02  0.51037203720E+02  0.55024605379E+02  0.14881613148E+03  0.12499835855E+03 0.  0.
          5    1    3    3  501    0 -0.99091720060E+00  0.40725937073E+02  0.27078273789E+02  0.49141701016E+02  0.47000000000E+01 0.  1.
         -5    1    3    3    0  501  0.30809501788E+02 -0.91763140793E+02  0.82463846318E+02  0.12724808587E+03  0.47000000000E+01 0.  1.
          5    1    4    4  502    0 -0.11868515322E+02 -0.38110261592E+02 -0.38617395115E+01  0.40376437765E+02  0.47000000000E+01 0. -1.
         -5    1    4    4    0  502 -0.17950069265E+02  0.89147465313E+02  0.58886344891E+02  0.10843969371E+03  0.47000000000E+01 0. -1.
<mgrwt>
<rscale>  0 0.28049364E+03</rscale>
<asrwt>0</asrwt>
<pdfrwt beam="1">  1       21 0.37674818E-01 0.28049364E+03</pdfrwt>
<pdfrwt beam="2">  1       21 0.12356861E-01 0.28049364E+03</pdfrwt>
<totfact> 0.37115592E+05</totfact>
</mgrwt>
</event>
<event>
 8    1  0.9705063E-006  0.2609849E+03  0.7546771E-02  0.1106553E+00
         21   -1    0    0  504  503  0.00000000000E+00  0.00000000000E+00  0.66572378922E+02  0.66572378922E+02  0.00000000000E+00 0.  1.
         21   -1    0    0  503  504 -0.00000000000E+00 -0.00000000000E+00 -0.25578598263E+03  0.25578598263E+03  0.00000000000E+00 0.  1.
         25    2    1    2    0    0  0.13363344765E+02 -0.23546048802E+02 -0.12660416863E+03  0.17995965575E+03  0.12499546707E+03 0.  0.
         25    2    1    2    0    0 -0.13363344765E+02  0.23546048802E+02 -0.62609435078E+02  0.14239870579E+03  0.12499781860E+03 0.  0.
          5    1    3    3  501    0 -0.54291905304E+02 -0.12677047376E+02 -0.37073587895E+02  0.67118249613E+02  0.47000000000E+01 0.  1.
         -5    1    3    3    0  501  0.67655250069E+02 -0.10869001426E+02 -0.89530580731E+02  0.11284140614E+03  0.47000000000E+01 0.  1.
          5    1    4    4  502    0 -0.12662095495E+02 -0.31100099649E+01  0.36823364183E+02  0.39345278930E+02  0.47000000000E+01 0. -1.
         -5    1    4    4    0  502 -0.70124926966E+00  0.26656058767E+02 -0.99432799261E+02  0.10305342686E+03  0.47000000000E+01 0. -1.
<mgrwt>
<rscale>  0 0.26098491E+03</rscale>
<asrwt>0</asrwt>
<pdfrwt beam="1">  1       21 0.10241905E-01 0.26098491E+03</pdfrwt>
<pdfrwt beam="2">  1       21 0.39351689E-01 0.26098491E+03</pdfrwt>
<totfact> 0.47766495E+05</totfact>
</mgrwt>
</event>
<event>
 8    1  0.9705063E-006  0.3452891E+03  0.7546771E-02  0.1064565E+00
         21   -1    0    0  504  503  0.00000000000E+00  0.00000000000E+00  0.18071433805E+03  0.18071433805E+03  0.00000000000E+00 0.  1.
         21   -1    0    0  503  504 -0.00000000000E+00 -0.00000000000E+00 -0.16493511818E+03  0.16493511818E+03  0.00000000000E+00 0.  1.
         25    2    1    2    0    0  0.95791397609E+02 -0.82318364957E+01  0.78230140410E+02  0.17603767854E+03  0.12500221761E+03 0.  0.
         25    2    1    2    0    0 -0.95791397609E+02  0.82318364957E+01 -0.62450920541E+02  0.16961177770E+03  0.12499713064E+03 0.  0.
          5    1    3    3  501    0  0.33685948080E+02 -0.59508637311E+02  0.78742551746E+01  0.68993585986E+02  0.47000000000E+01 0. -1.
         -5    1    3    3    0  501  0.62105449529E+02  0.51276800815E+02  0.70355885235E+02  0.10704409255E+03  0.47000000000E+01 0. -1.
          5    1    4    4  502    0 -0.93986233452E+02 -0.30068377601E+02 -0.80059659795E+02  0.12715800618E+03  0.47000000000E+01 0.  1.
         -5    1    4    4    0  502 -0.18051641568E+01  0.38300214097E+02  0.17608739254E+02  0.42453771513E+02  0.47000000000E+01 0.  1.
<mgrwt>
<rscale>  0 0.34528910E+03</rscale>
<asrwt>0</asrwt>
<pdfrwt beam="1">  1       21 0.27802206E-01 0.34528910E+03</pdfrwt>
<pdfrwt beam="2">  1       21 0.25374633E-01 0.34528910E+03</pdfrwt>
<totfact> 0.17473751E+05</totfact>
</mgrwt>
</event>
<event>
 8    1  0.9705063E-006  0.3196580E+03  0.7546771E-02  0.1075807E+00
         21   -1    0    0  504  503  0.00000000000E+00  0.00000000000E+00  0.87369275659E+02  0.87369275659E+02  0.00000000000E+00 0. -1.
         21   -1    0    0  503  504 -0.00000000000E+00 -0.00000000000E+00 -0.29238317893E+03  0.29238317893E+03  0.00000000000E+00 0. -1.
         25    2    1    2    0    0 -0.90569367706E+02 -0.89241859566E+01 -0.15057547173E+03  0.21583010246E+03  0.12500883561E+03 0.  0.
         25    2    1    2    0    0  0.90569367706E+02  0.89241859566E+01 -0.54438431544E+02  0.16392235213E+03  0.12499817293E+03 0.  0.
          5    1    3    3  501    0 -0.67631381685E+02  0.94251679171E+00 -0.49246568294E+01  0.67979661454E+02  0.47000000000E+01 0. -1.
         -5    1    3    3    0  501 -0.22937986021E+02 -0.98667027483E+01 -0.14565081490E+03  0.14785044101E+03  0.47000000000E+01 0. -1.
          5    1    4    4  502    0  0.89427796308E+02  0.45586616047E+02 -0.29498371497E+01  0.10052990527E+03  0.47000000000E+01 0. -1.
         -5    1    4    4    0  502  0.11415713976E+01 -0.36662430091E+02 -0.51488594395E+02  0.63392446854E+02  0.47000000000E+01 0. -1.
<mgrwt>
<rscale>  0 0.31965798E+03</rscale>
<asrwt>0</asrwt>
<pdfrwt beam="1">  1       21 0.13441427E-01 0.31965798E+03</pdfrwt>
<pdfrwt beam="2">  1       21 0.44982028E-01 0.31965798E+03</pdfrwt>
<totfact> 0.21977155E+05</totfact>
</mgrwt>
</event>
<event>
 8    1  0.9705063E-006  0.3140413E+03  0.7546771E-02  0.1078425E+00
         21   -1    0    0  504  503  0.00000000000E+00  0.00000000000E+00  0.16805598837E+04  0.16805598837E+04  0.00000000000E+00 0. -1.
         21   -1    0    0  503  504 -0.00000000000E+00 -0.00000000000E+00 -0.14670992890E+02  0.14670992890E+02  0.00000000000E+00 0. -1.
         25    2    1    2    0    0 -0.85080693642E+02 -0.11383528252E+02  0.61293915878E+03  0.63141712113E+03  0.12499943737E+03 0.  0.
         25    2    1    2    0    0  0.85080693642E+02  0.11383528252E+02  0.10529497320E+04  0.10638137555E+04  0.12501303525E+03 0.  0.
          5    1    3    3  501    0 -0.39820001058E+02  0.85020692239E+01  0.43320308962E+02  0.59637713185E+02  0.47000000000E+01 0. -1.
         -5    1    3    3    0  501 -0.45260692584E+02 -0.19885597476E+02  0.56961884982E+03  0.57177940794E+03  0.47000000000E+01 0. -1.
          5    1    4    4  502    0  0.10588154432E+03  0.29164208848E+02  0.59812352414E+03  0.60814084934E+03  0.47000000000E+01 0. -1.
         -5    1    4    4    0  502 -0.20800850676E+02 -0.17780680597E+02  0.45482620790E+03  0.45567290614E+03  0.47000000000E+01 0. -1.
<mgrwt>
<rscale>  0 0.31404128E+03</rscale>
<asrwt>0</asrwt>
<pdfrwt beam="1">  1       21 0.25854752E+00 0.31404128E+03</pdfrwt>
<pdfrwt beam="2">  1       21 0.22570772E-02 0.31404128E+03</pdfrwt>
<totfact> 0.55546300E+04</totfact>
</mgrwt>
</event>
<event>
 8    1  0.9705063E-006  0.4187908E+03  0.7546771E-02  0.1037461E+00
         21   -1    0    0  504  503  0.00000000000E+00  0.00000000000E+00  0.53461635072E+03  0.53461635072E+03  0.00000000000E+00 0.  1.
         21   -1    0    0  503  504 -0.00000000000E+00 -0.00000000000E+00 -0.82014777458E+02  0.82014777458E+02  0.00000000000E+00 0.  1.
         25    2    1    2    0    0  0.33795892950E+02 -0.16384086770E+03  0.20375509748E+03  0.29176844302E+03  0.12500676895E+03 0.  0.
         25    2    1    2    0    0 -0.33795892950E+02  0.16384086770E+03  0.24884647578E+03  0.32486268516E+03  0.12500081356E+03 0.  0.
          5    1    3    3  501    0  0.35512964245E+02 -0.16680553206E+03  0.12184237426E+03  0.20964949397E+03  0.47000000000E+01 0.  1.
         -5    1    3    3    0  501 -0.17170712953E+01  0.29646643570E+01  0.81912723222E+02  0.82118949057E+02  0.47000000000E+01 0.  1.
          5    1    4    4  502    0 -0.39532187275E+02  0.11426772474E+02  0.11375991882E+03  0.12106516464E+03  0.47000000000E+01 0.  1.
         -5    1    4    4    0  502  0.57362943253E+01  0.15241409523E+03  0.13508655696E+03  0.20379752051E+03  0.47000000000E+01 0.  1.
<mgrwt>
<rscale>  0 0.41879084E+03</rscale>
<asrwt>0</asrwt>
<pdfrwt beam="1">  1       21 0.82248667E-01 0.41879084E+03</pdfrwt>
<pdfrwt beam="2">  1       21 0.12617658E-01 0.41879084E+03</pdfrwt>
<totfact> 0.64378002E+04</totfact>
</mgrwt>
</event>
<event>
 8    1  0.9705063E-006  0.2826575E+03  0.7546771E-02  0.1094246E+00
         21   -1    0    0  504  503  0.00000000000E+00  0.00000000000E+00  0.10185652064E+03  0.10185652064E+03  0.00000000000E+00 0.  1.
         21   -1    0    0  503  504 -0.00000000000E+00 -0.00000000000E+00 -0.19609757169E+03  0.19609757169E+03  0.00000000000E+00 0.  1.
         25    2    1    2    0    0  0.52651777505E+02 -0.17423573616E+02 -0.84603454175E+02  0.16080648531E+03  0.12500076266E+03 0.  0.
         25    2    1    2    0    0 -0.52651777505E+02  0.17423573616E+02 -0.96375968780E+01  0.13714760702E+03  0.12506315303E+03 0.  0.
          5    1    3    3  501    0  0.52088463254E+02  0.10582516947E+02  0.16449314186E+02  0.55837868926E+02  0.47000000000E+01 0. -1.
         -5    1    3    3    0  501  0.56331425177E+00 -0.28006090564E+02 -0.10105276836E+03  0.10496861638E+03  0.47000000000E+01 0. -1.
          5    1    4    4  502    0  0.45779109058E+01 -0.37791986488E+02 -0.36628452251E+02  0.53037015614E+02  0.47000000000E+01 0. -1.
         -5    1    4    4    0  502 -0.57229688411E+02  0.55215560104E+02  0.26990855373E+02  0.84110591408E+02  0.47000000000E+01 0. -1.
<mgrwt>
<rscale>  0 0.28265751E+03</rscale>
<asrwt>0</asrwt>
<pdfrwt beam="1">  1       21 0.15670234E-01 0.28265751E+03</pdfrwt>
<pdfrwt beam="2">  1       21 0.30168856E-01 0.28265751E+03</pdfrwt>
<totfact> 0.37448004E+05</totfact>
</mgrwt>
</event>
<event>
 8    1  0.9705063E-006  0.3582554E+03  0.7546771E-02  0.1059277E+00
         21   -1    0    0  504  503  0.00000000000E+00  0.00000000000E+00  0.35296091579E+02  0.35296091579E+02  0.00000000000E+00 0. -1.
         21   -1    0    0  503  504 -0.00000000000E+00 -0.00000000000E+00 -0.90907309486E+03  0.90907309486E+03  0.00000000000E+00 0. -1.
         25    2    1    2    0    0 -0.10344885061E+02 -0.11154221648E+03 -0.27192900961E+03  0.31955626725E+03  0.12498855534E+03 0.  0.
         25    2    1    2    0    0  0.10344885061E+02  0.11154221648E+03 -0.60184799367E+03  0.62481291920E+03  0.12498597441E+03 0.  0.
          5    1    3    3  501    0 -0.20036731719E+02 -0.85759334323E+02 -0.62073627505E+02  0.10784877966E+03  0.47000000000E+01 0.  1.
         -5    1    3    3    0  501  0.96918466573E+01 -0.25782882158E+02 -0.20985538210E+03  0.21170748759E+03  0.47000000000E+01 0.  1.
          5    1    4    4  502    0  0.55414736173E+02  0.46381725621E+02 -0.42287647121E+03  0.42903223348E+03  0.47000000000E+01 0. -1.
         -5    1    4    4    0  502 -0.45069851112E+02  0.65160490860E+02 -0.17897152246E+03  0.19578068572E+03  0.47000000000E+01 0. -1.
<mgrwt>
<rscale>  0 0.35825537E+03</rscale>
<asrwt>0</asrwt>
<pdfrwt beam="1">  1       21 0.54301675E-02 0.35825537E+03</pdfrwt>
<pdfrwt beam="2">  1       21 0.13985741E+00 0.35825537E+03</pdfrwt>
<totfact> 0.78775632E+04</totfact>
</mgrwt>
</event>
<event>
 8    1  0.9705063E-006  0.4302496E+03  0.7546771E-02  0.1033781E+00
         21   -1    0    0  504  503  0.00000000000E+00  0.00000000000E+00  0.47543089899E+03  0.47543089899E+03  0.00000000000E+00 0. -1.
         21   -1    0    0  503  504 -0.00000000000E+00 -0.00000000000E+00 -0.97340514959E+02  0.97340514959E+02  0.00000000000E+00 0. -1.
         25    2    1    2    0    0  0.47727647584E+02  0.36654079280E+02 -0.29831562193E+02  0.14190406944E+03  0.12500157178E+03 0.  0.
         25    2    1    2    0    0 -0.47727647584E+02 -0.36654079280E+02  0.40792194622E+03  0.43086734451E+03  0.12499961794E+03 0.  0.
          5    1    3    3  501    0  0.60993370334E+01 -0.43172258116E+02 -0.27420456595E+02  0.51720568664E+02  0.47000000000E+01 0. -1.
         -5    1    3    3    0  501  0.41628310550E+02  0.79826337396E+02 -0.24111055977E+01  0.90183500772E+02  0.47000000000E+01 0. -1.
          5    1    4    4  502    0 -0.12104501275E+02 -0.80780556483E+02  0.24287855519E+03  0.25628909425E+03  0.47000000000E+01 0. -1.
         -5    1    4    4    0  502 -0.35623146309E+02  0.44126477203E+02  0.16504339103E+03  0.17457825027E+03  0.47000000000E+01 0. -1.
<mgrwt>
<rscale>  0 0.43024964E+03</rscale>
<asrwt>0</asrwt>
<pdfrwt beam="1">  1       21 0.73143214E-01 0.43024964E+03</pdfrwt>
<pdfrwt beam="2">  1       21 0.14975464E-01 0.43024964E+03</pdfrwt>
<totfact> 0.61315530E+04</totfact>
</mgrwt>
</event>
<event>
 8    1  0.9705063E-006  0.3114593E+03  0.7546771E-02  0.1079648E+00
         21   -1    0    0  504  503  0.00000000000E+00  0.00000000000E+00  0.17620703167E+02  0.17620703167E+02  0.00000000000E+00 0.  1.
         21   -1    0    0  503  504 -0.00000000000E+00 -0.00000000000E+00 -0.13763202210E+04  0.13763202210E+04  0.00000000000E+00 0.  1.
         25    2    1    2    0    0 -0.33623348709E+02  0.84060320912E+02 -0.58636491603E+03  0.60633625018E+03  0.12499266538E+03 0.  0.
         25    2    1    2    0    0  0.33623348709E+02 -0.84060320912E+02 -0.77233460181E+03  0.78760467399E+03  0.12499487277E+03 0.  0.
          5    1    3    3  501    0 -0.80324999215E+02  0.59514960499E+02 -0.41914794592E+03  0.43093065172E+03  0.47000000000E+01 0.  1.
         -5    1    3    3    0  501  0.46701650506E+02  0.24545360413E+02 -0.16721697012E+03  0.17540559847E+03  0.47000000000E+01 0.  1.
          5    1    4    4  502    0 -0.44613420132E+02 -0.47422837715E+02 -0.26341030425E+03  0.27137863066E+03  0.47000000000E+01 0.  1.
         -5    1    4    4    0  502  0.78236768841E+02 -0.36637483197E+02 -0.50892429756E+03  0.51622604334E+03  0.47000000000E+01 0.  1.
<mgrwt>
<rscale>  0 0.31145934E+03</rscale>
<asrwt>0</asrwt>
<pdfrwt beam="1">  1       21 0.27108766E-02 0.31145934E+03</pdfrwt>
<pdfrwt beam="2">  1       21 0.21174164E+00 0.31145934E+03</pdfrwt>
<totfact> 0.79692752E+04</totfact>
</mgrwt>
</event>
<event>
 8    1  0.9705063E-006  0.3075074E+03  0.7546771E-02  0.1081547E+00
         21   -1    0    0  504  503  0.00000000000E+00  0.00000000000E+00  0.17956224300E+03  0.17956224300E+03  0.00000000000E+00 0.  1.
         21   -1    0    0  503  504 -0.00000000000E+00 -0.00000000000E+00 -0.13165465811E+03  0.13165465811E+03  0.00000000000E+00 0.  1.
         25    2    1    2    0    0  0.46529197121E+02  0.76470957010E+02  0.25681927874E+02  0.15587522500E+03  0.12499900359E+03 0.  0.
         25    2    1    2    0    0 -0.46529197121E+02 -0.76470957010E+02  0.22225657019E+02  0.15534167610E+03  0.12499713218E+03 0.  0.
          5    1    3    3  501    0  0.15677749907E+02  0.10525845549E+03  0.35526777576E+02  0.11229147884E+03  0.47000000000E+01 0. -1.
         -5    1    3    3    0  501  0.30851447214E+02 -0.28787498481E+02 -0.98448497020E+01  0.43583746164E+02  0.47000000000E+01 0. -1.
          5    1    4    4  502    0 -0.77293521465E+02 -0.68253957320E+02 -0.16985719335E+02  0.10461116485E+03  0.47000000000E+01 0.  1.
         -5    1    4    4    0  502  0.30764324344E+02 -0.82169996892E+01  0.39211376354E+02  0.50730511251E+02  0.47000000000E+01 0.  1.
<mgrwt>
<rscale>  0 0.30750744E+03</rscale>
<asrwt>0</asrwt>
<pdfrwt beam="1">  1       21 0.27624960E-01 0.30750744E+03</pdfrwt>
<pdfrwt beam="2">  1       21 0.20254563E-01 0.30750744E+03</pdfrwt>
<totfact> 0.27440227E+05</totfact>
</mgrwt>
</event>
<event>
 8    1  0.9705063E-006  0.3250993E+03  0.7546771E-02  0.1073326E+00
         21   -1    0    0  504  503  0.00000000000E+00  0.00000000000E+00  0.45396041774E+03  0.45396041774E+03  0.00000000000E+00 0. -1.
         21   -1    0    0  503  504 -0.00000000000E+00 -0.00000000000E+00 -0.58204174850E+02  0.58204174850E+02  0.00000000000E+00 0. -1.
         25    2    1    2    0    0 -0.31594729311E+02  0.67439906221E+02  0.83717556610E+02  0.16786958990E+03  0.12500080823E+03 0.  0.
         25    2    1    2    0    0  0.31594729311E+02 -0.67439906221E+02  0.31203868628E+03  0.34429500269E+03  0.12499815705E+03 0.  0.
          5    1    3    3  501    0 -0.51779996221E+02  0.20164203282E+02  0.99353747976E+02  0.11393428079E+03  0.47000000000E+01 0.  1.
         -5    1    3    3    0  501  0.20185266910E+02  0.47275702940E+02 -0.15636191367E+02  0.53935309113E+02  0.47000000000E+01 0.  1.
          5    1    4    4  502    0 -0.21142413774E+01 -0.98971628967E+02  0.21240470635E+03  0.23438793193E+03  0.47000000000E+01 0.  1.
         -5    1    4    4    0  502  0.33708970688E+02  0.31531722745E+02  0.99633979938E+02  0.10990707076E+03  0.47000000000E+01 0.  1.
<mgrwt>
<rscale>  0 0.32509932E+03</rscale>
<asrwt>0</asrwt>
<pdfrwt beam="1">  1       21 0.69840062E-01 0.32509932E+03</pdfrwt>
<pdfrwt beam="2">  1       21 0.89544887E-02 0.32509932E+03</pdfrwt>
<totfact> 0.17685614E+05</totfact>
</mgrwt>
</event>
<event>
 8    1  0.9705063E-006  0.2794317E+03  0.7546771E-02  0.1096000E+00
         21   -1    0    0  504  503  0.00000000000E+00  0.00000000000E+00  0.78536766734E+02  0.78536766734E+02  0.00000000000E+00 0. -1.
         21   -1    0    0  503  504 -0.00000000000E+00 -0.00000000000E+00 -0.24855269982E+03  0.24855269982E+03  0.00000000000E+00 0. -1.
         25    2    1    2    0    0 -0.51363208799E+02  0.34134850179E+02 -0.73713662258E+02  0.15767318183E+03  0.12499504410E+03 0.  0.
         25    2    1    2    0    0  0.51363208799E+02 -0.34134850179E+02 -0.96302270831E+02  0.16941628473E+03  0.12499753177E+03 0.  0.
          5    1    3    3  501    0 -0.12342361682E+02  0.10417059753E+02  0.35456647685E+02  0.39244272077E+02  0.47000000000E+01 0.  1.
         -5    1    3    3    0  501 -0.39020847116E+02  0.23717790426E+02 -0.10917030994E+03  0.11842890975E+03  0.47000000000E+01 0.  1.
          5    1    4    4  502    0  0.88934466146E+02 -0.24599131824E+02 -0.91571876798E+02  0.13008441557E+03  0.47000000000E+01 0. -1.
         -5    1    4    4    0  502 -0.37571257347E+02 -0.95357183553E+01 -0.47303940332E+01  0.39331869151E+02  0.47000000000E+01 0. -1.
<mgrwt>
<rscale>  0 0.27943175E+03</rscale>
<asrwt>0</asrwt>
<pdfrwt beam="1">  1       21 0.12082580E-01 0.27943175E+03</pdfrwt>
<pdfrwt beam="2">  1       21 0.38238876E-01 0.27943175E+03</pdfrwt>
<totfact> 0.37514277E+05</totfact>
</mgrwt>
</event>
<event>
 8    1  0.9705063E-006  0.8107818E+03  0.7546771E-02  0.9544541E-01
         21   -1    0    0  504  503  0.00000000000E+00  0.00000000000E+00  0.36955696602E+03  0.36955696602E+03  0.00000000000E+00 0.  1.
         21   -1    0    0  503  504 -0.00000000000E+00 -0.00000000000E+00 -0.44469941963E+03  0.44469941963E+03  0.00000000000E+00 0.  1.
         25    2    1    2    0    0 -0.24769989384E+03  0.29096326394E+03 -0.89776318344E+02  0.41194578630E+03  0.12499874059E+03 0.  0.
         25    2    1    2    0    0  0.24769989384E+03 -0.29096326394E+03  0.14633864739E+02  0.40231059935E+03  0.12499923993E+03 0.  0.
          5    1    3    3  501    0 -0.97678688971E+02  0.12750706133E+03  0.24151042354E+02  0.16249473781E+03  0.47000000000E+01 0.  1.
         -5    1    3    3    0  501 -0.15002120487E+03  0.16345620261E+03 -0.11392736070E+03  0.24945104850E+03  0.47000000000E+01 0.  1.
          5    1    4    4  502    0  0.18698589741E+03 -0.28490044187E+03  0.14279687571E+02  0.34111286561E+03  0.47000000000E+01 0.  1.
         -5    1    4    4    0  502  0.60713996426E+02 -0.60628220690E+01  0.35417716728E+00  0.61197733740E+02  0.47000000000E+01 0.  1.
<mgrwt>
<rscale>  0 0.81078177E+03</rscale>
<asrwt>0</asrwt>
<pdfrwt beam="1">  1       21 0.56854918E-01 0.81078177E+03</pdfrwt>
<pdfrwt beam="2">  1       21 0.68415295E-01 0.81078177E+03</pdfrwt>
<totfact> 0.45769962E+03</totfact>
</mgrwt>
</event>
<event>
 8    1  0.9705063E-006  0.8372147E+03  0.7546771E-02  0.9507659E-01
         21   -1    0    0  504  503  0.00000000000E+00  0.00000000000E+00  0.28757975757E+03  0.28757975757E+03  0.00000000000E+00 0.  1.
         21   -1    0    0  503  504 -0.00000000000E+00 -0.00000000000E+00 -0.60933397914E+03  0.60933397914E+03  0.00000000000E+00 0.  1.
         25    2    1    2    0    0 -0.25090842342E+03 -0.28739527769E+03 -0.33859420891E+02  0.40288886157E+03  0.12498756663E+03 0.  0.
         25    2    1    2    0    0  0.25090842342E+03  0.28739527769E+03 -0.28789480068E+03  0.49402487514E+03  0.12500431360E+03 0.  0.
          5    1    3    3  501    0 -0.97529334350E+02 -0.88162637376E+02  0.45477068423E+02  0.13919366164E+03  0.47000000000E+01 0. -1.
         -5    1    3    3    0  501 -0.15337908907E+03 -0.19923264031E+03 -0.79336489313E+02  0.26369519993E+03  0.47000000000E+01 0. -1.
          5    1    4    4  502    0  0.25569189797E+03  0.28204693043E+03 -0.29597820241E+03  0.48223853429E+03  0.47000000000E+01 0.  1.
         -5    1    4    4    0  502 -0.47834745554E+01  0.53483472578E+01  0.80834017252E+01  0.11786340851E+02  0.47000000000E+01 0.  1.
<mgrwt>
<rscale>  0 0.83721471E+03</rscale>
<asrwt>0</asrwt>
<pdfrwt beam="1">  1       21 0.44243040E-01 0.83721471E+03</pdfrwt>
<pdfrwt beam="2">  1       21 0.93743689E-01 0.83721471E+03</pdfrwt>
<totfact> 0.37370746E+03</totfact>
</mgrwt>
</event>
<event>
 8    1  0.9705063E-006  0.2791561E+03  0.7546771E-02  0.1096151E+00
         21   -1    0    0  504  503  0.00000000000E+00  0.00000000000E+00  0.13745400874E+03  0.13745400874E+03  0.00000000000E+00 0. -1.
         21   -1    0    0  503  504 -0.00000000000E+00 -0.00000000000E+00 -0.14173488765E+03  0.14173488765E+03  0.00000000000E+00 0. -1.
         25    2    1    2    0    0 -0.26347120376E+01 -0.31524841920E+02  0.51316097533E+02  0.13877170782E+03  0.12499395049E+03 0.  0.
         25    2    1    2    0    0  0.26347120376E+01  0.31524841920E+02 -0.55596976445E+02  0.14041718857E+03  0.12500082276E+03 0.  0.
          5    1    3    3  501    0 -0.40080262607E+02  0.34274919497E+02  0.24224527174E+02  0.58224696427E+02  0.47000000000E+01 0.  1.
         -5    1    3    3    0  501  0.37445550570E+02 -0.65799761418E+02  0.27091570359E+02  0.80547011394E+02  0.47000000000E+01 0.  1.
          5    1    4    4  502    0 -0.36658721305E+02  0.66114881881E+02 -0.39634123558E+02  0.85486801344E+02  0.47000000000E+01 0.  1.
         -5    1    4    4    0  502  0.39293433343E+02 -0.34590039960E+02 -0.15962852887E+02  0.54930387224E+02  0.47000000000E+01 0.  1.
<mgrwt>
<rscale>  0 0.27915607E+03</rscale>
<asrwt>0</asrwt>
<pdfrwt beam="1">  1       21 0.21146771E-01 0.27915607E+03</pdfrwt>
<pdfrwt beam="2">  1       21 0.21805367E-01 0.27915607E+03</pdfrwt>
<totfact> 0.40088938E+05</totfact>
</mgrwt>
</event>
<event>
 8    1  0.9705063E-006  0.3336992E+03  0.7546771E-02  0.1069512E+00
         21   -1    0    0  504  503  0.00000000000E+00  0.00000000000E+00  0.26465337789E+02  0.26465337789E+02  0.00000000000E+00 0. -1.
         21   -1    0    0  503  504 -0.00000000000E+00 -0.00000000000E+00 -0.10518959984E+04  0.10518959984E+04  0.00000000000E+00 0. -1.
         25    2    1    2    0    0  0.60049280263E+02  0.42334346154E+02 -0.24591420374E+03  0.28547651843E+03  0.12499973619E+03 0.  0.
         25    2    1    2    0    0 -0.60049280263E+02 -0.42334346154E+02 -0.77951645683E+03  0.79288481772E+03  0.12498925864E+03 0.  0.
          5    1    3    3  501    0 -0.92916700069E+01  0.69549514573E+02 -0.11639859488E+03  0.13599335645E+03  0.47000000000E+01 0.  1.
         -5    1    3    3    0  501  0.69340950270E+02 -0.27215168419E+02 -0.12951560886E+03  0.14948316198E+03  0.47000000000E+01 0.  1.
          5    1    4    4  502    0 -0.71456550329E+02 -0.47211358725E+02 -0.27218534819E+03  0.28538028094E+03  0.47000000000E+01 0. -1.
         -5    1    4    4    0  502  0.11407270066E+02  0.48770125709E+01 -0.50733110864E+03  0.50750453678E+03  0.47000000000E+01 0. -1.
<mgrwt>
<rscale>  0 0.33369916E+03</rscale>
<asrwt>0</asrwt>
<pdfrwt beam="1">  1       21 0.40715901E-02 0.33369916E+03</pdfrwt>
<pdfrwt beam="2">  1       21 0.16183017E+00 0.33369916E+03</pdfrwt>
<totfact> 0.87611666E+04</totfact>
</mgrwt>
</event>
<event>
 8    1  0.9705063E-006  0.3636477E+03  0.7546771E-02  0.1057149E+00
         21   -1    0    0  504  503  0.00000000000E+00  0.00000000000E+00  0.20275373868E+03  0.20275373868E+03  0.00000000000E+00 0.  1.
         21   -1    0    0  503  504 -0.00000000000E+00 -0.00000000000E+00 -0.16305452878E+03  0.16305452878E+03  0.00000000000E+00 0.  1.
         25    2    1    2    0    0 -0.58326170014E+02  0.11638509546E+03 -0.24517811560E+01  0.18049533348E+03  0.12500048649E+03 0.  0.
         25    2    1    2    0    0  0.58326170014E+02 -0.11638509546E+03  0.42150991061E+02  0.18531293398E+03  0.12496697524E+03 0.  0.
          5    1    3    3  501    0 -0.79934696239E+02  0.64478702497E+02  0.39556053438E+02  0.11015366586E+03  0.47000000000E+01 0. -1.
         -5    1    3    3    0  501  0.21608526225E+02  0.51906392963E+02 -0.42007834594E+02  0.70341667619E+02  0.47000000000E+01 0. -1.
          5    1    4    4  502    0  0.25213564173E+02  0.15139551472E+02 -0.20177208710E+02  0.35974151670E+02  0.47000000000E+01 0. -1.
         -5    1    4    4    0  502  0.33112605841E+02 -0.13152464693E+03  0.62328199771E+02  0.14933878231E+03  0.47000000000E+01 0. -1.
<mgrwt>
<rscale>  0 0.36364772E+03</rscale>
<asrwt>0</asrwt>
<pdfrwt beam="1">  1       21 0.31192883E-01 0.36364772E+03</pdfrwt>
<pdfrwt beam="2">  1       21 0.25085312E-01 0.36364772E+03</pdfrwt>
<totfact> 0.14184618E+05</totfact>
</mgrwt>
</event>
<event>
 8    1  0.9705063E-006  0.2960768E+03  0.7546771E-02  0.1087218E+00
         21   -1    0    0  504  503  0.00000000000E+00  0.00000000000E+00  0.10507729370E+03  0.10507729370E+03  0.00000000000E+00 0. -1.
         21   -1    0    0  503  504 -0.00000000000E+00 -0.00000000000E+00 -0.20856425600E+03  0.20856425600E+03  0.00000000000E+00 0. -1.
         25    2    1    2    0    0  0.13187890730E+02 -0.22087795484E+02  0.27725441805E+02  0.13059614395E+03  0.12499944608E+03 0.  0.
         25    2    1    2    0    0 -0.13187890730E+02  0.22087795484E+02 -0.13121240410E+03  0.18304540574E+03  0.12500853731E+03 0.  0.
          5    1    3    3  501    0 -0.44029334243E+02 -0.47410211214E+02  0.13916989804E+02  0.66348195201E+02  0.47000000000E+01 0. -1.
         -5    1    3    3    0  501  0.57217224973E+02  0.25322415730E+02  0.13808452001E+02  0.64247948751E+02  0.47000000000E+01 0. -1.
          5    1    4    4  502    0 -0.47552686374E+02 -0.57725734753E+01 -0.40227937522E+01  0.48299621691E+02  0.47000000000E+01 0.  1.
         -5    1    4    4    0  502  0.34364795644E+02  0.27860368959E+02 -0.12718961035E+03  0.13474578405E+03  0.47000000000E+01 0.  1.
<mgrwt>
<rscale>  0 0.29607680E+03</rscale>
<asrwt>0</asrwt>
<pdfrwt beam="1">  1       21 0.16165738E-01 0.29607680E+03</pdfrwt>
<pdfrwt beam="2">  1       21 0.32086809E-01 0.29607680E+03</pdfrwt>
<totfact> 0.31221539E+05</totfact>
</mgrwt>
</event>
<event>
 8    1  0.9705063E-006  0.2859032E+03  0.7546771E-02  0.1092508E+00
         21   -1    0    0  504  503  0.00000000000E+00  0.00000000000E+00  0.26076543251E+02  0.26076543251E+02  0.00000000000E+00 0.  1.
         21   -1    0    0  503  504 -0.00000000000E+00 -0.00000000000E+00 -0.78366048554E+03  0.78366048554E+03  0.00000000000E+00 0.  1.
         25    2    1    2    0    0 -0.29456566834E+02  0.36930004610E+02 -0.52262199356E+03  0.53943522030E+03  0.12500037673E+03 0.  0.
         25    2    1    2    0    0  0.29456566834E+02 -0.36930004610E+02 -0.23496194873E+03  0.27030180849E+03  0.12499774298E+03 0.  0.
          5    1    3    3  501    0  0.63959917175E+01 -0.12327706136E+02 -0.41813852137E+03  0.41839549962E+03  0.47000000000E+01 0. -1.
         -5    1    3    3    0  501 -0.35852558551E+02  0.49257710746E+02 -0.10448347218E+03  0.12103972068E+03  0.47000000000E+01 0. -1.
          5    1    4    4  502    0 -0.90831282621E+01  0.53683864670E+01 -0.20539666412E+03  0.20572117641E+03  0.47000000000E+01 0.  1.
         -5    1    4    4    0  502  0.38539695096E+02 -0.42298391077E+02 -0.29565284617E+02  0.64580632083E+02  0.47000000000E+01 0.  1.
<mgrwt>
<rscale>  0 0.28590318E+03</rscale>
<asrwt>0</asrwt>
<pdfrwt beam="1">  1       21 0.40117760E-02 0.28590318E+03</pdfrwt>
<pdfrwt beam="2">  1       21 0.12056315E+00 0.28590318E+03</pdfrwt>
<totfact> 0.19745029E+05</totfact>
</mgrwt>
</event>
<event>
 8    1  0.9705063E-006  0.2793860E+03  0.7546771E-02  0.1096025E+00
         21   -1    0    0  504  503  0.00000000000E+00  0.00000000000E+00  0.17407731035E+02  0.17407731035E+02  0.00000000000E+00 0. -1.
         21   -1    0    0  503  504 -0.00000000000E+00 -0.00000000000E+00 -0.11210035509E+04  0.11210035509E+04  0.00000000000E+00 0. -1.
         25    2    1    2    0    0  0.24200210870E+02 -0.54305857376E+02 -0.62812551385E+03  0.64319730186E+03  0.12500532632E+03 0.  0.
         25    2    1    2    0    0 -0.24200210870E+02  0.54305857376E+02 -0.47547030603E+03  0.49521398009E+03  0.12502038960E+03 0.  0.
          5    1    3    3  501    0 -0.30987373800E+02 -0.67021192150E+02 -0.24651608901E+03  0.25737973828E+03  0.47000000000E+01 0. -1.
         -5    1    3    3    0  501  0.55187584671E+02  0.12715334774E+02 -0.38160942484E+03  0.38581756358E+03  0.47000000000E+01 0. -1.
          5    1    4    4  502    0 -0.42512508715E+02 -0.24781796093E+02 -0.26520715107E+03  0.26977467227E+03  0.47000000000E+01 0. -1.
         -5    1    4    4    0  502  0.18312297845E+02  0.79087653469E+02 -0.21026315495E+03  0.22543930783E+03  0.47000000000E+01 0. -1.
<mgrwt>
<rscale>  0 0.27938596E+03</rscale>
<asrwt>0</asrwt>
<pdfrwt beam="1">  1       21 0.26781123E-02 0.27938596E+03</pdfrwt>
<pdfrwt beam="2">  1       21 0.17246209E+00 0.27938596E+03</pdfrwt>
<totfact> 0.15091947E+05</totfact>
</mgrwt>
</event>
<event>
 8    1  0.9705063E-006  0.4495662E+03  0.7546771E-02  0.1027851E+00
         21   -1    0    0  504  503  0.00000000000E+00  0.00000000000E+00  0.47032387807E+03  0.47032387807E+03  0.00000000000E+00 0.  1.
         21   -1    0    0  503  504 -0.00000000000E+00 -0.00000000000E+00 -0.10743116036E+03  0.10743116036E+03  0.00000000000E+00 0.  1.
         25    2    1    2    0    0  0.42301393785E+02  0.78522675443E+02  0.39242613538E+03  0.42140010094E+03  0.12499821945E+03 0.  0.
         25    2    1    2    0    0 -0.42301393785E+02 -0.78522675443E+02 -0.29533417672E+02  0.15635493749E+03  0.12497769899E+03 0.  0.
          5    1    3    3  501    0 -0.11146054768E+02 -0.29676481318E+02  0.10023117056E+03  0.10522977540E+03  0.47000000000E+01 0. -1.
         -5    1    3    3    0  501  0.53447448553E+02  0.10819915676E+03  0.29219496483E+03  0.31617032554E+03  0.47000000000E+01 0. -1.
          5    1    4    4  502    0 -0.81704617755E+02 -0.63516346190E+02  0.18033270332E+01  0.10361135451E+03  0.47000000000E+01 0.  1.
         -5    1    4    4    0  502  0.39403223970E+02 -0.15006329252E+02 -0.31336744706E+02  0.52743582980E+02  0.47000000000E+01 0.  1.
<mgrwt>
<rscale>  0 0.44956619E+03</rscale>
<asrwt>0</asrwt>
<pdfrwt beam="1">  1       21 0.72357519E-01 0.44956619E+03</pdfrwt>
<pdfrwt beam="2">  1       21 0.16527871E-01 0.44956619E+03</pdfrwt>
<totfact> 0.52073880E+04</totfact>
</mgrwt>
</event>
<event>
 8    1  0.9705063E-006  0.2966139E+03  0.7546771E-02  0.1086946E+00
         21   -1    0    0  504  503  0.00000000000E+00  0.00000000000E+00  0.30986534850E+02  0.30986534850E+02  0.00000000000E+00 0.  1.
         21   -1    0    0  503  504 -0.00000000000E+00 -0.00000000000E+00 -0.70982268008E+03  0.70982268008E+03  0.00000000000E+00 0.  1.
         25    2    1    2    0    0  0.27771656638E+02 -0.27698998858E+02 -0.51301525648E+03  0.52947921103E+03  0.12500032831E+03 0.  0.
         25    2    1    2    0    0 -0.27771656638E+02  0.27698998858E+02 -0.16582088874E+03  0.21133000390E+03  0.12500121581E+03 0.  0.
          5    1    3    3  501    0  0.13972324483E+02  0.24601096522E+02 -0.42566715039E+03  0.42663222186E+03  0.47000000000E+01 0. -1.
         -5    1    3    3    0  501  0.13799332155E+02 -0.52300095380E+02 -0.87348106089E+02  0.10284698917E+03  0.47000000000E+01 0. -1.
          5    1    4    4  502    0 -0.44154110368E+01  0.18467859402E+02  0.17494137125E+02  0.26242951802E+02  0.47000000000E+01 0. -1.
         -5    1    4    4    0  502 -0.23356245601E+02  0.92311394556E+01 -0.18331502587E+03  0.18508705210E+03  0.47000000000E+01 0. -1.
<mgrwt>
<rscale>  0 0.29661386E+03</rscale>
<asrwt>0</asrwt>
<pdfrwt beam="1">  1       21 0.47671596E-02 0.29661386E+03</pdfrwt>
<pdfrwt beam="2">  1       21 0.10920348E+00 0.29661386E+03</pdfrwt>
<totfact> 0.18760142E+05</totfact>
</mgrwt>
</event>
<event>
 8    1  0.9705063E-006  0.2738916E+03  0.7546771E-02  0.1099073E+00
         21   -1    0    0  504  503  0.00000000000E+00  0.00000000000E+00  0.31616140840E+03  0.31616140840E+03  0.00000000000E+00 0.  1.
         21   -1    0    0  503  504 -0.00000000000E+00 -0.00000000000E+00 -0.59318281896E+02  0.59318281896E+02  0.00000000000E+00 0.  1.
         25    2    1    2    0    0  0.23989035348E+02 -0.41135222739E+02  0.16866030489E+03  0.21526473563E+03  0.12500011037E+03 0.  0.
         25    2    1    2    0    0 -0.23989035348E+02  0.41135222739E+02  0.88182821607E+02  0.16021495466E+03  0.12500016522E+03 0.  0.
          5    1    3    3  501    0 -0.47022089457E+02  0.49975554103E+01  0.76158197676E+02  0.89767552769E+02  0.47000000000E+01 0.  1.
         -5    1    3    3    0  501  0.71011124805E+02 -0.46132778149E+02  0.92502107217E+02  0.12549718286E+03  0.47000000000E+01 0.  1.
          5    1    4    4  502    0 -0.58581231816E+02  0.62484883408E+02  0.82295254306E+02  0.11887270611E+03  0.47000000000E+01 0.  1.
         -5    1    4    4    0  502  0.34592196468E+02 -0.21349660669E+02  0.58875673017E+01  0.41342248558E+02  0.47000000000E+01 0.  1.
<mgrwt>
<rscale>  0 0.27389160E+03</rscale>
<asrwt>0</asrwt>
<pdfrwt beam="1">  1       21 0.48640216E-01 0.27389160E+03</pdfrwt>
<pdfrwt beam="2">  1       21 0.91258897E-02 0.27389160E+03</pdfrwt>
<totfact> 0.37779455E+05</totfact>
</mgrwt>
</event>
<event>
 8    1  0.9705063E-006  0.4248012E+03  0.7546771E-02  0.1035515E+00
         21   -1    0    0  504  503  0.00000000000E+00  0.00000000000E+00  0.57108890913E+02  0.57108890913E+02  0.00000000000E+00 0.  1.
         21   -1    0    0  503  504 -0.00000000000E+00 -0.00000000000E+00 -0.78996471256E+03  0.78996471256E+03  0.00000000000E+00 0.  1.
         25    2    1    2    0    0 -0.28812234708E+02  0.10778356742E+03 -0.10612085139E+03  0.19832911681E+03  0.12500144479E+03 0.  0.
         25    2    1    2    0    0  0.28812234708E+02 -0.10778356742E+03 -0.62673497026E+03  0.64874448667E+03  0.12500097504E+03 0.  0.
          5    1    3    3  501    0  0.21979156642E+02 -0.19277618904E+02 -0.27680343245E+02  0.40533952675E+02  0.47000000000E+01 0.  1.
         -5    1    3    3    0  501 -0.50791391350E+02  0.12706118632E+03 -0.78440508145E+02  0.15779516413E+03  0.47000000000E+01 0.  1.
          5    1    4    4  502    0  0.34448368893E+02  0.17712626274E+02 -0.20466101984E+03  0.20834742689E+03  0.47000000000E+01 0.  1.
         -5    1    4    4    0  502 -0.56361341854E+01 -0.12549619370E+03 -0.42207395041E+03  0.44039705978E+03  0.47000000000E+01 0.  1.
<mgrwt>
<rscale>  0 0.42480117E+03</rscale>
<asrwt>0</asrwt>
<pdfrwt beam="1">  1       21 0.87859830E-02 0.42480117E+03</pdfrwt>
<pdfrwt beam="2">  1       21 0.12153304E+00 0.42480117E+03</pdfrwt>
<totfact> 0.47900164E+04</totfact>
</mgrwt>
</event>
<event>
 8    1  0.9705063E-006  0.3362039E+03  0.7546771E-02  0.1068424E+00
         21   -1    0    0  504  503  0.00000000000E+00  0.00000000000E+00  0.34683712135E+03  0.34683712135E+03  0.00000000000E+00 0.  1.
         21   -1    0    0  503  504 -0.00000000000E+00 -0.00000000000E+00 -0.81474165374E+02  0.81474165374E+02  0.00000000000E+00 0.  1.
         25    2    1    2    0    0  0.82915957231E+02  0.10231656014E+02  0.36893750575E+02  0.15480638627E+03  0.12499650255E+03 0.  0.
         25    2    1    2    0    0 -0.82915957231E+02 -0.10231656014E+02  0.22846920540E+03  0.27350490045E+03  0.12500803976E+03 0.  0.
          5    1    3    3  501    0 -0.12722231500E+02  0.10809603619E+02 -0.32303741507E+02  0.36665029934E+02  0.47000000000E+01 0. -1.
         -5    1    3    3    0  501  0.95638188731E+02 -0.57794760443E+00  0.69197492082E+02  0.11814135634E+03  0.47000000000E+01 0. -1.
          5    1    4    4  502    0  0.14650643139E+02 -0.42669265996E+02  0.50199687264E+02  0.67656531144E+02  0.47000000000E+01 0.  1.
         -5    1    4    4    0  502 -0.97566600371E+02  0.32437609982E+02  0.17826951813E+03  0.20584836930E+03  0.47000000000E+01 0.  1.
<mgrwt>
<rscale>  0 0.33620390E+03</rscale>
<asrwt>0</asrwt>
<pdfrwt beam="1">  1       21 0.53359556E-01 0.33620390E+03</pdfrwt>
<pdfrwt beam="2">  1       21 0.12534487E-01 0.33620390E+03</pdfrwt>
<totfact> 0.17359021E+05</totfact>
</mgrwt>
</event>
<event>
 8    1  0.9705063E-006  0.3038016E+03  0.7546771E-02  0.1083356E+00
         21   -1    0    0  504  503  0.00000000000E+00  0.00000000000E+00  0.24617530799E+03  0.24617530799E+03  0.00000000000E+00 0. -1.
         21   -1    0    0  503  504 -0.00000000000E+00 -0.00000000000E+00 -0.93729352038E+02  0.93729352038E+02  0.00000000000E+00 0. -1.
         25    2    1    2    0    0  0.29807443428E+02 -0.64113495925E+02  0.13156503772E+03  0.19478024255E+03  0.12502383651E+03 0.  0.
         25    2    1    2    0    0 -0.29807443428E+02  0.64113495925E+02  0.20880918231E+02  0.14512441747E+03  0.12500423896E+03 0.  0.
          5    1    3    3  501    0 -0.42984399964E+01  0.29987127298E+02  0.71894862451E+02  0.78157953126E+02  0.47000000000E+01 0.  1.
         -5    1    3    3    0  501  0.34105883425E+02 -0.94100623223E+02  0.59670175268E+02  0.11662228943E+03  0.47000000000E+01 0.  1.
          5    1    4    4  502    0 -0.33320812548E+02  0.97841283510E+02  0.33321520204E+02  0.10869961829E+03  0.47000000000E+01 0.  1.
         -5    1    4    4    0  502  0.35133691199E+01 -0.33727787585E+02 -0.12440601973E+02  0.36424799181E+02  0.47000000000E+01 0.  1.
<mgrwt>
<rscale>  0 0.30380159E+03</rscale>
<asrwt>0</asrwt>
<pdfrwt beam="1">  1       21 0.37873124E-01 0.30380159E+03</pdfrwt>
<pdfrwt beam="2">  1       21 0.14419900E-01 0.30380159E+03</pdfrwt>
<totfact> 0.27596615E+05</totfact>
</mgrwt>
</event>
<event>
 8    1  0.9705063E-006  0.2856784E+03  0.7546771E-02  0.1092627E+00
         21   -1    0    0  504  503  0.00000000000E+00  0.00000000000E+00  0.91959526382E+02  0.91959526382E+02  0.00000000000E+00 0. -1.
         21   -1    0    0  503  504 -0.00000000000E+00 -0.00000000000E+00 -0.22186970159E+03  0.22186970159E+03  0.00000000000E+00 0. -1.
         25    2    1    2    0    0  0.41591267387E+02 -0.27960176055E+02 -0.11725145023E+03  0.17856267652E+03  0.12500048759E+03 0.  0.
         25    2    1    2    0    0 -0.41591267387E+02  0.27960176055E+02 -0.12658724982E+02  0.13526655145E+03  0.12500076662E+03 0.  0.
          5    1    3    3  501    0 -0.28083710991E+02 -0.32962466407E+02 -0.18663209189E+01  0.43598075284E+02  0.47000000000E+01 0.  1.
         -5    1    3    3    0  501  0.69674978378E+02  0.50022903522E+01 -0.11538512931E+03  0.13496460123E+03  0.47000000000E+01 0.  1.
          5    1    4    4  502    0 -0.48718905758E+02  0.63104136857E+02  0.24379873090E+02  0.83499293881E+02  0.47000000000E+01 0.  1.
         -5    1    4    4    0  502  0.71276383711E+01 -0.35143960802E+02 -0.37038598071E+02  0.51767257574E+02  0.47000000000E+01 0.  1.
<mgrwt>
<rscale>  0 0.28567837E+03</rscale>
<asrwt>0</asrwt>
<pdfrwt beam="1">  1       21 0.14147620E-01 0.28567837E+03</pdfrwt>
<pdfrwt beam="2">  1       21 0.34133800E-01 0.28567837E+03</pdfrwt>
<totfact> 0.35348555E+05</totfact>
</mgrwt>
</event>
<event>
 8    1  0.9705063E-006  0.2550287E+03  0.7546771E-02  0.1110167E+00
         21   -1    0    0  504  503  0.00000000000E+00  0.00000000000E+00  0.28582094436E+02  0.28582094436E+02  0.00000000000E+00 0. -1.
         21   -1    0    0  503  504 -0.00000000000E+00 -0.00000000000E+00 -0.56888432877E+03  0.56888432877E+03  0.00000000000E+00 0. -1.
         25    2    1    2    0    0  0.12130500046E+02 -0.71241801185E+01 -0.31916070717E+03  0.34305388147E+03  0.12499802247E+03 0.  0.
         25    2    1    2    0    0 -0.12130500046E+02  0.71241801185E+01 -0.22114152717E+03  0.25441254173E+03  0.12499705348E+03 0.  0.
          5    1    3    3  501    0 -0.46349995433E+01 -0.48661341304E+02 -0.49748336129E+02  0.69902763221E+02  0.47000000000E+01 0. -1.
         -5    1    3    3    0  501  0.16765499590E+02  0.41537161186E+02 -0.26941237104E+03  0.27315111825E+03  0.47000000000E+01 0. -1.
          5    1    4    4  502    0 -0.30786375149E+02 -0.21426372662E+02 -0.21637993249E+03  0.21965713174E+03  0.47000000000E+01 0. -1.
         -5    1    4    4    0  502  0.18655875103E+02  0.28550552780E+02 -0.47615946822E+01  0.34755409993E+02  0.47000000000E+01 0. -1.
<mgrwt>
<rscale>  0 0.25502867E+03</rscale>
<asrwt>0</asrwt>
<pdfrwt beam="1">  1       21 0.43972461E-02 0.25502867E+03</pdfrwt>
<pdfrwt beam="2">  1       21 0.87520651E-01 0.25502867E+03</pdfrwt>
<totfact> 0.36859206E+05</totfact>
</mgrwt>
</event>
<event>
 8    1  0.9705063E-006  0.2979401E+03  0.7546771E-02  0.1086275E+00
         21   -1    0    0  504  503  0.00000000000E+00  0.00000000000E+00  0.18529342700E+03  0.18529342700E+03  0.00000000000E+00 0. -1.
         21   -1    0    0  503  504 -0.00000000000E+00 -0.00000000000E+00 -0.11976721052E+03  0.11976721052E+03  0.00000000000E+00 0. -1.
         25    2    1    2    0    0  0.81005937113E+02  0.20907451267E+01  0.32990227755E+02  0.15257634049E+03  0.12499940595E+03 0.  0.
         25    2    1    2    0    0 -0.81005937113E+02 -0.20907451267E+01  0.32535988727E+02  0.15248429703E+03  0.12500614871E+03 0.  0.
          5    1    3    3  501    0  0.85027319997E+02 -0.61378812270E+01  0.72339013466E+02  0.11190326895E+03  0.47000000000E+01 0.  1.
         -5    1    3    3    0  501 -0.40213828842E+01  0.82286263537E+01 -0.39348785711E+02  0.40673071545E+02  0.47000000000E+01 0.  1.
          5    1    4    4  502    0 -0.10088806218E+03  0.34516531192E+02  0.18849806196E+02  0.10838448786E+03  0.47000000000E+01 0. -1.
         -5    1    4    4    0  502  0.19882125063E+02 -0.36607276319E+02  0.13686182531E+02  0.44099809169E+02  0.47000000000E+01 0. -1.
<mgrwt>
<rscale>  0 0.29794011E+03</rscale>
<asrwt>0</asrwt>
<pdfrwt beam="1">  1       21 0.28506681E-01 0.29794011E+03</pdfrwt>
<pdfrwt beam="2">  1       21 0.18425725E-01 0.29794011E+03</pdfrwt>
<totfact> 0.30890774E+05</totfact>
</mgrwt>
</event>
<event>
 8    1  0.9705063E-006  0.3129254E+03  0.7546771E-02  0.1078952E+00
         21   -1    0    0  504  503  0.00000000000E+00  0.00000000000E+00  0.44433336146E+03  0.44433336146E+03  0.00000000000E+00 0. -1.
         21   -1    0    0  503  504 -0.00000000000E+00 -0.00000000000E+00 -0.55095069652E+02  0.55095069652E+02  0.00000000000E+00 0. -1.
         25    2    1    2    0    0 -0.96159853305E+01 -0.86449494940E+02  0.13722374661E+03  0.20497655406E+03  0.12497619265E+03 0.  0.
         25    2    1    2    0    0  0.96159853305E+01  0.86449494940E+02  0.25201454519E+03  0.29445187705E+03  0.12499837824E+03 0.  0.
          5    1    3    3  501    0  0.22113338419E+02 -0.50273440511E+02 -0.44287711158E+01  0.55300294488E+02  0.47000000000E+01 0. -1.
         -5    1    3    3    0  501 -0.31729323750E+02 -0.36176054429E+02  0.14165251773E+03  0.14967625957E+03  0.47000000000E+01 0. -1.
          5    1    4    4  502    0 -0.73737061358E+01  0.11675724175E+03  0.19911253779E+03  0.23098596872E+03  0.47000000000E+01 0.  1.
         -5    1    4    4    0  502  0.16989691466E+02 -0.30307746807E+02  0.52902007408E+02  0.63465908332E+02  0.47000000000E+01 0.  1.
<mgrwt>
<rscale>  0 0.31292541E+03</rscale>
<asrwt>0</asrwt>
<pdfrwt beam="1">  1       21 0.68358976E-01 0.31292541E+03</pdfrwt>
<pdfrwt beam="2">  1       21 0.84761648E-02 0.31292541E+03</pdfrwt>
<totfact> 0.20498709E+05</totfact>
</mgrwt>
</event>
<event>
 8    1  0.9705063E-006  0.3002241E+03  0.7546771E-02  0.1085129E+00
         21   -1    0    0  504  503  0.00000000000E+00  0.00000000000E+00  0.68930659381E+02  0.68930659381E+02  0.00000000000E+00 0.  1.
         21   -1    0    0  503  504 -0.00000000000E+00 -0.00000000000E+00 -0.32690285770E+03  0.32690285770E+03  0.00000000000E+00 0.  1.
         25    2    1    2    0    0  0.18352539671E+01  0.76522602523E+02 -0.86268998171E+02  0.17007857279E+03  0.12500121609E+03 0.  0.
         25    2    1    2    0    0 -0.18352539671E+01 -0.76522602523E+02 -0.17170320014E+03  0.22575494428E+03  0.12499691626E+03 0.  0.
          5    1    3    3  501    0 -0.11610064696E+01  0.10762005468E+03 -0.41854524885E+02  0.11557385240E+03  0.47000000000E+01 0.  1.
         -5    1    3    3    0  501  0.29962604367E+01 -0.31097452160E+02 -0.44414473286E+02  0.54504720390E+02  0.47000000000E+01 0.  1.
          5    1    4    4  502    0 -0.45802247724E+01 -0.84455474815E+02 -0.39962111285E+02  0.93663045133E+02  0.47000000000E+01 0.  1.
         -5    1    4    4    0  502  0.27449708053E+01  0.79328722920E+01 -0.13174108886E+03  0.13209189915E+03  0.47000000000E+01 0.  1.
<mgrwt>
<rscale>  0 0.30022411E+03</rscale>
<asrwt>0</asrwt>
<pdfrwt beam="1">  1       21 0.10604717E-01 0.30022411E+03</pdfrwt>
<pdfrwt beam="2">  1       21 0.50292748E-01 0.30022411E+03</pdfrwt>
<totfact> 0.26812018E+05</totfact>
</mgrwt>
</event>
<event>
 8    1  0.9705063E-006  0.3366414E+03  0.7546771E-02  0.1068235E+00
         21   -1    0    0  504  503  0.00000000000E+00  0.00000000000E+00  0.23005703112E+03  0.23005703112E+03  0.00000000000E+00 0. -1.
         21   -1    0    0  503  504 -0.00000000000E+00 -0.00000000000E+00 -0.12315143582E+03  0.12315143582E+03  0.00000000000E+00 0. -1.
         25    2    1    2    0    0 -0.51383135683E+02  0.79322008468E+02 -0.11015765033E+02  0.15708998119E+03  0.12499482970E+03 0.  0.
         25    2    1    2    0    0  0.51383135683E+02 -0.79322008468E+02  0.11792136034E+03  0.19611848575E+03  0.12499922228E+03 0.  0.
          5    1    3    3  501    0  0.38701834735E+02  0.13629758792E+02 -0.18484630825E+02  0.45247916122E+02  0.47000000000E+01 0. -1.
         -5    1    3    3    0  501 -0.90084970418E+02  0.65692249676E+02  0.74688657920E+01  0.11184206507E+03  0.47000000000E+01 0. -1.
          5    1    4    4  502    0  0.80050975540E+02 -0.27699371534E+02  0.29762366132E+02  0.89907187177E+02  0.47000000000E+01 0. -1.
         -5    1    4    4    0  502 -0.28667839857E+02 -0.51622636933E+02  0.88158994205E+02  0.10621129858E+03  0.47000000000E+01 0. -1.
<mgrwt>
<rscale>  0 0.33664137E+03</rscale>
<asrwt>0</asrwt>
<pdfrwt beam="1">  1       21 0.35393389E-01 0.33664137E+03</pdfrwt>
<pdfrwt beam="2">  1       21 0.18946375E-01 0.33664137E+03</pdfrwt>
<totfact> 0.18933410E+05</totfact>
</mgrwt>
</event>
<event>
 8    1  0.9705063E-006  0.3523130E+03  0.7546771E-02  0.1061670E+00
         21   -1    0    0  504  503  0.00000000000E+00  0.00000000000E+00  0.14677010386E+04  0.14677010386E+04  0.00000000000E+00 0.  1.
         21   -1    0    0  503  504 -0.00000000000E+00 -0.00000000000E+00 -0.21142668413E+02  0.21142668413E+02  0.00000000000E+00 0.  1.
         25    2    1    2    0    0  0.27769949766E+02  0.61338187513E+02  0.11639349146E+04  0.11725626306E+04  0.12500037558E+03 0.  0.
         25    2    1    2    0    0 -0.27769949766E+02 -0.61338187513E+02  0.28262345553E+03  0.31628107636E+03  0.12499663311E+03 0.  0.
          5    1    3    3  501    0 -0.42500654074E+02  0.33635415263E+02  0.73434137656E+03  0.73635385114E+03  0.47000000000E+01 0.  1.
         -5    1    3    3    0  501  0.70270603839E+02  0.27702772249E+02  0.42959353808E+03  0.43620877950E+03  0.47000000000E+01 0.  1.
          5    1    4    4  502    0 -0.15412431940E+02 -0.97519515620E+02  0.16319505248E+03  0.19079390488E+03  0.47000000000E+01 0.  1.
         -5    1    4    4    0  502 -0.12357517826E+02  0.36181328107E+02  0.11942840305E+03  0.12548717148E+03  0.47000000000E+01 0.  1.
<mgrwt>
<rscale>  0 0.35231302E+03</rscale>
<asrwt>0</asrwt>
<pdfrwt beam="1">  1       21 0.22580008E+00 0.35231302E+03</pdfrwt>
<pdfrwt beam="2">  1       21 0.32527194E-02 0.35231302E+03</pdfrwt>
<totfact> 0.47094011E+04</totfact>
</mgrwt>
</event>
<event>
 8    1  0.9705063E-006  0.3576161E+03  0.7546771E-02  0.1059532E+00
         21   -1    0    0  504  503  0.00000000000E+00  0.00000000000E+00  0.66769824823E+03  0.66769824823E+03  0.00000000000E+00 0.  1.
         21   -1    0    0  503  504 -0.00000000000E+00 -0.00000000000E+00 -0.47884378636E+02  0.47884378636E+02  0.00000000000E+00 0.  1.
         25    2    1    2    0    0  0.10687984939E+02  0.27862264446E+02  0.55864396215E+03  0.57323469209E+03  0.12499758786E+03 0.  0.
         25    2    1    2    0    0 -0.10687984939E+02 -0.27862264446E+02  0.61169907449E+02  0.14234793478E+03  0.12502255059E+03 0.  0.
          5    1    3    3  501    0 -0.25556261150E+02  0.40657136739E+02  0.82918520268E+02  0.95935896594E+02  0.47000000000E+01 0. -1.
         -5    1    3    3    0  501  0.36244246089E+02 -0.12794872294E+02  0.47572544188E+03  0.47729879550E+03  0.47000000000E+01 0. -1.
          5    1    4    4  502    0  0.54456463947E+01  0.23127037353E+02 -0.28767342585E+02  0.37605384200E+02  0.47000000000E+01 0. -1.
         -5    1    4    4    0  502 -0.16133631334E+02 -0.50989301798E+02  0.89937250034E+02  0.10474255058E+03  0.47000000000E+01 0. -1.
<mgrwt>
<rscale>  0 0.35761608E+03</rscale>
<asrwt>0</asrwt>
<pdfrwt beam="1">  1       21 0.10272280E+00 0.35761608E+03</pdfrwt>
<pdfrwt beam="2">  1       21 0.73668280E-02 0.35761608E+03</pdfrwt>
<totfact> 0.10098746E+05</totfact>
</mgrwt>
</event>
<event>
 8    1  0.9705063E-006  0.3258233E+03  0.7546771E-02  0.1073000E+00
         21   -1    0    0  504  503  0.00000000000E+00  0.00000000000E+00  0.93574879970E+03  0.93574879970E+03  0.00000000000E+00 0. -1.
         21   -1    0    0  503  504 -0.00000000000E+00 -0.00000000000E+00 -0.28362534443E+02  0.28362534443E+02  0.00000000000E+00 0. -1.
         25    2    1    2    0    0  0.21345477599E+02 -0.22221173311E+02  0.74909051201E+03  0.76007318837E+03  0.12500098616E+03 0.  0.
         25    2    1    2    0    0 -0.21345477599E+02  0.22221173311E+02  0.15829575325E+03  0.20403814578E+03  0.12499843790E+03 0.  0.
          5    1    3    3  501    0  0.33148008628E+01  0.24554072658E+02  0.63339017973E+03  0.63389202563E+03  0.47000000000E+01 0.  1.
         -5    1    3    3    0  501  0.18030676736E+02 -0.46775245969E+02  0.11570033228E+03  0.12618116274E+03  0.47000000000E+01 0.  1.
          5    1    4    4  502    0 -0.42923492998E+02  0.22047259163E+02  0.17155813509E+03  0.17827728852E+03  0.47000000000E+01 0. -1.
         -5    1    4    4    0  502  0.21578015399E+02  0.17391414755E+00 -0.13262381834E+02  0.25760857256E+02  0.47000000000E+01 0. -1.
<mgrwt>
<rscale>  0 0.32582331E+03</rscale>
<asrwt>0</asrwt>
<pdfrwt beam="1">  1       21 0.14396133E+00 0.32582331E+03</pdfrwt>
<pdfrwt beam="2">  1       21 0.43634675E-02 0.32582331E+03</pdfrwt>
<totfact> 0.10715616E+05</totfact>
</mgrwt>
</event>
<event>
 8    1  0.9705063E-006  0.2769681E+03  0.7546771E-02  0.1097357E+00
         21   -1    0    0  504  503  0.00000000000E+00  0.00000000000E+00  0.49615145486E+03  0.49615145486E+03  0.00000000000E+00 0. -1.
         21   -1    0    0  503  504 -0.00000000000E+00 -0.00000000000E+00 -0.38653182776E+02  0.38653182776E+02  0.00000000000E+00 0. -1.
         25    2    1    2    0    0  0.44632876302E+02 -0.34092489861E+02  0.26730489317E+03  0.30038597553E+03  0.12500174748E+03 0.  0.
         25    2    1    2    0    0 -0.44632876302E+02  0.34092489861E+02  0.19019337891E+03  0.23441866210E+03  0.12499678494E+03 0.  0.
          5    1    3    3  501    0 -0.37971141614E+02 -0.34013988581E+02  0.72636369112E+02  0.88864453706E+02  0.47000000000E+01 0.  1.
         -5    1    3    3    0  501  0.82604017916E+02 -0.78501280342E-01  0.19466852406E+03  0.21152152183E+03  0.47000000000E+01 0.  1.
          5    1    4    4  502    0 -0.45636345562E+01  0.22794046321E+00  0.18079499522E+03  0.18091378890E+03  0.47000000000E+01 0. -1.
         -5    1    4    4    0  502 -0.40069241746E+02  0.33864549398E+02  0.93983836921E+01  0.53504873199E+02  0.47000000000E+01 0. -1.
<mgrwt>
<rscale>  0 0.27696811E+03</rscale>
<asrwt>0</asrwt>
<pdfrwt beam="1">  1       21 0.76330989E-01 0.27696811E+03</pdfrwt>
<pdfrwt beam="2">  1       21 0.59466438E-02 0.27696811E+03</pdfrwt>
<totfact> 0.29947727E+05</totfact>
</mgrwt>
</event>
<event>
 8    1  0.9705063E-006  0.2929000E+03  0.7546771E-02  0.1088845E+00
         21   -1    0    0  504  503  0.00000000000E+00  0.00000000000E+00  0.88747211638E+02  0.88747211638E+02  0.00000000000E+00 0. -1.
         21   -1    0    0  503  504 -0.00000000000E+00 -0.00000000000E+00 -0.24167068698E+03  0.24167068698E+03  0.00000000000E+00 0. -1.
         25    2    1    2    0    0 -0.30402942935E+02 -0.69795227934E+02 -0.70547763885E+02  0.16246990349E+03  0.12499507899E+03 0.  0.
         25    2    1    2    0    0  0.30402942935E+02  0.69795227934E+02 -0.82375711452E+02  0.16794799512E+03  0.12500023378E+03 0.  0.
          5    1    3    3  501    0 -0.38170586577E+02 -0.66948680824E+02 -0.10295810956E+03  0.12869180964E+03  0.47000000000E+01 0.  1.
         -5    1    3    3    0  501  0.77676436425E+01 -0.28465471099E+01  0.32410345671E+02  0.33778093859E+02  0.47000000000E+01 0.  1.
          5    1    4    4  502    0 -0.32449713397E+02  0.18568479176E+02 -0.77982447101E+02  0.86609031713E+02  0.47000000000E+01 0. -1.
         -5    1    4    4    0  502  0.62852656331E+02  0.51226748758E+02 -0.43932643517E+01  0.81338963406E+02  0.47000000000E+01 0. -1.
<mgrwt>
<rscale>  0 0.29289998E+03</rscale>
<asrwt>0</asrwt>
<pdfrwt beam="1">  1       21 0.13653417E-01 0.29289998E+03</pdfrwt>
<pdfrwt beam="2">  1       21 0.37180106E-01 0.29289998E+03</pdfrwt>
<totfact> 0.31725334E+05</totfact>
</mgrwt>
</event>
<event>
 8    1  0.9705063E-006  0.2919665E+03  0.7546771E-02  0.1089327E+00
         21   -1    0    0  504  503  0.00000000000E+00  0.00000000000E+00  0.10050789224E+03  0.10050789224E+03  0.00000000000E+00 0.  1.
         21   -1    0    0  503  504 -0.00000000000E+00 -0.00000000000E+00 -0.21203418069E+03  0.21203418069E+03  0.00000000000E+00 0.  1.
         25    2    1    2    0    0 -0.18182983140E+02  0.37823071876E+02 -0.12282782129E+03  0.18020931031E+03  0.12501006439E+03 0.  0.
         25    2    1    2    0    0  0.18182983140E+02 -0.37823071876E+02  0.11301532832E+02  0.13233276262E+03  0.12499211886E+03 0.  0.
          5    1    3    3  501    0 -0.15040926191E+02  0.68549395584E+02 -0.13031229919E+03  0.14808320099E+03  0.47000000000E+01 0.  1.
         -5    1    3    3    0  501 -0.31420569497E+01 -0.30726323708E+02  0.74844779039E+01  0.32126109319E+02  0.47000000000E+01 0.  1.
          5    1    4    4  502    0 -0.24359117442E+01 -0.77301572728E+01  0.65866169832E+02  0.66529176500E+02  0.47000000000E+01 0. -1.
         -5    1    4    4    0  502  0.20618894885E+02 -0.30092914603E+02 -0.54564636999E+02  0.65803586121E+02  0.47000000000E+01 0. -1.
<mgrwt>
<rscale>  0 0.29196650E+03</rscale>
<asrwt>0</asrwt>
<pdfrwt beam="1">  1       21 0.15462753E-01 0.29196650E+03</pdfrwt>
<pdfrwt beam="2">  1       21 0.32620643E-01 0.29196650E+03</pdfrwt>
<totfact> 0.32826051E+05</totfact>
</mgrwt>
</event>
<event>
 8    1  0.9705063E-006  0.2908005E+03  0.7546771E-02  0.1089932E+00
         21   -1    0    0  504  503  0.00000000000E+00  0.00000000000E+00  0.19631800751E+03  0.19631800751E+03  0.00000000000E+00 0.  1.
         21   -1    0    0  503  504 -0.00000000000E+00 -0.00000000000E+00 -0.10768873292E+03  0.10768873292E+03  0.00000000000E+00 0.  1.
         25    2    1    2    0    0 -0.32205092747E+02 -0.20067534085E+02  0.11104488739E+03  0.17146536405E+03  0.12501811921E+03 0.  0.
         25    2    1    2    0    0  0.32205092747E+02  0.20067534085E+02 -0.22415612802E+02  0.13254137637E+03  0.12499953132E+03 0.  0.
          5    1    3    3  501    0  0.20224091945E+02 -0.33916284709E+02 -0.80029288751E+01  0.40564333275E+02  0.47000000000E+01 0. -1.
         -5    1    3    3    0  501 -0.52429184692E+02  0.13848750624E+02  0.11904781627E+03  0.13090103078E+03  0.47000000000E+01 0. -1.
          5    1    4    4  502    0  0.54228726982E+02  0.10441780906E+01 -0.62434339595E+02  0.82837080458E+02  0.47000000000E+01 0.  1.
         -5    1    4    4    0  502 -0.22023634235E+02  0.19023355994E+02  0.40018726794E+02  0.49704295915E+02  0.47000000000E+01 0.  1.
<mgrwt>
<rscale>  0 0.29080053E+03</rscale>
<asrwt>0</asrwt>
<pdfrwt beam="1">  1       21 0.30202770E-01 0.29080053E+03</pdfrwt>
<pdfrwt beam="2">  1       21 0.16567497E-01 0.29080053E+03</pdfrwt>
<totfact> 0.33659282E+05</totfact>
</mgrwt>
</event>
<event>
 8    1  0.9705063E-006  0.3152416E+03  0.7546771E-02  0.1077860E+00
         21   -1    0    0  504  503  0.00000000000E+00  0.00000000000E+00  0.24392331390E+03  0.24392331390E+03  0.00000000000E+00 0.  1.
         21   -1    0    0  503  504 -0.00000000000E+00 -0.00000000000E+00 -0.10185299305E+03  0.10185299305E+03  0.00000000000E+00 0.  1.
         25    2    1    2    0    0  0.63941616404E+02 -0.62367614832E+02  0.32403514935E+02  0.15701413269E+03  0.12500080158E+03 0.  0.
         25    2    1    2    0    0 -0.63941616404E+02  0.62367614832E+02  0.10966680592E+03  0.18876217427E+03  0.12500440163E+03 0.  0.
          5    1    3    3  501    0  0.34647284463E+02  0.71151998083E+01  0.65455184435E+02  0.74548853502E+02  0.47000000000E+01 0. -1.
         -5    1    3    3    0  501  0.29294331942E+02 -0.69482814641E+02 -0.33051669500E+02  0.82465279185E+02  0.47000000000E+01 0. -1.
          5    1    4    4  502    0 -0.85264472912E+02  0.10732739993E+02  0.29587787417E+02  0.91009610553E+02  0.47000000000E+01 0.  1.
         -5    1    4    4    0  502  0.21322856508E+02  0.51634874840E+02  0.80079018500E+02  0.97752563717E+02  0.47000000000E+01 0.  1.
<mgrwt>
<rscale>  0 0.31524162E+03</rscale>
<asrwt>0</asrwt>
<pdfrwt beam="1">  1       21 0.37526664E-01 0.31524162E+03</pdfrwt>
<pdfrwt beam="2">  1       21 0.15669691E-01 0.31524162E+03</pdfrwt>
<totfact> 0.24071310E+05</totfact>
</mgrwt>
</event>
<event>
 8    1  0.9705063E-006  0.2828512E+03  0.7546771E-02  0.1094142E+00
         21   -1    0    0  504  503  0.00000000000E+00  0.00000000000E+00  0.14876097286E+03  0.14876097286E+03  0.00000000000E+00 0. -1.
         21   -1    0    0  503  504 -0.00000000000E+00 -0.00000000000E+00 -0.13445192087E+03  0.13445192087E+03  0.00000000000E+00 0. -1.
         25    2    1    2    0    0 -0.28753892376E+02  0.59150791013E+02  0.54285694926E-01  0.14124649142E+03  0.12499986395E+03 0.  0.
         25    2    1    2    0    0  0.28753892376E+02 -0.59150791013E+02  0.14254766289E+02  0.14196640231E+03  0.12500263445E+03 0.  0.
          5    1    3    3  501    0 -0.39405963634E+02  0.74069929379E+02 -0.42870365201E+02  0.94335267110E+02  0.47000000000E+01 0. -1.
         -5    1    3    3    0  501  0.10652071258E+02 -0.14919138367E+02  0.42924650896E+02  0.46911224310E+02  0.47000000000E+01 0. -1.
          5    1    4    4  502    0 -0.20383999417E+02  0.60536722617E+01 -0.38792343052E+02  0.44486967300E+02  0.47000000000E+01 0.  1.
         -5    1    4    4    0  502  0.49137891793E+02 -0.65204463274E+02  0.53047109341E+02  0.97479435011E+02  0.47000000000E+01 0.  1.
<mgrwt>
<rscale>  0 0.28285119E+03</rscale>
<asrwt>0</asrwt>
<pdfrwt beam="1">  1       21 0.22886304E-01 0.28285119E+03</pdfrwt>
<pdfrwt beam="2">  1       21 0.20684911E-01 0.28285119E+03</pdfrwt>
<totfact> 0.38094709E+05</totfact>
</mgrwt>
</event>
<event>
 8    1  0.9705063E-006  0.2870674E+03  0.7546771E-02  0.1091890E+00
         21   -1    0    0  504  503  0.00000000000E+00  0.00000000000E+00  0.72711152514E+02  0.72711152514E+02  0.00000000000E+00 0.  1.
         21   -1    0    0  503  504 -0.00000000000E+00 -0.00000000000E+00 -0.28333933693E+03  0.28333933693E+03  0.00000000000E+00 0.  1.
         25    2    1    2    0    0  0.30189329814E+02  0.34118529811E+02 -0.17212976642E+03  0.21755188626E+03  0.12499878806E+03 0.  0.
         25    2    1    2    0    0 -0.30189329814E+02 -0.34118529811E+02 -0.38498417997E+02  0.13849860318E+03  0.12499706070E+03 0.  0.
          5    1    3    3  501    0  0.32831233563E+02  0.48613629722E+02 -0.16449373666E+02  0.61105210793E+02  0.47000000000E+01 0. -1.
         -5    1    3    3    0  501 -0.26419037489E+01 -0.14495099912E+02 -0.15568039275E+03  0.15644667547E+03  0.47000000000E+01 0. -1.
          5    1    4    4  502    0 -0.32296873264E+02  0.43284018694E+02 -0.65515498392E+01  0.54604094189E+02  0.47000000000E+01 0. -1.
         -5    1    4    4    0  502  0.21075434503E+01 -0.77402548505E+02 -0.31946868158E+02  0.83894508995E+02  0.47000000000E+01 0. -1.
<mgrwt>
<rscale>  0 0.28706745E+03</rscale>
<asrwt>0</asrwt>
<pdfrwt beam="1">  1       21 0.11186331E-01 0.28706745E+03</pdfrwt>
<pdfrwt beam="2">  1       21 0.43590666E-01 0.28706745E+03</pdfrwt>
<totfact> 0.32922476E+05</totfact>
</mgrwt>
</event>
<event>
 8    1  0.9705063E-006  0.2829075E+03  0.7546771E-02  0.1094111E+00
         21   -1    0    0  504  503  0.00000000000E+00  0.00000000000E+00  0.74815250045E+03  0.74815250045E+03  0.00000000000E+00 0.  1.
         21   -1    0    0  503  504 -0.00000000000E+00 -0.00000000000E+00 -0.26744759242E+02  0.26744759242E+02  0.00000000000E+00 0.  1.
         25    2    1    2    0    0  0.39608520779E+02 -0.51783817964E+02  0.32910505010E+03  0.35803080755E+03  0.12500210572E+03 0.  0.
         25    2    1    2    0    0 -0.39608520779E+02  0.51783817964E+02  0.39230269111E+03  0.41686645214E+03  0.12500335494E+03 0.  0.
          5    1    3    3  501    0  0.13931244637E+02 -0.80242169283E+02  0.29641238551E+03  0.30743337098E+03  0.47000000000E+01 0.  1.
         -5    1    3    3    0  501  0.25677276141E+02  0.28458351319E+02  0.32692664589E+02  0.50597436573E+02  0.47000000000E+01 0.  1.
          5    1    4    4  502    0 -0.44996953723E+02  0.30329047720E+02  0.50372836548E+02  0.74189552107E+02  0.47000000000E+01 0. -1.
         -5    1    4    4    0  502  0.53884329438E+01  0.21454770244E+02  0.34192985456E+03  0.34267690003E+03  0.47000000000E+01 0. -1.
<mgrwt>
<rscale>  0 0.28290747E+03</rscale>
<asrwt>0</asrwt>
<pdfrwt beam="1">  1       21 0.11510037E+00 0.28290747E+03</pdfrwt>
<pdfrwt beam="2">  1       21 0.41145789E-02 0.28290747E+03</pdfrwt>
<totfact> 0.21248682E+05</totfact>
</mgrwt>
</event>
<event>
 8    1  0.9705063E-006  0.3228764E+03  0.7546771E-02  0.1074333E+00
         21   -1    0    0  504  503  0.00000000000E+00  0.00000000000E+00  0.10434301773E+03  0.10434301773E+03  0.00000000000E+00 0.  1.
         21   -1    0    0  503  504 -0.00000000000E+00 -0.00000000000E+00 -0.24977508713E+03  0.24977508713E+03  0.00000000000E+00 0.  1.
         25    2    1    2    0    0 -0.38419127626E+02  0.74008208745E+02 -0.79413932529E+01  0.15044471673E+03  0.12496920715E+03 0.  0.
         25    2    1    2    0    0  0.38419127626E+02 -0.74008208745E+02 -0.13749067615E+03  0.20367338814E+03  0.12500367466E+03 0.  0.
          5    1    3    3  501    0 -0.26804676617E+02  0.45018971473E+02  0.57407590290E+02  0.77864753926E+02  0.47000000000E+01 0. -1.
         -5    1    3    3    0  501 -0.11614451010E+02  0.28989237272E+02 -0.65348983543E+02  0.72579962800E+02  0.47000000000E+01 0. -1.
          5    1    4    4  502    0  0.23159070957E+02  0.32742252668E+02 -0.23644490436E+02  0.46792623407E+02  0.47000000000E+01 0.  1.
         -5    1    4    4    0  502  0.15260056669E+02 -0.10675046141E+03 -0.11384618571E+03  0.15688076473E+03  0.47000000000E+01 0.  1.
<mgrwt>
<rscale>  0 0.32287636E+03</rscale>
<asrwt>0</asrwt>
<pdfrwt beam="1">  1       21 0.16052772E-01 0.32287636E+03</pdfrwt>
<pdfrwt beam="2">  1       21 0.38426936E-01 0.32287636E+03</pdfrwt>
<totfact> 0.21904401E+05</totfact>
</mgrwt>
</event>
<event>
 8    1  0.9705063E-006  0.3062321E+03  0.7546771E-02  0.1082166E+00
         21   -1    0    0  504  503  0.00000000000E+00  0.00000000000E+00  0.13040559036E+03  0.13040559036E+03  0.00000000000E+00 0.  1.
         21   -1    0    0  503  504 -0.00000000000E+00 -0.00000000000E+00 -0.17978161274E+03  0.17978161274E+03  0.00000000000E+00 0.  1.
         25    2    1    2    0    0  0.63825703082E+02 -0.50000391378E+02  0.11078675172E+02  0.14939778937E+03  0.12499281145E+03 0.  0.
         25    2    1    2    0    0 -0.63825703082E+02  0.50000391378E+02 -0.60454697554E+02  0.16078941373E+03  0.12499882240E+03 0.  0.
          5    1    3    3  501    0  0.15509596149E+02 -0.50791684584E+02  0.60143635742E+02  0.80372194917E+02  0.47000000000E+01 0.  1.
         -5    1    3    3    0  501  0.48316106933E+02  0.79129320570E+00 -0.49064960571E+02  0.69025594455E+02  0.47000000000E+01 0.  1.
          5    1    4    4  502    0 -0.63846615357E+02  0.20299244954E+02 -0.94135855585E+02  0.11563779203E+03  0.47000000000E+01 0. -1.
         -5    1    4    4    0  502  0.20912275204E-01  0.29701146424E+02  0.33681158032E+02  0.45151621704E+02  0.47000000000E+01 0. -1.
<mgrwt>
<rscale>  0 0.30623212E+03</rscale>
<asrwt>0</asrwt>
<pdfrwt beam="1">  1       21 0.20062399E-01 0.30623212E+03</pdfrwt>
<pdfrwt beam="2">  1       21 0.27658710E-01 0.30623212E+03</pdfrwt>
<totfact> 0.27879338E+05</totfact>
</mgrwt>
</event>
<event>
 8    1  0.9705063E-006  0.3098464E+03  0.7546771E-02  0.1080420E+00
         21   -1    0    0  504  503  0.00000000000E+00  0.00000000000E+00  0.27012574866E+03  0.27012574866E+03  0.00000000000E+00 0. -1.
         21   -1    0    0  503  504 -0.00000000000E+00 -0.00000000000E+00 -0.88851920736E+02  0.88851920736E+02  0.00000000000E+00 0. -1.
         25    2    1    2    0    0 -0.38743997825E+02 -0.17092396637E+02  0.18463952956E+03  0.22695706622E+03  0.12499802654E+03 0.  0.
         25    2    1    2    0    0  0.38743997825E+02  0.17092396637E+02 -0.33657016383E+01  0.13202060318E+03  0.12499945730E+03 0.  0.
          5    1    3    3  501    0  0.10628669717E+02 -0.62478008791E+02  0.74516433819E+02  0.97934973893E+02  0.47000000000E+01 0.  1.
         -5    1    3    3    0  501 -0.49372667542E+02  0.45385612154E+02  0.11012309575E+03  0.12902209232E+03  0.47000000000E+01 0.  1.
          5    1    4    4  502    0 -0.41015486461E+02  0.29656208138E+02  0.27819926854E+01  0.50907664394E+02  0.47000000000E+01 0.  1.
         -5    1    4    4    0  502  0.79759484287E+02 -0.12563811501E+02 -0.61476943237E+01  0.81112938787E+02  0.47000000000E+01 0.  1.
<mgrwt>
<rscale>  0 0.30984636E+03</rscale>
<asrwt>0</asrwt>
<pdfrwt beam="1">  1       21 0.41557807E-01 0.30984636E+03</pdfrwt>
<pdfrwt beam="2">  1       21 0.13669526E-01 0.30984636E+03</pdfrwt>
<totfact> 0.25150543E+05</totfact>
</mgrwt>
</event>
<event>
 8    1  0.9705063E-006  0.2865399E+03  0.7546771E-02  0.1092170E+00
         21   -1    0    0  504  503  0.00000000000E+00  0.00000000000E+00  0.90845158060E+02  0.90845158060E+02  0.00000000000E+00 0.  1.
         21   -1    0    0  503  504 -0.00000000000E+00 -0.00000000000E+00 -0.22594791960E+03  0.22594791960E+03  0.00000000000E+00 0.  1.
         25    2    1    2    0    0 -0.48971528370E+02  0.70652829628E+01 -0.12793873731E+02  0.13504404330E+03  0.12500032645E+03 0.  0.
         25    2    1    2    0    0  0.48971528370E+02 -0.70652829628E+01 -0.12230888781E+03  0.18174903436E+03  0.12500047456E+03 0.  0.
          5    1    3    3  501    0  0.29034963382E+02 -0.25658765847E+02 -0.29202188059E+02  0.48746888627E+02  0.47000000000E+01 0. -1.
         -5    1    3    3    0  501 -0.78006491752E+02  0.32724048810E+02  0.16408314328E+02  0.86297154675E+02  0.47000000000E+01 0. -1.
          5    1    4    4  502    0 -0.46108087773E+01  0.44800364803E+02 -0.92296722238E+01  0.46212650795E+02  0.47000000000E+01 0.  1.
         -5    1    4    4    0  502  0.53582337147E+02 -0.51865647766E+02 -0.11307921559E+03  0.13553638357E+03  0.47000000000E+01 0.  1.
<mgrwt>
<rscale>  0 0.28653987E+03</rscale>
<asrwt>0</asrwt>
<pdfrwt beam="1">  1       21 0.13976178E-01 0.28653987E+03</pdfrwt>
<pdfrwt beam="2">  1       21 0.34761218E-01 0.28653987E+03</pdfrwt>
<totfact> 0.34846643E+05</totfact>
</mgrwt>
</event>
<event>
 8    1  0.9705063E-006  0.2539812E+03  0.7546771E-02  0.1110814E+00
         21   -1    0    0  504  503  0.00000000000E+00  0.00000000000E+00  0.10324966532E+04  0.10324966532E+04  0.00000000000E+00 0. -1.
         21   -1    0    0  503  504 -0.00000000000E+00 -0.00000000000E+00 -0.15619047170E+02  0.15619047170E+02  0.00000000000E+00 0. -1.
         25    2    1    2    0    0 -0.32460191232E+01  0.20521572345E+02  0.47534933975E+03  0.49194963568E+03  0.12500311062E+03 0.  0.
         25    2    1    2    0    0  0.32460191232E+01 -0.20521572345E+02  0.54152826632E+03  0.55616606474E+03  0.12504461912E+03 0.  0.
          5    1    3    3  501    0 -0.23136537500E+02 -0.44753921966E+02  0.29001552445E+03  0.29439651377E+03  0.47000000000E+01 0. -1.
         -5    1    3    3    0  501  0.19890518377E+02  0.65275494311E+02  0.18533381530E+03  0.19755312190E+03  0.47000000000E+01 0. -1.
          5    1    4    4  502    0 -0.43313741760E+02 -0.41802815572E+02  0.41843913109E+03  0.42277293202E+03  0.47000000000E+01 0.  1.
         -5    1    4    4    0  502  0.46559760883E+02  0.21281243227E+02  0.12308913523E+03  0.13339313272E+03  0.47000000000E+01 0.  1.
<mgrwt>
<rscale>  0 0.25398121E+03</rscale>
<asrwt>0</asrwt>
<pdfrwt beam="1">  1       21 0.15884559E+00 0.25398121E+03</pdfrwt>
<pdfrwt beam="2">  1       21 0.24029311E-02 0.25398121E+03</pdfrwt>
<totfact> 0.22867798E+05</totfact>
</mgrwt>
</event>
<event>
 8    1  0.9705063E-006  0.3594605E+03  0.7546771E-02  0.1058798E+00
         21   -1    0    0  504  503  0.00000000000E+00  0.00000000000E+00  0.31133232044E+03  0.31133232044E+03  0.00000000000E+00 0.  1.
         21   -1    0    0  503  504 -0.00000000000E+00 -0.00000000000E+00 -0.10375720101E+03  0.10375720101E+03  0.00000000000E+00 0.  1.
         25    2    1    2    0    0 -0.11462607492E+03  0.40665964856E+02  0.15399894113E+03  0.23266680078E+03  0.12500123427E+03 0.  0.
         25    2    1    2    0    0  0.11462607492E+03 -0.40665964856E+02  0.53576178302E+02  0.18242272067E+03  0.12495913086E+03 0.  0.
          5    1    3    3  501    0  0.11048735475E+01  0.88512647041E+01  0.10078971819E+03  0.10129275850E+03  0.47000000000E+01 0. -1.
         -5    1    3    3    0  501 -0.11573094847E+03  0.31814700152E+02  0.53209222938E+02  0.13137404228E+03  0.47000000000E+01 0. -1.
          5    1    4    4  502    0  0.63824304127E+02  0.42428798564E+02  0.26456042276E+02  0.81214265482E+02  0.47000000000E+01 0.  1.
         -5    1    4    4    0  502  0.50801770791E+02 -0.83094763420E+02  0.27120136026E+02  0.10120845519E+03  0.47000000000E+01 0.  1.
<mgrwt>
<rscale>  0 0.35946054E+03</rscale>
<asrwt>0</asrwt>
<pdfrwt beam="1">  1       21 0.47897280E-01 0.35946054E+03</pdfrwt>
<pdfrwt beam="2">  1       21 0.15962646E-01 0.35946054E+03</pdfrwt>
<totfact> 0.13928609E+05</totfact>
</mgrwt>
</event>
<event>
 8    1  0.9705063E-006  0.2594919E+03  0.7546771E-02  0.1107449E+00
         21   -1    0    0  504  503  0.00000000000E+00  0.00000000000E+00  0.58146731979E+02  0.58146731979E+02  0.00000000000E+00 0. -1.
         21   -1    0    0  503  504 -0.00000000000E+00 -0.00000000000E+00 -0.28950923140E+03  0.28950923140E+03  0.00000000000E+00 0. -1.
         25    2    1    2    0    0 -0.26754181167E+02 -0.20320739500E+02 -0.10368945595E+03  0.16584648071E+03  0.12499933290E+03 0.  0.
         25    2    1    2    0    0  0.26754181167E+02  0.20320739500E+02 -0.12767304347E+03  0.18180948267E+03  0.12500225316E+03 0.  0.
          5    1    3    3  501    0 -0.59403715242E+02  0.29853531390E+02 -0.37483523707E+02  0.76466589243E+02  0.47000000000E+01 0.  1.
         -5    1    3    3    0  501  0.32649534075E+02 -0.50174270891E+02 -0.66205932240E+02  0.89379891466E+02  0.47000000000E+01 0.  1.
          5    1    4    4  502    0 -0.20899714530E+01  0.68681846426E+02 -0.92227364059E+02  0.11510664920E+03  0.47000000000E+01 0. -1.
         -5    1    4    4    0  502  0.28844152620E+02 -0.48361106925E+02 -0.35445679413E+02  0.66702833466E+02  0.47000000000E+01 0. -1.
<mgrwt>
<rscale>  0 0.25949193E+03</rscale>
<asrwt>0</asrwt>
<pdfrwt beam="1">  1       21 0.89456510E-02 0.25949193E+03</pdfrwt>
<pdfrwt beam="2">  1       21 0.44539882E-01 0.25949193E+03</pdfrwt>
<totfact> 0.47130766E+05</totfact>
</mgrwt>
</event>
<event>
 8    1  0.9705063E-006  0.2521144E+03  0.7546771E-02  0.1111976E+00
         21   -1    0    0  504  503  0.00000000000E+00  0.00000000000E+00  0.91763360380E+03  0.91763360380E+03  0.00000000000E+00 0.  1.
         21   -1    0    0  503  504 -0.00000000000E+00 -0.00000000000E+00 -0.17316729471E+02  0.17316729471E+02  0.00000000000E+00 0.  1.
         25    2    1    2    0    0  0.10512535178E+02  0.11579792012E+02  0.46734351038E+03  0.48402222434E+03  0.12499180764E+03 0.  0.
         25    2    1    2    0    0 -0.10512535178E+02 -0.11579792012E+02  0.43297336394E+03  0.45092810893E+03  0.12500248221E+03 0.  0.
          5    1    3    3  501    0 -0.39998800115E+02 -0.15526030176E+02  0.67892392745E+02  0.80451405309E+02  0.47000000000E+01 0.  1.
         -5    1    3    3    0  501  0.50511335293E+02  0.27105822188E+02  0.39945111764E+03  0.40357081903E+03  0.47000000000E+01 0.  1.
          5    1    4    4  502    0 -0.14016320974E+02 -0.43090197833E+02  0.54204736483E+02  0.70805832106E+02  0.47000000000E+01 0.  1.
         -5    1    4    4    0  502  0.35037857961E+01  0.31510405821E+02  0.37876862746E+03  0.38012227682E+03  0.47000000000E+01 0.  1.
<mgrwt>
<rscale>  0 0.25211436E+03</rscale>
<asrwt>0</asrwt>
<pdfrwt beam="1">  1       21 0.14117436E+00 0.25211436E+03</pdfrwt>
<pdfrwt beam="2">  1       21 0.26641130E-02 0.25211436E+03</pdfrwt>
<totfact> 0.26411654E+05</totfact>
</mgrwt>
</event>
<event>
 8    1  0.9705063E-006  0.3103592E+03  0.7546771E-02  0.1080174E+00
         21   -1    0    0  504  503  0.00000000000E+00  0.00000000000E+00  0.39128907468E+03  0.39128907468E+03  0.00000000000E+00 0.  1.
         21   -1    0    0  503  504 -0.00000000000E+00 -0.00000000000E+00 -0.61541998749E+02  0.61541998749E+02  0.00000000000E+00 0.  1.
         25    2    1    2    0    0 -0.51424297057E+02 -0.13645496374E+02  0.27429825349E+03  0.30609683167E+03  0.12500032236E+03 0.  0.
         25    2    1    2    0    0  0.51424297057E+02  0.13645496374E+02  0.55448822434E+02  0.14673424175E+03  0.12500283155E+03 0.  0.
          5    1    3    3  501    0 -0.70702782901E+02  0.33918305566E+02  0.20647155945E+03  0.22091158825E+03  0.47000000000E+01 0.  1.
         -5    1    3    3    0  501  0.19278485844E+02 -0.47563801940E+02  0.67826694041E+02  0.85185243417E+02  0.47000000000E+01 0.  1.
          5    1    4    4  502    0  0.18467542899E+02  0.44700604785E+02 -0.24735916504E+02  0.54526596943E+02  0.47000000000E+01 0.  1.
         -5    1    4    4    0  502  0.32956754158E+02 -0.31055108411E+02  0.80184738938E+02  0.92207644811E+02  0.47000000000E+01 0.  1.
<mgrwt>
<rscale>  0 0.31035922E+03</rscale>
<asrwt>0</asrwt>
<pdfrwt beam="1">  1       21 0.60198318E-01 0.31035922E+03</pdfrwt>
<pdfrwt beam="2">  1       21 0.94680001E-02 0.31035922E+03</pdfrwt>
<totfact> 0.22292605E+05</totfact>
</mgrwt>
</event>
<event>
 8    1  0.9705063E-006  0.3329536E+03  0.7546771E-02  0.1069837E+00
         21   -1    0    0  504  503  0.00000000000E+00  0.00000000000E+00  0.96957332958E+02  0.96957332958E+02  0.00000000000E+00 0. -1.
         21   -1    0    0  503  504 -0.00000000000E+00 -0.00000000000E+00 -0.28584240698E+03  0.28584240698E+03  0.00000000000E+00 0. -1.
         25    2    1    2    0    0 -0.21873329841E+02 -0.94526390330E+02 -0.34963240903E+02  0.16204842796E+03  0.12499433492E+03 0.  0.
         25    2    1    2    0    0  0.21873329841E+02  0.94526390330E+02 -0.15392183312E+03  0.22075131198E+03  0.12500211999E+03 0.  0.
          5    1    3    3  501    0 -0.67806277749E+02 -0.20681960628E+02 -0.12927945041E+02  0.72212578963E+02  0.47000000000E+01 0.  1.
         -5    1    3    3    0  501  0.45932947908E+02 -0.73844429702E+02 -0.22035295862E+02  0.89835848998E+02  0.47000000000E+01 0.  1.
          5    1    4    4  502    0  0.66394093280E+02  0.50175664778E+02 -0.44520661739E+02  0.94498424749E+02  0.47000000000E+01 0. -1.
         -5    1    4    4    0  502 -0.44520763439E+02  0.44350725552E+02 -0.10940117138E+03  0.12625288723E+03  0.47000000000E+01 0. -1.
<mgrwt>
<rscale>  0 0.33295355E+03</rscale>
<asrwt>0</asrwt>
<pdfrwt beam="1">  1       21 0.14916512E-01 0.33295355E+03</pdfrwt>
<pdfrwt beam="2">  1       21 0.43975756E-01 0.33295355E+03</pdfrwt>
<totfact> 0.18977320E+05</totfact>
</mgrwt>
</event>
<event>
 8    1  0.9705063E-006  0.3262862E+03  0.7546771E-02  0.1072792E+00
         21   -1    0    0  504  503  0.00000000000E+00  0.00000000000E+00  0.42206541322E+02  0.42206541322E+02  0.00000000000E+00 0.  1.
         21   -1    0    0  503  504 -0.00000000000E+00 -0.00000000000E+00 -0.63060525095E+03  0.63060525095E+03  0.00000000000E+00 0.  1.
         25    2    1    2    0    0  0.78653368132E+02 -0.45271040619E+02 -0.18596716982E+03  0.24175211927E+03  0.12499791791E+03 0.  0.
         25    2    1    2    0    0 -0.78653368132E+02  0.45271040619E+02 -0.40243153981E+03  0.43105967301E+03  0.12500191207E+03 0.  0.
          5    1    3    3  501    0  0.71575753267E+02 -0.44506569506E+02 -0.36378899606E+02  0.91920822024E+02  0.47000000000E+01 0.  1.
         -5    1    3    3    0  501  0.70776148646E+01 -0.76447111362E+00 -0.14958827021E+03  0.14983129724E+03  0.47000000000E+01 0.  1.
          5    1    4    4  502    0 -0.50571435916E+02 -0.59532642353E+01 -0.34580722465E+03  0.34956778757E+03  0.47000000000E+01 0.  1.
         -5    1    4    4    0  502 -0.28081932216E+02  0.51224304854E+02 -0.56624315157E+02  0.81491885435E+02  0.47000000000E+01 0.  1.
<mgrwt>
<rscale>  0 0.32628617E+03</rscale>
<asrwt>0</asrwt>
<pdfrwt beam="1">  1       21 0.64933145E-02 0.32628617E+03</pdfrwt>
<pdfrwt beam="2">  1       21 0.97016186E-01 0.32628617E+03</pdfrwt>
<totfact> 0.14564196E+05</totfact>
</mgrwt>
</event>
<event>
 8    1  0.9705063E-006  0.3219486E+03  0.7546771E-02  0.1074756E+00
         21   -1    0    0  504  503  0.00000000000E+00  0.00000000000E+00  0.82892238656E+02  0.82892238656E+02  0.00000000000E+00 0. -1.
         21   -1    0    0  503  504 -0.00000000000E+00 -0.00000000000E+00 -0.31260736565E+03  0.31260736565E+03  0.00000000000E+00 0. -1.
         25    2    1    2    0    0 -0.33596739854E+02 -0.59294235550E+02 -0.20713634078E+03  0.25134727046E+03  0.12500175757E+03 0.  0.
         25    2    1    2    0    0  0.33596739854E+02  0.59294235550E+02 -0.22578786210E+02  0.14415233385E+03  0.12500218585E+03 0.  0.
          5    1    3    3  501    0 -0.45889068416E+01 -0.20874002157E+02  0.13339142911E+02  0.25628202545E+02  0.47000000000E+01 0. -1.
         -5    1    3    3    0  501 -0.29007833012E+02 -0.38420233393E+02 -0.22047548370E+03  0.22571906792E+03  0.47000000000E+01 0. -1.
          5    1    4    4  502    0 -0.46287848288E+02  0.11329548053E+02 -0.16536423115E+02  0.50660308405E+02  0.47000000000E+01 0.  1.
         -5    1    4    4    0  502  0.79884588142E+02  0.47964687497E+02 -0.60423630946E+01  0.93492025441E+02  0.47000000000E+01 0.  1.
<mgrwt>
<rscale>  0 0.32194859E+03</rscale>
<asrwt>0</asrwt>
<pdfrwt beam="1">  1       21 0.12752652E-01 0.32194859E+03</pdfrwt>
<pdfrwt beam="2">  1       21 0.48093440E-01 0.32194859E+03</pdfrwt>
<totfact> 0.21024162E+05</totfact>
</mgrwt>
</event>
<event>
 8    1  0.9705063E-006  0.3754364E+03  0.7546771E-02  0.1052633E+00
         21   -1    0    0  504  503  0.00000000000E+00  0.00000000000E+00  0.43315614876E+02  0.43315614876E+02  0.00000000000E+00 0.  1.
         21   -1    0    0  503  504 -0.00000000000E+00 -0.00000000000E+00 -0.81352009596E+03  0.81352009596E+03  0.00000000000E+00 0.  1.
         25    2    1    2    0    0  0.13559189613E+03  0.32980469784E+02 -0.41219363724E+03  0.45276982191E+03  0.12499617341E+03 0.  0.
         25    2    1    2    0    0 -0.13559189613E+03 -0.32980469784E+02 -0.35801084384E+03  0.40406588893E+03  0.12499841839E+03 0.  0.
          5    1    3    3  501    0  0.15219651797E+03  0.52719597876E+01 -0.30872858111E+03  0.34427750498E+03  0.47000000000E+01 0. -1.
         -5    1    3    3    0  501 -0.16604621838E+02  0.27708509996E+02 -0.10346505613E+03  0.10849231693E+03  0.47000000000E+01 0. -1.
          5    1    4    4  502    0 -0.10414728450E+03 -0.28406863789E+02 -0.35582570844E+03  0.37187044997E+03  0.47000000000E+01 0. -1.
         -5    1    4    4    0  502 -0.31444611635E+02 -0.45736059944E+01 -0.21851354071E+01  0.32195438954E+02  0.47000000000E+01 0. -1.
<mgrwt>
<rscale>  0 0.37543640E+03</rscale>
<asrwt>0</asrwt>
<pdfrwt beam="1">  1       21 0.66639413E-02 0.37543640E+03</pdfrwt>
<pdfrwt beam="2">  1       21 0.12515693E+00 0.37543640E+03</pdfrwt>
<totfact> 0.73290594E+04</totfact>
</mgrwt>
</event>
<event>
 8    1  0.9705063E-006  0.2798058E+03  0.7546771E-02  0.1095795E+00
         21   -1    0    0  504  503  0.00000000000E+00  0.00000000000E+00  0.52945631327E+03  0.52945631327E+03  0.00000000000E+00 0. -1.
         21   -1    0    0  503  504 -0.00000000000E+00 -0.00000000000E+00 -0.36967763027E+02  0.36967763027E+02  0.00000000000E+00 0. -1.
         25    2    1    2    0    0  0.48789744471E+02  0.34912846678E+00  0.32638739386E+03  0.35289549201E+03  0.12500374535E+03 0.  0.
         25    2    1    2    0    0 -0.48789744471E+02 -0.34912846678E+00  0.16610115638E+03  0.21352858428E+03  0.12499720437E+03 0.  0.
          5    1    3    3  501    0  0.52717156200E+02 -0.16099463579E+02  0.45966010886E+02  0.71925346312E+02  0.47000000000E+01 0. -1.
         -5    1    3    3    0  501 -0.39274117293E+01  0.16448592046E+02  0.28042138297E+03  0.28097014570E+03  0.47000000000E+01 0. -1.
          5    1    4    4  502    0 -0.44450084699E+02 -0.52185742981E+02  0.13813998993E+03  0.15428515359E+03  0.47000000000E+01 0. -1.
         -5    1    4    4    0  502 -0.43396597712E+01  0.51836614514E+02  0.27961166446E+02  0.59243430693E+02  0.47000000000E+01 0. -1.
<mgrwt>
<rscale>  0 0.27980576E+03</rscale>
<asrwt>0</asrwt>
<pdfrwt beam="1">  1       21 0.81454812E-01 0.27980576E+03</pdfrwt>
<pdfrwt beam="2">  1       21 0.56873485E-02 0.27980576E+03</pdfrwt>
<totfact> 0.27874681E+05</totfact>
</mgrwt>
</event>
<event>
 8    1  0.9705063E-006  0.2527479E+03  0.7546771E-02  0.1111580E+00
         21   -1    0    0  504  503  0.00000000000E+00  0.00000000000E+00  0.15692521010E+04  0.15692521010E+04  0.00000000000E+00 0.  1.
         21   -1    0    0  503  504 -0.00000000000E+00 -0.00000000000E+00 -0.10177065093E+02  0.10177065093E+02  0.00000000000E+00 0.  1.
         25    2    1    2    0    0  0.16263500957E+02 -0.24928830330E+01  0.83106939367E+03  0.84058654048E+03  0.12505470406E+03 0.  0.
         25    2    1    2    0    0 -0.16263500957E+02  0.24928830330E+01  0.72800564225E+03  0.73884262563E+03  0.12500197746E+03 0.  0.
          5    1    3    3  501    0 -0.26994551984E+02 -0.43477404294E+02  0.58932713410E+03  0.59156364959E+03  0.47000000000E+01 0. -1.
         -5    1    3    3    0  501  0.43258052942E+02  0.40984521261E+02  0.24174225957E+03  0.24902289089E+03  0.47000000000E+01 0. -1.
          5    1    4    4  502    0 -0.20849604695E+02 -0.53647488534E+02  0.21111557120E+03  0.21887127141E+03  0.47000000000E+01 0. -1.
         -5    1    4    4    0  502  0.45861037379E+01  0.56140371567E+02  0.51689007105E+03  0.51997135422E+03  0.47000000000E+01 0. -1.
<mgrwt>
<rscale>  0 0.25274794E+03</rscale>
<asrwt>0</asrwt>
<pdfrwt beam="1">  1       21 0.24142321E+00 0.25274794E+03</pdfrwt>
<pdfrwt beam="2">  1       21 0.15657036E-02 0.25274794E+03</pdfrwt>
<totfact> 0.13206010E+05</totfact>
</mgrwt>
</event>
<event>
 8    1  0.9705063E-006  0.2574489E+03  0.7546771E-02  0.1108686E+00
         21   -1    0    0  504  503  0.00000000000E+00  0.00000000000E+00  0.23138503920E+02  0.23138503920E+02  0.00000000000E+00 0. -1.
         21   -1    0    0  503  504 -0.00000000000E+00 -0.00000000000E+00 -0.71612155883E+03  0.71612155883E+03  0.00000000000E+00 0. -1.
         25    2    1    2    0    0 -0.33137555572E+00 -0.27357246843E+02 -0.38669285037E+03  0.40731407780E+03  0.12499947470E+03 0.  0.
         25    2    1    2    0    0  0.33137555572E+00  0.27357246843E+02 -0.30629020454E+03  0.33194598496E+03  0.12500367502E+03 0.  0.
          5    1    3    3  501    0 -0.52725424382E+02  0.11961687408E+01 -0.88143629771E+02  0.10282407629E+03  0.47000000000E+01 0. -1.
         -5    1    3    3    0  501  0.52394048826E+02 -0.28553415583E+02 -0.29854922060E+03  0.30449000151E+03  0.47000000000E+01 0. -1.
          5    1    4    4  502    0 -0.27053167347E+02 -0.37213093647E+02 -0.59613632647E+02  0.75449078190E+02  0.47000000000E+01 0.  1.
         -5    1    4    4    0  502  0.27384542903E+02  0.64570340489E+02 -0.24667657189E+03  0.25649690677E+03  0.47000000000E+01 0.  1.
<mgrwt>
<rscale>  0 0.25744888E+03</rscale>
<asrwt>0</asrwt>
<pdfrwt beam="1">  1       21 0.35597697E-02 0.25744888E+03</pdfrwt>
<pdfrwt beam="2">  1       21 0.11017255E+00 0.25744888E+03</pdfrwt>
<totfact> 0.30402932E+05</totfact>
</mgrwt>
</event>
<event>
 8    1  0.9705063E-006  0.5050035E+03  0.7546771E-02  0.1012481E+00
         21   -1    0    0  504  503  0.00000000000E+00  0.00000000000E+00  0.18603701408E+03  0.18603701408E+03  0.00000000000E+00 0. -1.
         21   -1    0    0  503  504 -0.00000000000E+00 -0.00000000000E+00 -0.34271214769E+03  0.34271214769E+03  0.00000000000E+00 0. -1.
         25    2    1    2    0    0  0.21707353212E+03 -0.95687361007E+01 -0.46588033805E+02  0.25496827175E+03  0.12500358255E+03 0.  0.
         25    2    1    2    0    0 -0.21707353212E+03  0.95687361007E+01 -0.11008709981E+03  0.27378089002E+03  0.12499730852E+03 0.  0.
          5    1    3    3  501    0  0.13619547895E+03 -0.66279317183E+02 -0.33693130789E+02  0.15524005100E+03  0.47000000000E+01 0.  1.
         -5    1    3    3    0  501  0.80878053171E+02  0.56710581082E+02 -0.12894903016E+02  0.99728220756E+02  0.47000000000E+01 0.  1.
          5    1    4    4  502    0 -0.86118648386E+02  0.63177678629E+02 -0.65341243748E+02  0.12529728174E+03  0.47000000000E+01 0. -1.
         -5    1    4    4    0  502 -0.13095488373E+03 -0.53608942528E+02 -0.44745856063E+02  0.14848360828E+03  0.47000000000E+01 0. -1.
<mgrwt>
<rscale>  0 0.50500354E+03</rscale>
<asrwt>0</asrwt>
<pdfrwt beam="1">  1       21 0.28621079E-01 0.50500354E+03</pdfrwt>
<pdfrwt beam="2">  1       21 0.52724946E-01 0.50500354E+03</pdfrwt>
<totfact> 0.36005518E+04</totfact>
</mgrwt>
</event>
<event>
 8    1  0.9705063E-006  0.3345157E+03  0.7546771E-02  0.1069156E+00
         21   -1    0    0  504  503  0.00000000000E+00  0.00000000000E+00  0.27091613442E+03  0.27091613442E+03  0.00000000000E+00 0. -1.
         21   -1    0    0  503  504 -0.00000000000E+00 -0.00000000000E+00 -0.10326142656E+03  0.10326142656E+03  0.00000000000E+00 0. -1.
         25    2    1    2    0    0 -0.75610107036E+02 -0.33882434399E+01 -0.72519476067E+01  0.14625872842E+03  0.12494261248E+03 0.  0.
         25    2    1    2    0    0  0.75610107036E+02  0.33882434399E+01  0.17490665546E+03  0.22791883257E+03  0.12500515043E+03 0.  0.
          5    1    3    3  501    0 -0.59775205117E+02 -0.36418831474E+02 -0.52667378193E+02  0.87723139242E+02  0.47000000000E+01 0.  1.
         -5    1    3    3    0  501 -0.15834901920E+02  0.33030588034E+02  0.45415430587E+02  0.58535589175E+02  0.47000000000E+01 0.  1.
          5    1    4    4  502    0  0.10258949347E+03 -0.23923388288E+02  0.11011336958E+03  0.15245975481E+03  0.47000000000E+01 0. -1.
         -5    1    4    4    0  502 -0.26979386432E+02  0.27311631728E+02  0.64793285886E+02  0.75459077756E+02  0.47000000000E+01 0. -1.
<mgrwt>
<rscale>  0 0.33451569E+03</rscale>
<asrwt>0</asrwt>
<pdfrwt beam="1">  1       21 0.41679405E-01 0.33451569E+03</pdfrwt>
<pdfrwt beam="2">  1       21 0.15886373E-01 0.33451569E+03</pdfrwt>
<totfact> 0.18866156E+05</totfact>
</mgrwt>
</event>
<event>
 8    1  0.9705063E-006  0.2676283E+03  0.7546771E-02  0.1102645E+00
         21   -1    0    0  504  503  0.00000000000E+00  0.00000000000E+00  0.40669910812E+02  0.40669910812E+02  0.00000000000E+00 0. -1.
         21   -1    0    0  503  504 -0.00000000000E+00 -0.00000000000E+00 -0.44028180750E+03  0.44028180750E+03  0.00000000000E+00 0. -1.
         25    2    1    2    0    0 -0.43195974890E+02  0.19683353696E+02 -0.20926962020E+03  0.24834162305E+03  0.12500584443E+03 0.  0.
         25    2    1    2    0    0  0.43195974890E+02 -0.19683353696E+02 -0.19034227650E+03  0.23261009527E+03  0.12499579008E+03 0.  0.
          5    1    3    3  501    0  0.13207280198E+02  0.45812120588E+02 -0.16517872930E+03  0.17198629381E+03  0.47000000000E+01 0.  1.
         -5    1    3    3    0  501 -0.56403255088E+02 -0.26128766891E+02 -0.44090890890E+02  0.76355329240E+02  0.47000000000E+01 0.  1.
          5    1    4    4  502    0  0.83817739023E+02 -0.11336882665E+02 -0.15989433360E+03  0.18094813125E+03  0.47000000000E+01 0.  1.
         -5    1    4    4    0  502 -0.40621764133E+02 -0.83464710310E+01 -0.30447942893E+02  0.51661964020E+02  0.47000000000E+01 0.  1.
<mgrwt>
<rscale>  0 0.26762826E+03</rscale>
<asrwt>0</asrwt>
<pdfrwt beam="1">  1       21 0.62569091E-02 0.26762826E+03</pdfrwt>
<pdfrwt beam="2">  1       21 0.67735665E-01 0.26762826E+03</pdfrwt>
<totfact> 0.35901329E+05</totfact>
</mgrwt>
</event>
<event>
 8    1  0.9705063E-006  0.2735964E+03  0.7546771E-02  0.1099239E+00
         21   -1    0    0  504  503  0.00000000000E+00  0.00000000000E+00  0.20177128354E+02  0.20177128354E+02  0.00000000000E+00 0. -1.
         21   -1    0    0  503  504 -0.00000000000E+00 -0.00000000000E+00 -0.92747362228E+03  0.92747362228E+03  0.00000000000E+00 0. -1.
         25    2    1    2    0    0  0.45090299478E+02 -0.32423061949E+02 -0.46232078867E+03  0.48213019704E+03  0.12499850083E+03 0.  0.
         25    2    1    2    0    0 -0.45090299478E+02  0.32423061949E+02 -0.44497570526E+03  0.46552055360E+03  0.12498646926E+03 0.  0.
          5    1    3    3  501    0  0.83226748825E+02 -0.46222787600E+02 -0.34411850285E+03  0.35707544276E+03  0.47000000000E+01 0. -1.
         -5    1    3    3    0  501 -0.38136449347E+02  0.13799725651E+02 -0.11820228581E+03  0.12505475428E+03  0.47000000000E+01 0. -1.
          5    1    4    4  502    0  0.35976614318E+02  0.39560865689E+02 -0.14324733471E+03  0.15297472920E+03  0.47000000000E+01 0. -1.
         -5    1    4    4    0  502 -0.81066913796E+02 -0.71378037399E+01 -0.30172837055E+03  0.31254582440E+03  0.47000000000E+01 0. -1.
<mgrwt>
<rscale>  0 0.27359645E+03</rscale>
<asrwt>0</asrwt>
<pdfrwt beam="1">  1       21 0.31041733E-02 0.27359645E+03</pdfrwt>
<pdfrwt beam="2">  1       21 0.14268826E+00 0.27359645E+03</pdfrwt>
<totfact> 0.19786780E+05</totfact>
</mgrwt>
</event>
<event>
 8    1  0.9705063E-006  0.2697337E+03  0.7546771E-02  0.1101432E+00
         21   -1    0    0  504  503  0.00000000000E+00  0.00000000000E+00  0.16000931619E+03  0.16000931619E+03  0.00000000000E+00 0. -1.
         21   -1    0    0  503  504 -0.00000000000E+00 -0.00000000000E+00 -0.11367507927E+03  0.11367507927E+03  0.00000000000E+00 0. -1.
         25    2    1    2    0    0 -0.24311867030E+02  0.34040026765E+02  0.52122655519E+02  0.14174070362E+03  0.12499546209E+03 0.  0.
         25    2    1    2    0    0  0.24311867030E+02 -0.34040026765E+02 -0.57884185940E+01  0.13194369184E+03  0.12500336686E+03 0.  0.
          5    1    3    3  501    0 -0.35313954710E+02  0.57258170381E+02  0.79266279473E+02  0.10407116091E+03  0.47000000000E+01 0.  1.
         -5    1    3    3    0  501  0.11002087680E+02 -0.23218143616E+02 -0.27143623954E+02  0.37669542705E+02  0.47000000000E+01 0.  1.
          5    1    4    4  502    0  0.17488113656E+00 -0.40249285257E+02  0.53700155670E+02  0.67274306136E+02  0.47000000000E+01 0.  1.
         -5    1    4    4    0  502  0.24136985894E+02  0.62092584921E+01 -0.59488574264E+02  0.64669385702E+02  0.47000000000E+01 0.  1.
<mgrwt>
<rscale>  0 0.26973373E+03</rscale>
<asrwt>0</asrwt>
<pdfrwt beam="1">  1       21 0.24616818E-01 0.26973373E+03</pdfrwt>
<pdfrwt beam="2">  1       21 0.17488474E-01 0.26973373E+03</pdfrwt>
<totfact> 0.45489019E+05</totfact>
</mgrwt>
</event>
<event>
 8    1  0.9705063E-006  0.3069358E+03  0.7546771E-02  0.1081824E+00
         21   -1    0    0  504  503  0.00000000000E+00  0.00000000000E+00  0.21456997643E+03  0.21456997643E+03  0.00000000000E+00 0.  1.
         21   -1    0    0  503  504 -0.00000000000E+00 -0.00000000000E+00 -0.10976555810E+03  0.10976555810E+03  0.00000000000E+00 0.  1.
         25    2    1    2    0    0  0.21096075178E+02 -0.73736795284E+02  0.46568519591E+01  0.14675146983E+03  0.12502858977E+03 0.  0.
         25    2    1    2    0    0 -0.21096075178E+02  0.73736795284E+02  0.10014756637E+03  0.17758406471E+03  0.12499762246E+03 0.  0.
          5    1    3    3  501    0  0.11712179058E+02 -0.10190155586E+03 -0.23754521310E+02  0.10539198028E+03  0.47000000000E+01 0.  1.
         -5    1    3    3    0  501  0.93838961198E+01  0.28164760575E+02  0.28411373269E+02  0.41359489548E+02  0.47000000000E+01 0.  1.
          5    1    4    4  502    0 -0.48896747099E+02  0.45487600313E+02  0.11656847162E+03  0.13442586148E+03  0.47000000000E+01 0. -1.
         -5    1    4    4    0  502  0.27800671921E+02  0.28249194971E+02 -0.16420905258E+02  0.43158203221E+02  0.47000000000E+01 0. -1.
<mgrwt>
<rscale>  0 0.30693578E+03</rscale>
<asrwt>0</asrwt>
<pdfrwt beam="1">  1       21 0.33010766E-01 0.30693578E+03</pdfrwt>
<pdfrwt beam="2">  1       21 0.16887009E-01 0.30693578E+03</pdfrwt>
<totfact> 0.27156277E+05</totfact>
</mgrwt>
</event>
<event>
 8    1  0.9705063E-006  0.2548231E+03  0.7546771E-02  0.1110294E+00
         21   -1    0    0  504  503  0.00000000000E+00  0.00000000000E+00  0.64457033204E+03  0.64457033204E+03  0.00000000000E+00 0. -1.
         21   -1    0    0  503  504 -0.00000000000E+00 -0.00000000000E+00 -0.25185302175E+02  0.25185302175E+02  0.00000000000E+00 0. -1.
         25    2    1    2    0    0 -0.15643731122E+02  0.53930769143E+01  0.26151015669E+03  0.29032069551E+03  0.12499893035E+03 0.  0.
         25    2    1    2    0    0  0.15643731122E+02 -0.53930769143E+01  0.35787487317E+03  0.37943493870E+03  0.12499054467E+03 0.  0.
          5    1    3    3  501    0  0.53044925862E+02  0.17685435314E+02  0.12000110024E+03  0.13247223422E+03  0.47000000000E+01 0. -1.
         -5    1    3    3    0  501 -0.68688656983E+02 -0.12292358400E+02  0.14150905645E+03  0.15784846129E+03  0.47000000000E+01 0. -1.
          5    1    4    4  502    0  0.52962906206E+02  0.90756396888E+01  0.68115553807E+02  0.86886450842E+02  0.47000000000E+01 0.  1.
         -5    1    4    4    0  502 -0.37319175084E+02 -0.14468716603E+02  0.28975931936E+03  0.29254848786E+03  0.47000000000E+01 0.  1.
<mgrwt>
<rscale>  0 0.25482306E+03</rscale>
<asrwt>0</asrwt>
<pdfrwt beam="1">  1       21 0.99164654E-01 0.25482306E+03</pdfrwt>
<pdfrwt beam="2">  1       21 0.38746624E-02 0.25482306E+03</pdfrwt>
<totfact> 0.34031662E+05</totfact>
</mgrwt>
</event>
<event>
 8    1  0.9705063E-006  0.2537188E+03  0.7546771E-02  0.1110977E+00
         21   -1    0    0  504  503  0.00000000000E+00  0.00000000000E+00  0.12882242910E+02  0.12882242910E+02  0.00000000000E+00 0. -1.
         21   -1    0    0  503  504 -0.00000000000E+00 -0.00000000000E+00 -0.12492628660E+04  0.12492628660E+04  0.00000000000E+00 0. -1.
         25    2    1    2    0    0  0.21021330870E+02  0.50550435930E+01 -0.62218115681E+03  0.63498188159E+03  0.12500059297E+03 0.  0.
         25    2    1    2    0    0 -0.21021330870E+02 -0.50550435930E+01 -0.61419946624E+03  0.62716322728E+03  0.12500111802E+03 0.  0.
          5    1    3    3  501    0  0.62854138845E+02  0.22965774914E+02 -0.50067056924E+03  0.50514471044E+03  0.47000000000E+01 0. -1.
         -5    1    3    3    0  501 -0.41832807975E+02 -0.17910731321E+02 -0.12151058757E+03  0.12983717114E+03  0.47000000000E+01 0. -1.
          5    1    4    4  502    0 -0.39812854735E+02 -0.51020352761E+02 -0.20729500932E+03  0.21721291556E+03  0.47000000000E+01 0. -1.
         -5    1    4    4    0  502  0.18791523865E+02  0.45965309168E+02 -0.40690445692E+03  0.40995031172E+03  0.47000000000E+01 0. -1.
<mgrwt>
<rscale>  0 0.25371880E+03</rscale>
<asrwt>0</asrwt>
<pdfrwt beam="1">  1       21 0.19818836E-02 0.25371880E+03</pdfrwt>
<pdfrwt beam="2">  1       21 0.19219428E+00 0.25371880E+03</pdfrwt>
<totfact> 0.18333395E+05</totfact>
</mgrwt>
</event>
<event>
 8    1  0.9705063E-006  0.2628817E+03  0.7546771E-02  0.1105424E+00
         21   -1    0    0  504  503  0.00000000000E+00  0.00000000000E+00  0.62138452482E+03  0.62138452482E+03  0.00000000000E+00 0.  1.
         21   -1    0    0  503  504 -0.00000000000E+00 -0.00000000000E+00 -0.27803541821E+02  0.27803541821E+02  0.00000000000E+00 0.  1.
         25    2    1    2    0    0 -0.16078781592E+01  0.40376896196E+02  0.30744980893E+03  0.33434163163E+03  0.12500425036E+03 0.  0.
         25    2    1    2    0    0  0.16078781592E+01 -0.40376896196E+02  0.28613117407E+03  0.31484643501E+03  0.12499739937E+03 0.  0.
          5    1    3    3  501    0  0.31427755215E+02  0.75904953597E+02  0.20456650769E+03  0.22049673886E+03  0.47000000000E+01 0. -1.
         -5    1    3    3    0  501 -0.33035633374E+02 -0.35528057401E+02  0.10288330124E+03  0.11384489277E+03  0.47000000000E+01 0. -1.
          5    1    4    4  502    0 -0.35231568833E+02 -0.64798159307E+02  0.10539860900E+03  0.12872848042E+03  0.47000000000E+01 0.  1.
         -5    1    4    4    0  502  0.36839446992E+02  0.24421263111E+02  0.18073256507E+03  0.18611795460E+03  0.47000000000E+01 0.  1.
<mgrwt>
<rscale>  0 0.26288165E+03</rscale>
<asrwt>0</asrwt>
<pdfrwt beam="1">  1       21 0.95597609E-01 0.26288165E+03</pdfrwt>
<pdfrwt beam="2">  1       21 0.42774684E-02 0.26288165E+03</pdfrwt>
<totfact> 0.31352839E+05</totfact>
</mgrwt>
</event>
<event>
 8    1  0.9705063E-006  0.2530348E+03  0.7546771E-02  0.1111402E+00
         21   -1    0    0  504  503  0.00000000000E+00  0.00000000000E+00  0.14704381195E+04  0.14704381195E+04  0.00000000000E+00 0.  1.
         21   -1    0    0  503  504 -0.00000000000E+00 -0.00000000000E+00 -0.10885637609E+02  0.10885637609E+02  0.00000000000E+00 0.  1.
         25    2    1    2    0    0 -0.12701451499E+02 -0.97548012061E+01  0.66419426840E+03  0.67604353953E+03  0.12499743257E+03 0.  0.
         25    2    1    2    0    0  0.12701451499E+02  0.97548012061E+01  0.79535821350E+03  0.80528021759E+03  0.12500023216E+03 0.  0.
          5    1    3    3  501    0  0.43521993098E+02  0.14005024704E+02  0.12141641583E+03  0.12982426828E+03  0.47000000000E+01 0. -1.
         -5    1    3    3    0  501 -0.56223444597E+02 -0.23759825910E+02  0.54277785257E+03  0.54621927125E+03  0.47000000000E+01 0. -1.
          5    1    4    4  502    0  0.44610272146E+02  0.54674473153E+02  0.44823239815E+03  0.45377719989E+03  0.47000000000E+01 0.  1.
         -5    1    4    4    0  502 -0.31908820647E+02 -0.44919671947E+02  0.34712581535E+03  0.35150301769E+03  0.47000000000E+01 0.  1.
<mgrwt>
<rscale>  0 0.25303483E+03</rscale>
<asrwt>0</asrwt>
<pdfrwt beam="1">  1       21 0.22622109E+00 0.25303483E+03</pdfrwt>
<pdfrwt beam="2">  1       21 0.16747146E-02 0.25303483E+03</pdfrwt>
<totfact> 0.14647716E+05</totfact>
</mgrwt>
</event>
<event>
 8    1  0.9705063E-006  0.3530187E+03  0.7546771E-02  0.1061383E+00
         21   -1    0    0  504  503  0.00000000000E+00  0.00000000000E+00  0.56423589078E+02  0.56423589078E+02  0.00000000000E+00 0. -1.
         21   -1    0    0  503  504 -0.00000000000E+00 -0.00000000000E+00 -0.55217243764E+03  0.55217243764E+03  0.00000000000E+00 0. -1.
         25    2    1    2    0    0  0.25062603140E+02 -0.65622299238E+02 -0.42533341537E+03  0.44885145165E+03  0.12499876473E+03 0.  0.
         25    2    1    2    0    0 -0.25062603140E+02  0.65622299238E+02 -0.70415433191E+02  0.15974457507E+03  0.12500230317E+03 0.  0.
          5    1    3    3  501    0  0.56827829279E+02 -0.87537590443E+02 -0.31441196389E+03  0.33131435973E+03  0.47000000000E+01 0.  1.
         -5    1    3    3    0  501 -0.31765226138E+02  0.21915291205E+02 -0.11092145148E+03  0.11753709193E+03  0.47000000000E+01 0.  1.
          5    1    4    4  502    0  0.35114700215E+02 -0.15202700639E+02 -0.37113509063E+02  0.53513239790E+02  0.47000000000E+01 0.  1.
         -5    1    4    4    0  502 -0.60177303355E+02  0.80824999877E+02 -0.33301924128E+02  0.10623133528E+03  0.47000000000E+01 0.  1.
<mgrwt>
<rscale>  0 0.35301870E+03</rscale>
<asrwt>0</asrwt>
<pdfrwt beam="1">  1       21 0.86805521E-02 0.35301870E+03</pdfrwt>
<pdfrwt beam="2">  1       21 0.84949606E-01 0.35301870E+03</pdfrwt>
<totfact> 0.11885449E+05</totfact>
</mgrwt>
</event>
<event>
 8    1  0.9705063E-006  0.3281217E+03  0.7546771E-02  0.1071971E+00
         21   -1    0    0  504  503  0.00000000000E+00  0.00000000000E+00  0.72034638141E+02  0.72034638141E+02  0.00000000000E+00 0.  1.
         21   -1    0    0  503  504 -0.00000000000E+00 -0.00000000000E+00 -0.37365296606E+03  0.37365296606E+03  0.00000000000E+00 0.  1.
         25    2    1    2    0    0  0.69173434042E+02 -0.21908268011E+02 -0.45368201336E+02  0.15148689463E+03  0.12500027746E+03 0.  0.
         25    2    1    2    0    0 -0.69173434042E+02  0.21908268011E+02 -0.25625012658E+03  0.29420070957E+03  0.12499997582E+03 0.  0.
          5    1    3    3  501    0  0.36200700935E+02  0.45496759984E+02  0.85673271298E+01  0.58957060742E+02  0.47000000000E+01 0. -1.
         -5    1    3    3    0  501  0.32972733107E+02 -0.67405027995E+02 -0.53935528465E+02  0.92529833883E+02  0.47000000000E+01 0. -1.
          5    1    4    4  502    0  0.31940432838E+02 -0.72903181654E+01 -0.30191381633E+02  0.44798990097E+02  0.47000000000E+01 0. -1.
         -5    1    4    4    0  502 -0.10111386688E+03  0.29198586177E+02 -0.22605874495E+03  0.24940171948E+03  0.47000000000E+01 0. -1.
<mgrwt>
<rscale>  0 0.32812166E+03</rscale>
<asrwt>0</asrwt>
<pdfrwt beam="1">  1       21 0.11082252E-01 0.32812166E+03</pdfrwt>
<pdfrwt beam="2">  1       21 0.57485073E-01 0.32812166E+03</pdfrwt>
<totfact> 0.18517048E+05</totfact>
</mgrwt>
</event>
<event>
 8    1  0.9705063E-006  0.3856747E+03  0.7546771E-02  0.1048856E+00
         21   -1    0    0  504  503  0.00000000000E+00  0.00000000000E+00  0.55867466890E+03  0.55867466890E+03  0.00000000000E+00 0. -1.
         21   -1    0    0  503  504 -0.00000000000E+00 -0.00000000000E+00 -0.66561535762E+02  0.66561535762E+02  0.00000000000E+00 0. -1.
         25    2    1    2    0    0 -0.11520061298E+03  0.91042168512E+02  0.24774140769E+03  0.31394826375E+03  0.12501139767E+03 0.  0.
         25    2    1    2    0    0  0.11520061298E+03 -0.91042168512E+02  0.24437172544E+03  0.31128794091E+03  0.12499113680E+03 0.  0.
          5    1    3    3  501    0 -0.20849538590E+02 -0.28596991388E+02  0.23293901454E+02  0.42628476642E+02  0.47000000000E+01 0. -1.
         -5    1    3    3    0  501 -0.94351074395E+02  0.11963915990E+03  0.22444750624E+03  0.27131978711E+03  0.47000000000E+01 0. -1.
          5    1    4    4  502    0  0.12068943757E+03 -0.10868018966E+03  0.17266878366E+03  0.23709475493E+03  0.47000000000E+01 0. -1.
         -5    1    4    4    0  502 -0.54888245836E+01  0.17638021145E+02  0.71702941780E+02  0.74193185975E+02  0.47000000000E+01 0. -1.
<mgrwt>
<rscale>  0 0.38567470E+03</rscale>
<asrwt>0</asrwt>
<pdfrwt beam="1">  1       21 0.85949946E-01 0.38567470E+03</pdfrwt>
<pdfrwt beam="2">  1       21 0.10240237E-01 0.38567470E+03</pdfrwt>
<totfact> 0.85460188E+04</totfact>
</mgrwt>
</event>
<event>
 8    1  0.9705063E-006  0.2876337E+03  0.7546771E-02  0.1091591E+00
         21   -1    0    0  504  503  0.00000000000E+00  0.00000000000E+00  0.25671458459E+02  0.25671458459E+02  0.00000000000E+00 0. -1.
         21   -1    0    0  503  504 -0.00000000000E+00 -0.00000000000E+00 -0.80569180929E+03  0.80569180929E+03  0.00000000000E+00 0. -1.
         25    2    1    2    0    0  0.26072486058E+02 -0.22357530111E+02 -0.20982307951E+03  0.24661592688E+03  0.12495622039E+03 0.  0.
         25    2    1    2    0    0 -0.26072486058E+02  0.22357530111E+02 -0.57019727132E+03  0.58474734087E+03  0.12499956299E+03 0.  0.
          5    1    3    3  501    0 -0.24615092207E+02 -0.58824080163E+02 -0.13247156614E+03  0.14709514270E+03  0.47000000000E+01 0. -1.
         -5    1    3    3    0  501  0.50687578265E+02  0.36466550052E+02 -0.77351513375E+02  0.99520784183E+02  0.47000000000E+01 0. -1.
          5    1    4    4  502    0  0.14465131026E+02 -0.27972878850E+02 -0.41954471832E+03  0.42075121229E+03  0.47000000000E+01 0. -1.
         -5    1    4    4    0  502 -0.40537617084E+02  0.50330408961E+02 -0.15065255300E+03  0.16399612858E+03  0.47000000000E+01 0. -1.
<mgrwt>
<rscale>  0 0.28763368E+03</rscale>
<asrwt>0</asrwt>
<pdfrwt beam="1">  1       21 0.39494552E-02 0.28763368E+03</pdfrwt>
<pdfrwt beam="2">  1       21 0.12395258E+00 0.28763368E+03</pdfrwt>
<totfact> 0.18895508E+05</totfact>
</mgrwt>
</event>
<event>
 8    1  0.9705063E-006  0.2540249E+03  0.7546771E-02  0.1110787E+00
         21   -1    0    0  504  503  0.00000000000E+00  0.00000000000E+00  0.89841117119E+02  0.89841117119E+02  0.00000000000E+00 0.  1.
         21   -1    0    0  503  504 -0.00000000000E+00 -0.00000000000E+00 -0.17956330847E+03  0.17956330847E+03  0.00000000000E+00 0.  1.
         25    2    1    2    0    0  0.88049080497E+01 -0.20291054696E+02 -0.48916501806E+02  0.13607290234E+03  0.12503502428E+03 0.  0.
         25    2    1    2    0    0 -0.88049080497E+01  0.20291054696E+02 -0.40805689541E+02  0.13333152324E+03  0.12499174967E+03 0.  0.
          5    1    3    3  501    0  0.25850390163E+02 -0.45062069535E+02  0.23731848954E+02  0.57307272114E+02  0.47000000000E+01 0. -1.
         -5    1    3    3    0  501 -0.17045482113E+02  0.24771014840E+02 -0.72648350761E+02  0.78765630226E+02  0.47000000000E+01 0. -1.
          5    1    4    4  502    0  0.11509347566E+02 -0.44075780915E+02 -0.46710146535E+02  0.65414580439E+02  0.47000000000E+01 0.  1.
         -5    1    4    4    0  502 -0.20314255615E+02  0.64366835611E+02  0.59044569935E+01  0.67916942806E+02  0.47000000000E+01 0.  1.
<mgrwt>
<rscale>  0 0.25402495E+03</rscale>
<asrwt>0</asrwt>
<pdfrwt beam="1">  1       21 0.13821710E-01 0.25402495E+03</pdfrwt>
<pdfrwt beam="2">  1       21 0.27625124E-01 0.25402495E+03</pdfrwt>
<totfact> 0.56273330E+05</totfact>
</mgrwt>
</event>
<event>
 8    1  0.9705063E-006  0.3134211E+03  0.7546771E-02  0.1078718E+00
         21   -1    0    0  504  503  0.00000000000E+00  0.00000000000E+00  0.46633238503E+02  0.46633238503E+02  0.00000000000E+00 0.  1.
         21   -1    0    0  503  504 -0.00000000000E+00 -0.00000000000E+00 -0.52662423000E+03  0.52662423000E+03  0.00000000000E+00 0.  1.
         25    2    1    2    0    0  0.85259763592E+02 -0.98029009738E+01 -0.16754930225E+03  0.22596983887E+03  0.12499710093E+03 0.  0.
         25    2    1    2    0    0 -0.85259763592E+02  0.98029009738E+01 -0.31244168924E+03  0.34728762963E+03  0.12499425731E+03 0.  0.
          5    1    3    3  501    0  0.63055565869E+02  0.39366508296E+02 -0.15257160614E+03  0.16978195241E+03  0.47000000000E+01 0. -1.
         -5    1    3    3    0  501  0.22204197723E+02 -0.49169409269E+02 -0.14977696105E+02  0.56187886462E+02  0.47000000000E+01 0. -1.
          5    1    4    4  502    0 -0.57350408892E+02  0.75431284678E+01 -0.31354802583E+03  0.31887367826E+03  0.47000000000E+01 0.  1.
         -5    1    4    4    0  502 -0.27909354699E+02  0.22597725060E+01  0.11063365869E+01  0.28413951365E+02  0.47000000000E+01 0.  1.
<mgrwt>
<rscale>  0 0.31342108E+03</rscale>
<asrwt>0</asrwt>
<pdfrwt beam="1">  1       21 0.71743445E-02 0.31342108E+03</pdfrwt>
<pdfrwt beam="2">  1       21 0.81019111E-01 0.31342108E+03</pdfrwt>
<totfact> 0.18717743E+05</totfact>
</mgrwt>
</event>
<event>
 8    1  0.9705063E-006  0.9875257E+03  0.7546771E-02  0.9322333E-01
         21   -1    0    0  504  503  0.00000000000E+00  0.00000000000E+00  0.72403838089E+03  0.72403838089E+03  0.00000000000E+00 0. -1.
         21   -1    0    0  503  504 -0.00000000000E+00 -0.00000000000E+00 -0.33672488842E+03  0.33672488842E+03  0.00000000000E+00 0. -1.
         25    2    1    2    0    0 -0.73187081142E+02 -0.46250435218E+03  0.92254976763E+02  0.49335839076E+03  0.12499958549E+03 0.  0.
         25    2    1    2    0    0  0.73187081142E+02  0.46250435218E+03  0.29505851570E+03  0.56740487855E+03  0.12498857501E+03 0.  0.
          5    1    3    3  501    0 -0.10214664467E+03 -0.25856536593E+03  0.41175758576E+02  0.28108276107E+03  0.47000000000E+01 0. -1.
         -5    1    3    3    0  501  0.28959563533E+02 -0.20393898624E+03  0.51079218187E+02  0.21227562969E+03  0.47000000000E+01 0. -1.
          5    1    4    4  502    0  0.44964095468E+02  0.42540763656E+03  0.29654470972E+03  0.52053269061E+03  0.47000000000E+01 0.  1.
         -5    1    4    4    0  502  0.28222985674E+02  0.37096715611E+02 -0.14861940191E+01  0.46872187939E+02  0.47000000000E+01 0.  1.
<mgrwt>
<rscale>  0 0.98752568E+03</rscale>
<asrwt>0</asrwt>
<pdfrwt beam="1">  1       21 0.11139052E+00 0.98752568E+03</pdfrwt>
<pdfrwt beam="2">  1       21 0.51803829E-01 0.98752568E+03</pdfrwt>
<totfact> 0.16911244E+03</totfact>
</mgrwt>
</event>
<event>
 8    1  0.9705063E-006  0.2738277E+03  0.7546771E-02  0.1099109E+00
         21   -1    0    0  504  503  0.00000000000E+00  0.00000000000E+00  0.40871200994E+03  0.40871200994E+03  0.00000000000E+00 0.  1.
         21   -1    0    0  503  504 -0.00000000000E+00 -0.00000000000E+00 -0.45864574850E+02  0.45864574850E+02  0.00000000000E+00 0.  1.
         25    2    1    2    0    0 -0.47657634470E+02  0.10690549068E+02  0.13645171038E+03  0.19139323168E+03  0.12500704742E+03 0.  0.
         25    2    1    2    0    0  0.47657634470E+02 -0.10690549068E+02  0.22639572471E+03  0.26318335311E+03  0.12499966089E+03 0.  0.
          5    1    3    3  501    0 -0.80526647110E+02 -0.88885231698E+01  0.12858625728E+03  0.15205282734E+03  0.47000000000E+01 0. -1.
         -5    1    3    3    0  501  0.32869012640E+02  0.19579072238E+02  0.78654530929E+01  0.39340404344E+02  0.47000000000E+01 0. -1.
          5    1    4    4  502    0  0.71091445862E+02 -0.38474337268E+02  0.86155410966E+02  0.11823329963E+03  0.47000000000E+01 0. -1.
         -5    1    4    4    0  502 -0.23433811392E+02  0.27783788200E+02  0.14024031375E+03  0.14495005348E+03  0.47000000000E+01 0. -1.
<mgrwt>
<rscale>  0 0.27382770E+03</rscale>
<asrwt>0</asrwt>
<pdfrwt beam="1">  1       21 0.62878768E-01 0.27382770E+03</pdfrwt>
<pdfrwt beam="2">  1       21 0.70560887E-02 0.27382770E+03</pdfrwt>
<totfact> 0.34274206E+05</totfact>
</mgrwt>
</event>
<event>
 8    1  0.9705063E-006  0.3137511E+03  0.7546771E-02  0.1078562E+00
         21   -1    0    0  504  503  0.00000000000E+00  0.00000000000E+00  0.14738154629E+03  0.14738154629E+03  0.00000000000E+00 0. -1.
         21   -1    0    0  503  504 -0.00000000000E+00 -0.00000000000E+00 -0.16698114285E+03  0.16698114285E+03  0.00000000000E+00 0. -1.
         25    2    1    2    0    0 -0.40628318210E+02 -0.13981020589E+02  0.74865278501E+02  0.15191347890E+03  0.12500706368E+03 0.  0.
         25    2    1    2    0    0  0.40628318210E+02  0.13981020589E+02 -0.94464875059E+02  0.16244921023E+03  0.12498001483E+03 0.  0.
          5    1    3    3  501    0 -0.72503660729E+01 -0.14605726681E+02  0.10520118766E+03  0.10656113243E+03  0.47000000000E+01 0. -1.
         -5    1    3    3    0  501 -0.33377952137E+02  0.62470609186E+00 -0.30335909155E+02  0.45352346475E+02  0.47000000000E+01 0. -1.
          5    1    4    4  502    0  0.18806142772E+02  0.65280797635E+02 -0.79214398703E+02  0.10446178492E+03  0.47000000000E+01 0. -1.
         -5    1    4    4    0  502  0.21822175438E+02 -0.51299777046E+02 -0.15250476357E+02  0.57987425317E+02  0.47000000000E+01 0. -1.
<mgrwt>
<rscale>  0 0.31375111E+03</rscale>
<asrwt>0</asrwt>
<pdfrwt beam="1">  1       21 0.22674084E-01 0.31375111E+03</pdfrwt>
<pdfrwt beam="2">  1       21 0.25689407E-01 0.31375111E+03</pdfrwt>
<totfact> 0.25469233E+05</totfact>
</mgrwt>
</event>
<event>
 8    1  0.9705063E-006  0.3839620E+03  0.7546771E-02  0.1049479E+00
         21   -1    0    0  504  503  0.00000000000E+00  0.00000000000E+00  0.13422914266E+03  0.13422914266E+03  0.00000000000E+00 0. -1.
         21   -1    0    0  503  504 -0.00000000000E+00 -0.00000000000E+00 -0.27458053508E+03  0.27458053508E+03  0.00000000000E+00 0. -1.
         25    2    1    2    0    0 -0.14457834047E+03 -0.88897103320E+01 -0.53343619783E+02  0.19862675841E+03  0.12500049560E+03 0.  0.
         25    2    1    2    0    0  0.14457834047E+03  0.88897103320E+01 -0.87007772633E+02  0.21018291934E+03  0.12499833439E+03 0.  0.
          5    1    3    3  501    0  0.24163893242E+01 -0.11036353454E+02  0.27992589035E+02  0.30550205822E+02  0.47000000000E+01 0. -1.
         -5    1    3    3    0  501 -0.14699472979E+03  0.21466431216E+01 -0.81336208818E+02  0.16807655258E+03  0.47000000000E+01 0. -1.
          5    1    4    4  502    0  0.72076136115E+02  0.47941191276E+02 -0.93423381994E+02  0.12744938415E+03  0.47000000000E+01 0. -1.
         -5    1    4    4    0  502  0.72502204355E+02 -0.39051480944E+02  0.64156093600E+01  0.82733535182E+02  0.47000000000E+01 0. -1.
<mgrwt>
<rscale>  0 0.38396203E+03</rscale>
<asrwt>0</asrwt>
<pdfrwt beam="1">  1       21 0.20650637E-01 0.38396203E+03</pdfrwt>
<pdfrwt beam="2">  1       21 0.42243159E-01 0.38396203E+03</pdfrwt>
<totfact> 0.11101380E+05</totfact>
</mgrwt>
</event>
<event>
 8    1  0.9705063E-006  0.3233006E+03  0.7546771E-02  0.1074140E+00
         21   -1    0    0  504  503  0.00000000000E+00  0.00000000000E+00  0.13678165303E+03  0.13678165303E+03  0.00000000000E+00 0.  1.
         21   -1    0    0  503  504 -0.00000000000E+00 -0.00000000000E+00 -0.19104041028E+03  0.19104041028E+03  0.00000000000E+00 0.  1.
         25    2    1    2    0    0  0.21690699831E+02  0.43477858541E+02 -0.11863993146E+03  0.17905358757E+03  0.12499577291E+03 0.  0.
         25    2    1    2    0    0 -0.21690699831E+02 -0.43477858541E+02  0.64381174208E+02  0.14876847574E+03  0.12500525244E+03 0.  0.
          5    1    3    3  501    0  0.67607281712E+02  0.28537238639E+02 -0.32939941886E+02  0.80574489146E+02  0.47000000000E+01 0.  1.
         -5    1    3    3    0  501 -0.45916581881E+02  0.14940619902E+02 -0.85699989570E+02  0.98479098427E+02  0.47000000000E+01 0.  1.
          5    1    4    4  502    0 -0.37700808837E+02 -0.47650369782E+02  0.95456039013E+02  0.11325128746E+03  0.47000000000E+01 0. -1.
         -5    1    4    4    0  502  0.16010109006E+02  0.41725112407E+01 -0.31074864805E+02  0.35517188277E+02  0.47000000000E+01 0. -1.
<mgrwt>
<rscale>  0 0.32330062E+03</rscale>
<asrwt>0</asrwt>
<pdfrwt beam="1">  1       21 0.21043331E-01 0.32330062E+03</pdfrwt>
<pdfrwt beam="2">  1       21 0.29390833E-01 0.32330062E+03</pdfrwt>
<totfact> 0.22534711E+05</totfact>
</mgrwt>
</event>
<event>
 8    1  0.9705063E-006  0.3117274E+03  0.7546771E-02  0.1079521E+00
         21   -1    0    0  504  503  0.00000000000E+00  0.00000000000E+00  0.20162265947E+03  0.20162265947E+03  0.00000000000E+00 0.  1.
         21   -1    0    0  503  504 -0.00000000000E+00 -0.00000000000E+00 -0.12048993039E+03  0.12048993039E+03  0.00000000000E+00 0.  1.
         25    2    1    2    0    0 -0.47523300721E+02  0.14362944807E+02 -0.40795910353E+02  0.14056601063E+03  0.12501895356E+03 0.  0.
         25    2    1    2    0    0  0.47523300721E+02 -0.14362944807E+02  0.12192863944E+03  0.18154657923E+03  0.12501123558E+03 0.  0.
          5    1    3    3  501    0 -0.29629080998E+02  0.36905647688E+02  0.35198126761E+02  0.59168466260E+02  0.47000000000E+01 0. -1.
         -5    1    3    3    0  501 -0.17894219723E+02 -0.22542702880E+02 -0.75994037115E+02  0.81397544371E+02  0.47000000000E+01 0. -1.
          5    1    4    4  502    0  0.33779198240E+02  0.34147125866E+02  0.12168700919E+03  0.13090790138E+03  0.47000000000E+01 0. -1.
         -5    1    4    4    0  502  0.13744102482E+02 -0.48510070673E+02  0.24163024921E+00  0.50638677855E+02  0.47000000000E+01 0. -1.
<mgrwt>
<rscale>  0 0.31172745E+03</rscale>
<asrwt>0</asrwt>
<pdfrwt beam="1">  1       21 0.31018871E-01 0.31172745E+03</pdfrwt>
<pdfrwt beam="2">  1       21 0.18536912E-01 0.31172745E+03</pdfrwt>
<totfact> 0.25797703E+05</totfact>
</mgrwt>
</event>
<event>
 8    1  0.9705063E-006  0.3149068E+03  0.7546771E-02  0.1078018E+00
         21   -1    0    0  504  503  0.00000000000E+00  0.00000000000E+00  0.73456132593E+02  0.73456132593E+02  0.00000000000E+00 0. -1.
         21   -1    0    0  503  504 -0.00000000000E+00 -0.00000000000E+00 -0.33750168510E+03  0.33750168510E+03  0.00000000000E+00 0. -1.
         25    2    1    2    0    0  0.30097642540E+02 -0.69177428070E+02 -0.55105068959E+02  0.15606054159E+03  0.12500775726E+03 0.  0.
         25    2    1    2    0    0 -0.30097642540E+02  0.69177428070E+02 -0.20894048355E+03  0.25489727610E+03  0.12500044424E+03 0.  0.
          5    1    3    3  501    0  0.77757413744E+02 -0.46961263931E+02 -0.21456884420E+02  0.93456212160E+02  0.47000000000E+01 0.  1.
         -5    1    3    3    0  501 -0.47659771205E+02 -0.22216164140E+02 -0.33648184539E+02  0.62604329428E+02  0.47000000000E+01 0.  1.
          5    1    4    4  502    0  0.30559148028E+02  0.75438800118E+02 -0.91982798894E+02  0.12291378842E+03  0.47000000000E+01 0.  1.
         -5    1    4    4    0  502 -0.60656790567E+02 -0.62613720472E+01 -0.11695768465E+03  0.13198348768E+03  0.47000000000E+01 0.  1.
<mgrwt>
<rscale>  0 0.31490677E+03</rscale>
<asrwt>0</asrwt>
<pdfrwt beam="1">  1       21 0.11300943E-01 0.31490677E+03</pdfrwt>
<pdfrwt beam="2">  1       21 0.51923337E-01 0.31490677E+03</pdfrwt>
<totfact> 0.22288791E+05</totfact>
</mgrwt>
</event>
<event>
 8    1  0.9705063E-006  0.4182459E+03  0.7546771E-02  0.1037639E+00
         21   -1    0    0  504  503  0.00000000000E+00  0.00000000000E+00  0.13571127374E+03  0.13571127374E+03  0.00000000000E+00 0. -1.
         21   -1    0    0  503  504 -0.00000000000E+00 -0.00000000000E+00 -0.32224592827E+03  0.32224592827E+03  0.00000000000E+00 0. -1.
         25    2    1    2    0    0  0.14963904929E+03  0.61656535106E+02 -0.14117759148E+03  0.24849370394E+03  0.12499854067E+03 0.  0.
         25    2    1    2    0    0 -0.14963904929E+03 -0.61656535106E+02 -0.45357063050E+02  0.20946349806E+03  0.12499728180E+03 0.  0.
          5    1    3    3  501    0  0.16823375643E+03  0.71586325861E+02 -0.12682443691E+03  0.22256173672E+03  0.47000000000E+01 0.  1.
         -5    1    3    3    0  501 -0.18594707142E+02 -0.99297907546E+01 -0.14353154565E+02  0.25931967224E+02  0.47000000000E+01 0.  1.
          5    1    4    4  502    0 -0.14218554600E+03 -0.35999995516E+02 -0.78668235452E+02  0.16650378505E+03  0.47000000000E+01 0. -1.
         -5    1    4    4    0  502 -0.74535032905E+01 -0.25656539591E+02  0.33311172402E+02  0.42959713009E+02  0.47000000000E+01 0. -1.
<mgrwt>
<rscale>  0 0.41824589E+03</rscale>
<asrwt>0</asrwt>
<pdfrwt beam="1">  1       21 0.20878657E-01 0.41824589E+03</pdfrwt>
<pdfrwt beam="2">  1       21 0.49576297E-01 0.41824589E+03</pdfrwt>
<totfact> 0.77183875E+04</totfact>
</mgrwt>
</event>
<event>
 8    1  0.9705063E-006  0.2758178E+03  0.7546771E-02  0.1097995E+00
         21   -1    0    0  504  503  0.00000000000E+00  0.00000000000E+00  0.21142957416E+03  0.21142957416E+03  0.00000000000E+00 0.  1.
         21   -1    0    0  503  504 -0.00000000000E+00 -0.00000000000E+00 -0.89953650415E+02  0.89953650415E+02  0.00000000000E+00 0.  1.
         25    2    1    2    0    0 -0.21787417693E+02 -0.29946578455E+02  0.10988102691E+03  0.17049900951E+03  0.12499833214E+03 0.  0.
         25    2    1    2    0    0  0.21787417693E+02  0.29946578455E+02  0.11594896829E+02  0.13088421506E+03  0.12499898795E+03 0.  0.
          5    1    3    3  501    0  0.16487888517E+02 -0.58743879952E+02  0.10576763650E+03  0.12219483144E+03  0.47000000000E+01 0.  1.
         -5    1    3    3    0  501 -0.38275306209E+02  0.28797301497E+02  0.41133904157E+01  0.48304178076E+02  0.47000000000E+01 0.  1.
          5    1    4    4  502    0  0.48621894476E+02 -0.18918542945E+02  0.42061017796E+02  0.67180496482E+02  0.47000000000E+01 0. -1.
         -5    1    4    4    0  502 -0.26834476783E+02  0.48865121400E+02 -0.30466120967E+02  0.63703718577E+02  0.47000000000E+01 0. -1.
<mgrwt>
<rscale>  0 0.27581778E+03</rscale>
<asrwt>0</asrwt>
<pdfrwt beam="1">  1       21 0.32527627E-01 0.27581778E+03</pdfrwt>
<pdfrwt beam="2">  1       21 0.13839023E-01 0.27581778E+03</pdfrwt>
<totfact> 0.40582243E+05</totfact>
</mgrwt>
</event>
<event>
 8    1  0.9705063E-006  0.2823628E+03  0.7546771E-02  0.1094405E+00
         21   -1    0    0  504  503  0.00000000000E+00  0.00000000000E+00  0.17470657693E+03  0.17470657693E+03  0.00000000000E+00 0. -1.
         21   -1    0    0  503  504 -0.00000000000E+00 -0.00000000000E+00 -0.11408947817E+03  0.11408947817E+03  0.00000000000E+00 0. -1.
         25    2    1    2    0    0 -0.58976687345E+02 -0.26055075822E+02  0.17741929032E+02  0.14175884676E+03  0.12499471173E+03 0.  0.
         25    2    1    2    0    0  0.58976687345E+02  0.26055075822E+02  0.42875169722E+02  0.14703720835E+03  0.12499817532E+03 0.  0.
          5    1    3    3  501    0 -0.92380045420E+02 -0.24782528189E+02 -0.12327328099E+02  0.96552055977E+02  0.47000000000E+01 0.  1.
         -5    1    3    3    0  501  0.33403358074E+02 -0.12725476332E+01  0.30069257131E+02  0.45206790779E+02  0.47000000000E+01 0.  1.
          5    1    4    4  502    0  0.67358733235E+01  0.55331509713E+02 -0.20632276521E+02  0.59621546366E+02  0.47000000000E+01 0. -1.
         -5    1    4    4    0  502  0.52240814022E+02 -0.29276433891E+02  0.63507446244E+02  0.87415661980E+02  0.47000000000E+01 0. -1.
<mgrwt>
<rscale>  0 0.28236276E+03</rscale>
<asrwt>0</asrwt>
<pdfrwt beam="1">  1       21 0.26877935E-01 0.28236276E+03</pdfrwt>
<pdfrwt beam="2">  1       21 0.17552227E-01 0.28236276E+03</pdfrwt>
<totfact> 0.38044444E+05</totfact>
</mgrwt>
</event>
<event>
 8    1  0.9705063E-006  0.3987253E+03  0.7546771E-02  0.1044222E+00
         21   -1    0    0  504  503  0.00000000000E+00  0.00000000000E+00  0.16884465305E+03  0.16884465305E+03  0.00000000000E+00 0. -1.
         21   -1    0    0  503  504 -0.00000000000E+00 -0.00000000000E+00 -0.23539661865E+03  0.23539661865E+03  0.00000000000E+00 0. -1.
         25    2    1    2    0    0 -0.11027935517E+03 -0.10923192015E+03 -0.27945539410E+02  0.20124305474E+03  0.12499866139E+03 0.  0.
         25    2    1    2    0    0  0.11027935517E+03  0.10923192015E+03 -0.38606426189E+02  0.20299821696E+03  0.12499868555E+03 0.  0.
          5    1    3    3  501    0 -0.70274626162E+01 -0.15367924060E+01  0.37343913318E+02  0.38319770662E+02  0.47000000000E+01 0. -1.
         -5    1    3    3    0  501 -0.10325189255E+03 -0.10769512775E+03 -0.65289452728E+02  0.16292328408E+03  0.47000000000E+01 0. -1.
          5    1    4    4  502    0  0.68783153335E+01  0.67193399835E+02 -0.58551055641E+02  0.89513017600E+02  0.47000000000E+01 0. -1.
         -5    1    4    4    0  502  0.10340103984E+03  0.42038520319E+02  0.19944629452E+02  0.11348519936E+03  0.47000000000E+01 0. -1.
<mgrwt>
<rscale>  0 0.39872527E+03</rscale>
<asrwt>0</asrwt>
<pdfrwt beam="1">  1       21 0.25976101E-01 0.39872527E+03</pdfrwt>
<pdfrwt beam="2">  1       21 0.36214864E-01 0.39872527E+03</pdfrwt>
<totfact> 0.97524386E+04</totfact>
</mgrwt>
</event>
<event>
 8    1  0.9705063E-006  0.2935343E+03  0.7546771E-02  0.1088518E+00
         21   -1    0    0  504  503  0.00000000000E+00  0.00000000000E+00  0.19294778422E+02  0.19294778422E+02  0.00000000000E+00 0.  1.
         21   -1    0    0  503  504 -0.00000000000E+00 -0.00000000000E+00 -0.11163954647E+04  0.11163954647E+04  0.00000000000E+00 0.  1.
         25    2    1    2    0    0 -0.68120619221E+02  0.11536222853E+02 -0.67933084387E+03  0.69418130243E+03  0.12499512795E+03 0.  0.
         25    2    1    2    0    0  0.68120619221E+02 -0.11536222853E+02 -0.41776984238E+03  0.44150894066E+03  0.12500000112E+03 0.  0.
          5    1    3    3  501    0 -0.92227995295E+02  0.12750081561E+02 -0.64636835291E+03  0.65305643351E+03  0.47000000000E+01 0.  1.
         -5    1    3    3    0  501  0.24107376073E+02 -0.12138587080E+01 -0.32962490958E+02  0.41124868927E+02  0.47000000000E+01 0.  1.
          5    1    4    4  502    0  0.80718931233E+02 -0.25962409465E+02 -0.41242376253E+03  0.42107605307E+03  0.47000000000E+01 0.  1.
         -5    1    4    4    0  502 -0.12598312012E+02  0.14426186611E+02 -0.53460798464E+01  0.20432887594E+02  0.47000000000E+01 0.  1.
<mgrwt>
<rscale>  0 0.29353435E+03</rscale>
<asrwt>0</asrwt>
<pdfrwt beam="1">  1       21 0.29684272E-02 0.29353435E+03</pdfrwt>
<pdfrwt beam="2">  1       21 0.17175316E+00 0.29353435E+03</pdfrwt>
<totfact> 0.12801599E+05</totfact>
</mgrwt>
</event>
<event>
 8    1  0.9705063E-006  0.2760200E+03  0.7546771E-02  0.1097883E+00
         21   -1    0    0  504  503  0.00000000000E+00  0.00000000000E+00  0.52539099386E+03  0.52539099386E+03  0.00000000000E+00 0.  1.
         21   -1    0    0  503  504 -0.00000000000E+00 -0.00000000000E+00 -0.36252548481E+02  0.36252548481E+02  0.00000000000E+00 0.  1.
         25    2    1    2    0    0 -0.28894022558E+02  0.32386323341E+02  0.32441539644E+03  0.35035198316E+03  0.12496969304E+03 0.  0.
         25    2    1    2    0    0  0.28894022558E+02 -0.32386323341E+02  0.16472304894E+03  0.21129155918E+03  0.12500680642E+03 0.  0.
          5    1    3    3  501    0  0.69359331391E+01 -0.44517637641E+02  0.14341138440E+03  0.15039561964E+03  0.47000000000E+01 0.  1.
         -5    1    3    3    0  501 -0.35829955697E+02  0.76903960982E+02  0.18100401204E+03  0.19995636352E+03  0.47000000000E+01 0.  1.
          5    1    4    4  502    0  0.23632432846E+02 -0.72534995404E+02  0.14926353301E+03  0.16769469201E+03  0.47000000000E+01 0. -1.
         -5    1    4    4    0  502  0.52615897121E+01  0.40148672063E+02  0.15459515929E+02  0.43596867175E+02  0.47000000000E+01 0. -1.
<mgrwt>
<rscale>  0 0.27602002E+03</rscale>
<asrwt>0</asrwt>
<pdfrwt beam="1">  1       21 0.80829378E-01 0.27602002E+03</pdfrwt>
<pdfrwt beam="2">  1       21 0.55773155E-02 0.27602002E+03</pdfrwt>
<totfact> 0.29365359E+05</totfact>
</mgrwt>
</event>
<event>
 8    1  0.9705063E-006  0.2711015E+03  0.7546771E-02  0.1100651E+00
         21   -1    0    0  504  503  0.00000000000E+00  0.00000000000E+00  0.11509620768E+03  0.11509620768E+03  0.00000000000E+00 0.  1.
         21   -1    0    0  503  504 -0.00000000000E+00 -0.00000000000E+00 -0.15964045651E+03  0.15964045651E+03  0.00000000000E+00 0.  1.
         25    2    1    2    0    0  0.26981440854E+02 -0.72358555185E+01  0.22692248179E+02  0.13007877104E+03  0.12500077117E+03 0.  0.
         25    2    1    2    0    0 -0.26981440854E+02  0.72358555185E+01 -0.67236497014E+02  0.14465789315E+03  0.12499921506E+03 0.  0.
          5    1    3    3  501    0  0.64788975054E+01  0.92264261722E+01  0.72521013000E+02  0.73542439308E+02  0.47000000000E+01 0.  1.
         -5    1    3    3    0  501  0.20502543349E+02 -0.16462281691E+02 -0.49828764820E+02  0.56536331732E+02  0.47000000000E+01 0.  1.
          5    1    4    4  502    0  0.32557481518E+02  0.38808851795E+02 -0.56880728363E+02  0.76312671553E+02  0.47000000000E+01 0.  1.
         -5    1    4    4    0  502 -0.59538922372E+02 -0.31572996277E+02 -0.10355768651E+02  0.68345221599E+02  0.47000000000E+01 0.  1.
<mgrwt>
<rscale>  0 0.27110154E+03</rscale>
<asrwt>0</asrwt>
<pdfrwt beam="1">  1       21 0.17707109E-01 0.27110154E+03</pdfrwt>
<pdfrwt beam="2">  1       21 0.24560070E-01 0.27110154E+03</pdfrwt>
<totfact> 0.44636847E+05</totfact>
</mgrwt>
</event>
<event>
 8    1  0.9705063E-006  0.2740468E+03  0.7546771E-02  0.1098986E+00
         21   -1    0    0  504  503  0.00000000000E+00  0.00000000000E+00  0.45680237140E+03  0.45680237140E+03  0.00000000000E+00 0.  1.
         21   -1    0    0  503  504 -0.00000000000E+00 -0.00000000000E+00 -0.41101823615E+02  0.41101823615E+02  0.00000000000E+00 0.  1.
         25    2    1    2    0    0  0.28544481467E+02 -0.94003350838E+01  0.29397623175E+03  0.32085823420E+03  0.12499931158E+03 0.  0.
         25    2    1    2    0    0 -0.28544481467E+02  0.94003350838E+01  0.12172431603E+03  0.17704596081E+03  0.12500123762E+03 0.  0.
          5    1    3    3  501    0  0.12450873892E+02 -0.62042243927E+02  0.21714193031E+03  0.22622327950E+03  0.47000000000E+01 0.  1.
         -5    1    3    3    0  501  0.16093607575E+02  0.52641908843E+02  0.76834301447E+02  0.94634954696E+02  0.47000000000E+01 0.  1.
          5    1    4    4  502    0  0.12052385910E+01 -0.56133569825E+02  0.56800120696E+02  0.80004837181E+02  0.47000000000E+01 0.  1.
         -5    1    4    4    0  502 -0.29749720058E+02  0.65533904908E+02  0.64924195333E+02  0.97041123632E+02  0.47000000000E+01 0.  1.
<mgrwt>
<rscale>  0 0.27404679E+03</rscale>
<asrwt>0</asrwt>
<pdfrwt beam="1">  1       21 0.70277284E-01 0.27404679E+03</pdfrwt>
<pdfrwt beam="2">  1       21 0.63233578E-02 0.27404679E+03</pdfrwt>
<totfact> 0.32440592E+05</totfact>
</mgrwt>
</event>
<event>
 8    1  0.9705063E-006  0.2621794E+03  0.7546771E-02  0.1105841E+00
         21   -1    0    0  504  503  0.00000000000E+00  0.00000000000E+00  0.33710360105E+03  0.33710360105E+03  0.00000000000E+00 0.  1.
         21   -1    0    0  503  504 -0.00000000000E+00 -0.00000000000E+00 -0.50976948535E+02  0.50976948535E+02  0.00000000000E+00 0.  1.
         25    2    1    2    0    0  0.15179208699E+02 -0.50722884125E+01  0.89579886567E+02  0.15461545347E+03  0.12500098355E+03 0.  0.
         25    2    1    2    0    0 -0.15179208699E+02  0.50722884125E+01  0.19654676595E+03  0.23346509612E+03  0.12497673148E+03 0.  0.
          5    1    3    3  501    0  0.41252558472E+02  0.39159355077E+00  0.11202047220E+03  0.11946800039E+03  0.47000000000E+01 0. -1.
         -5    1    3    3    0  501 -0.26073349774E+02 -0.54638819632E+01 -0.22440585632E+02  0.35147453080E+02  0.47000000000E+01 0. -1.
          5    1    4    4  502    0 -0.29432103405E+02  0.55838900237E+02  0.15062817730E+03  0.16338656397E+03  0.47000000000E+01 0.  1.
         -5    1    4    4    0  502  0.14252894706E+02 -0.50766611824E+02  0.45918588655E+02  0.70078532146E+02  0.47000000000E+01 0.  1.
<mgrwt>
<rscale>  0 0.26217943E+03</rscale>
<asrwt>0</asrwt>
<pdfrwt beam="1">  1       21 0.51862091E-01 0.26217943E+03</pdfrwt>
<pdfrwt beam="2">  1       21 0.78426077E-02 0.26217943E+03</pdfrwt>
<totfact> 0.43198045E+05</totfact>
</mgrwt>
</event>
<event>
 8    1  0.9705063E-006  0.2923030E+03  0.7546771E-02  0.1089153E+00
         21   -1    0    0  504  503  0.00000000000E+00  0.00000000000E+00  0.64494001182E+03  0.64494001182E+03  0.00000000000E+00 0. -1.
         21   -1    0    0  503  504 -0.00000000000E+00 -0.00000000000E+00 -0.33119757240E+02  0.33119757240E+02  0.00000000000E+00 0. -1.
         25    2    1    2    0    0 -0.27315420039E+02  0.33701386306E+02  0.44990528646E+03  0.46895756074E+03  0.12499804551E+03 0.  0.
         25    2    1    2    0    0  0.27315420039E+02 -0.33701386306E+02  0.16191496812E+03  0.20910220832E+03  0.12500144404E+03 0.  0.
          5    1    3    3  501    0  0.31978602173E+02  0.13586896765E+02  0.34441404475E+03  0.34619410593E+03  0.47000000000E+01 0. -1.
         -5    1    3    3    0  501 -0.59294022212E+02  0.20114489541E+02  0.10549124171E+03  0.12276345481E+03  0.47000000000E+01 0. -1.
          5    1    4    4  502    0 -0.21946425102E+02  0.81428172632E+01 -0.96146421815E+01  0.25738733303E+02  0.47000000000E+01 0.  1.
         -5    1    4    4    0  502  0.49261845141E+02 -0.41844203570E+02  0.17152961030E+03  0.18336347502E+03  0.47000000000E+01 0.  1.
<mgrwt>
<rscale>  0 0.29230297E+03</rscale>
<asrwt>0</asrwt>
<pdfrwt beam="1">  1       21 0.99221530E-01 0.29230297E+03</pdfrwt>
<pdfrwt beam="2">  1       21 0.50953478E-02 0.29230297E+03</pdfrwt>
<totfact> 0.21149212E+05</totfact>
</mgrwt>
</event>
<event>
 8    1  0.9705063E-006  0.2746682E+03  0.7546771E-02  0.1098637E+00
         21   -1    0    0  504  503  0.00000000000E+00  0.00000000000E+00  0.26066648352E+02  0.26066648352E+02  0.00000000000E+00 0. -1.
         21   -1    0    0  503  504 -0.00000000000E+00 -0.00000000000E+00 -0.72355499865E+03  0.72355499865E+03  0.00000000000E+00 0. -1.
         25    2    1    2    0    0 -0.15283629401E+02 -0.53800354285E+02 -0.32029508644E+03  0.34833954851E+03  0.12499372468E+03 0.  0.
         25    2    1    2    0    0  0.15283629401E+02  0.53800354285E+02 -0.37719326386E+03  0.40128209849E+03  0.12499798727E+03 0.  0.
          5    1    3    3  501    0 -0.61670267474E+02 -0.64217684498E+02 -0.20980668010E+03  0.22796505414E+03  0.47000000000E+01 0.  1.
         -5    1    3    3    0  501  0.46386638073E+02  0.10417330213E+02 -0.11048840634E+03  0.12037449437E+03  0.47000000000E+01 0.  1.
          5    1    4    4  502    0  0.11197634474E+02  0.92946164807E+02 -0.30294975163E+03  0.31711988046E+03  0.47000000000E+01 0. -1.
         -5    1    4    4    0  502  0.40859949268E+01 -0.39145810522E+02 -0.74243512235E+02  0.84162218038E+02  0.47000000000E+01 0. -1.
<mgrwt>
<rscale>  0 0.27466819E+03</rscale>
<asrwt>0</asrwt>
<pdfrwt beam="1">  1       21 0.40102536E-02 0.27466819E+03</pdfrwt>
<pdfrwt beam="2">  1       21 0.11131615E+00 0.27466819E+03</pdfrwt>
<totfact> 0.24146511E+05</totfact>
</mgrwt>
</event>
<event>
 8    1  0.9705063E-006  0.2754775E+03  0.7546771E-02  0.1098185E+00
         21   -1    0    0  504  503  0.00000000000E+00  0.00000000000E+00  0.74349112732E+02  0.74349112732E+02  0.00000000000E+00 0. -1.
         21   -1    0    0  503  504 -0.00000000000E+00 -0.00000000000E+00 -0.25517408472E+03  0.25517408472E+03  0.00000000000E+00 0. -1.
         25    2    1    2    0    0  0.27350263176E+02  0.40243985056E+02 -0.52911475277E+02  0.14417411628E+03  0.12497574309E+03 0.  0.
         25    2    1    2    0    0 -0.27350263176E+02 -0.40243985056E+02 -0.12791349671E+03  0.18534908118E+03  0.12499921609E+03 0.  0.
          5    1    3    3  501    0  0.52059755588E+02 -0.21233431873E+02  0.41972083449E+01  0.56575465874E+02  0.47000000000E+01 0. -1.
         -5    1    3    3    0  501 -0.24709492412E+02  0.61477416929E+02 -0.57108683622E+02  0.87598650404E+02  0.47000000000E+01 0. -1.
          5    1    4    4  502    0  0.40410818433E+02 -0.43200580170E+02 -0.89128096041E+02  0.10707582303E+03  0.47000000000E+01 0.  1.
         -5    1    4    4    0  502 -0.67761081609E+02  0.29565951139E+01 -0.38785400672E+02  0.78273258146E+02  0.47000000000E+01 0.  1.
<mgrwt>
<rscale>  0 0.27547753E+03</rscale>
<asrwt>0</asrwt>
<pdfrwt beam="1">  1       21 0.11438325E-01 0.27547753E+03</pdfrwt>
<pdfrwt beam="2">  1       21 0.39257551E-01 0.27547753E+03</pdfrwt>
<totfact> 0.39284631E+05</totfact>
</mgrwt>
</event>
<event>
 8    1  0.9705063E-006  0.2897609E+03  0.7546771E-02  0.1090474E+00
         21   -1    0    0  504  503  0.00000000000E+00  0.00000000000E+00  0.10153491831E+03  0.10153491831E+03  0.00000000000E+00 0.  1.
         21   -1    0    0  503  504 -0.00000000000E+00 -0.00000000000E+00 -0.20673036861E+03  0.20673036861E+03  0.00000000000E+00 0.  1.
         25    2    1    2    0    0 -0.41135207370E+01  0.50061253946E+02 -0.10931989795E+03  0.17348774239E+03  0.12499642583E+03 0.  0.
         25    2    1    2    0    0  0.41135207370E+01 -0.50061253946E+02  0.41244476591E+01  0.13477754454E+03  0.12499970097E+03 0.  0.
          5    1    3    3  501    0 -0.38671117990E+02  0.45394704738E+01  0.10544258109E+02  0.40611987613E+02  0.47000000000E+01 0.  1.
         -5    1    3    3    0  501  0.34557597253E+02  0.45521783473E+02 -0.11986415606E+03  0.13287575477E+03  0.47000000000E+01 0.  1.
          5    1    4    4  502    0  0.41107410069E+01  0.34432146018E+02  0.30204056424E+02  0.46226030497E+02  0.47000000000E+01 0.  1.
         -5    1    4    4    0  502  0.27797301102E-02 -0.84493399964E+02 -0.26079608765E+02  0.88551514039E+02  0.47000000000E+01 0.  1.
<mgrwt>
<rscale>  0 0.28976094E+03</rscale>
<asrwt>0</asrwt>
<pdfrwt beam="1">  1       21 0.15620757E-01 0.28976094E+03</pdfrwt>
<pdfrwt beam="2">  1       21 0.31804672E-01 0.28976094E+03</pdfrwt>
<totfact> 0.33891795E+05</totfact>
</mgrwt>
</event>
<event>
 8    1  0.9705063E-006  0.3565610E+03  0.7546771E-02  0.1059954E+00
         21   -1    0    0  504  503  0.00000000000E+00  0.00000000000E+00  0.40018532003E+03  0.40018532003E+03  0.00000000000E+00 0. -1.
         21   -1    0    0  503  504 -0.00000000000E+00 -0.00000000000E+00 -0.79423051809E+02  0.79423051809E+02  0.00000000000E+00 0. -1.
         25    2    1    2    0    0  0.46944529435E+02  0.11099664282E+03  0.10599863927E+03  0.20343254005E+03  0.12500017306E+03 0.  0.
         25    2    1    2    0    0 -0.46944529435E+02 -0.11099664282E+03  0.21476362895E+03  0.27617583178E+03  0.12500252069E+03 0.  0.
          5    1    3    3  501    0 -0.32592181191E+02  0.31805810468E+02  0.73320990610E+02  0.86440254039E+02  0.47000000000E+01 0. -1.
         -5    1    3    3    0  501  0.79536710625E+02  0.79190832350E+02  0.32677648658E+02  0.11699228602E+03  0.47000000000E+01 0. -1.
          5    1    4    4  502    0 -0.86907288632E+02 -0.60613225587E+02  0.10743303191E+03  0.15096617595E+03  0.47000000000E+01 0. -1.
         -5    1    4    4    0  502  0.39962759197E+02 -0.50383417231E+02  0.10733059704E+03  0.12520965584E+03  0.47000000000E+01 0. -1.
<mgrwt>
<rscale>  0 0.35656102E+03</rscale>
<asrwt>0</asrwt>
<pdfrwt beam="1">  1       21 0.61566971E-01 0.35656102E+03</pdfrwt>
<pdfrwt beam="2">  1       21 0.12218931E-01 0.35656102E+03</pdfrwt>
<totfact> 0.13286978E+05</totfact>
</mgrwt>
</event>
<event>
 8    1  0.9705063E-006  0.2842597E+03  0.7546771E-02  0.1093385E+00
         21   -1    0    0  504  503  0.00000000000E+00  0.00000000000E+00  0.99065145721E+03  0.99065145721E+03  0.00000000000E+00 0. -1.
         21   -1    0    0  503  504 -0.00000000000E+00 -0.00000000000E+00 -0.20391526374E+02  0.20391526374E+02  0.00000000000E+00 0. -1.
         25    2    1    2    0    0  0.35605965609E+02 -0.49623757869E+02  0.38177158015E+03  0.40633074559E+03  0.12499933306E+03 0.  0.
         25    2    1    2    0    0 -0.35605965609E+02  0.49623757869E+02  0.58848835068E+03  0.60471223799E+03  0.12501219845E+03 0.  0.
          5    1    3    3  501    0 -0.43739602301E+02 -0.37755047432E+02  0.18160918057E+03  0.19063730192E+03  0.47000000000E+01 0.  1.
         -5    1    3    3    0  501  0.79345567910E+02 -0.11868710437E+02  0.20016239959E+03  0.21569344367E+03  0.47000000000E+01 0.  1.
          5    1    4    4  502    0  0.16874631125E+02 -0.22067455948E+02  0.33272153059E+03  0.33391231290E+03  0.47000000000E+01 0. -1.
         -5    1    4    4    0  502 -0.52480596734E+02  0.71691213816E+02  0.25576682009E+03  0.27079992510E+03  0.47000000000E+01 0. -1.
<mgrwt>
<rscale>  0 0.28425971E+03</rscale>
<asrwt>0</asrwt>
<pdfrwt beam="1">  1       21 0.15240788E+00 0.28425971E+03</pdfrwt>
<pdfrwt beam="2">  1       21 0.31371587E-02 0.28425971E+03</pdfrwt>
<totfact> 0.16263077E+05</totfact>
</mgrwt>
</event>
<event>
 8    1  0.9705063E-006  0.3030901E+03  0.7546771E-02  0.1083706E+00
         21   -1    0    0  504  503  0.00000000000E+00  0.00000000000E+00  0.34971304736E+03  0.34971304736E+03  0.00000000000E+00 0. -1.
         21   -1    0    0  503  504 -0.00000000000E+00 -0.00000000000E+00 -0.65670722025E+02  0.65670722025E+02  0.00000000000E+00 0. -1.
         25    2    1    2    0    0 -0.81530118531E+02 -0.11983372407E+02  0.11010133023E+03  0.18587072058E+03  0.12503943541E+03 0.  0.
         25    2    1    2    0    0  0.81530118531E+02  0.11983372407E+02  0.17394099510E+03  0.22951304880E+03  0.12502003180E+03 0.  0.
          5    1    3    3  501    0  0.19125463955E+01  0.43357382588E+02  0.58903303057E+02  0.73315820732E+02  0.47000000000E+01 0. -1.
         -5    1    3    3    0  501 -0.83442664927E+02 -0.55340754995E+02  0.51198027175E+02  0.11255489985E+03  0.47000000000E+01 0. -1.
          5    1    4    4  502    0 -0.26980307161E+01 -0.79830527715E+01  0.13351049873E+03  0.13385870077E+03  0.47000000000E+01 0.  1.
         -5    1    4    4    0  502  0.84228149248E+02  0.19966425179E+02  0.40430496370E+02  0.95654348029E+02  0.47000000000E+01 0.  1.
<mgrwt>
<rscale>  0 0.30309014E+03</rscale>
<asrwt>0</asrwt>
<pdfrwt beam="1">  1       21 0.53802006E-01 0.30309014E+03</pdfrwt>
<pdfrwt beam="2">  1       21 0.10103188E-01 0.30309014E+03</pdfrwt>
<totfact> 0.25326916E+05</totfact>
</mgrwt>
</event>
<event>
 8    1  0.9705063E-006  0.3173216E+03  0.7546771E-02  0.1076889E+00
         21   -1    0    0  504  503  0.00000000000E+00  0.00000000000E+00  0.45471965120E+03  0.45471965120E+03  0.00000000000E+00 0.  1.
         21   -1    0    0  503  504 -0.00000000000E+00 -0.00000000000E+00 -0.55359948167E+02  0.55359948167E+02  0.00000000000E+00 0.  1.
         25    2    1    2    0    0 -0.34017389394E+02 -0.78986401282E+02  0.12510328296E+03  0.19665115976E+03  0.12499925143E+03 0.  0.
         25    2    1    2    0    0  0.34017389394E+02  0.78986401282E+02  0.27425642008E+03  0.31342843962E+03  0.12499907374E+03 0.  0.
          5    1    3    3  501    0 -0.54760409545E+02 -0.46055287601E+02  0.68080273032E+01  0.72029377377E+02  0.47000000000E+01 0. -1.
         -5    1    3    3    0  501  0.20743020151E+02 -0.32931113680E+02  0.11829525565E+03  0.12462178238E+03  0.47000000000E+01 0. -1.
          5    1    4    4  502    0  0.59896035381E+02  0.94137898455E+01  0.19706072353E+03  0.20623087367E+03  0.47000000000E+01 0. -1.
         -5    1    4    4    0  502 -0.25878645987E+02  0.69572611436E+02  0.77195696548E+02  0.10719756595E+03  0.47000000000E+01 0. -1.
<mgrwt>
<rscale>  0 0.31732164E+03</rscale>
<asrwt>0</asrwt>
<pdfrwt beam="1">  1       21 0.69956867E-01 0.31732164E+03</pdfrwt>
<pdfrwt beam="2">  1       21 0.85169154E-02 0.31732164E+03</pdfrwt>
<totfact> 0.19287100E+05</totfact>
</mgrwt>
</event>
<event>
 8    1  0.9705063E-006  0.2512279E+03  0.7546771E-02  0.1112531E+00
         21   -1    0    0  504  503  0.00000000000E+00  0.00000000000E+00  0.59878314081E+02  0.59878314081E+02  0.00000000000E+00 0.  1.
         21   -1    0    0  503  504 -0.00000000000E+00 -0.00000000000E+00 -0.26351541271E+03  0.26351541271E+03  0.00000000000E+00 0.  1.
         25    2    1    2    0    0 -0.88550341948E+01 -0.87853470995E+01 -0.10295725289E+03  0.16242265941E+03  0.12500132165E+03 0.  0.
         25    2    1    2    0    0  0.88550341948E+01  0.87853470995E+01 -0.10067984574E+03  0.16097106738E+03  0.12497863514E+03 0.  0.
          5    1    3    3  501    0 -0.59057094434E+02 -0.22072783906E+02 -0.87663684703E+02  0.10808311528E+03  0.47000000000E+01 0.  1.
         -5    1    3    3    0  501  0.50202060239E+02  0.13287436806E+02 -0.15293568188E+02  0.54339544137E+02  0.47000000000E+01 0.  1.
          5    1    4    4  502    0 -0.14140468746E+02 -0.12238984026E+02 -0.12161875886E+03  0.12313796365E+03  0.47000000000E+01 0. -1.
         -5    1    4    4    0  502  0.22995502941E+02  0.21024331125E+02  0.20938913120E+02  0.37833103725E+02  0.47000000000E+01 0. -1.
<mgrwt>
<rscale>  0 0.25122785E+03</rscale>
<asrwt>0</asrwt>
<pdfrwt beam="1">  1       21 0.92120484E-02 0.25122785E+03</pdfrwt>
<pdfrwt beam="2">  1       21 0.40540832E-01 0.25122785E+03</pdfrwt>
<totfact> 0.54356257E+05</totfact>
</mgrwt>
</event>
<event>
 8    1  0.9705063E-006  0.3158609E+03  0.7546771E-02  0.1077570E+00
         21   -1    0    0  504  503  0.00000000000E+00  0.00000000000E+00  0.10900972208E+03  0.10900972208E+03  0.00000000000E+00 0. -1.
         21   -1    0    0  503  504 -0.00000000000E+00 -0.00000000000E+00 -0.22880554571E+03  0.22880554571E+03  0.00000000000E+00 0. -1.
         25    2    1    2    0    0 -0.38219715840E+02 -0.34336176954E+02  0.27488472861E+02  0.13791929780E+03  0.12500558723E+03 0.  0.
         25    2    1    2    0    0  0.38219715840E+02  0.34336176954E+02 -0.14728429649E+03  0.19989597000E+03  0.12500406034E+03 0.  0.
          5    1    3    3  501    0 -0.18217835092E+01  0.26946406607E+02 -0.33995086243E+02  0.43671313385E+02  0.47000000000E+01 0.  1.
         -5    1    3    3    0  501 -0.36397932331E+02 -0.61282583561E+02  0.61483559103E+02  0.94247984413E+02  0.47000000000E+01 0.  1.
          5    1    4    4  502    0 -0.14735539001E+02 -0.32741421205E+02 -0.90755126947E+01  0.37330841175E+02  0.47000000000E+01 0. -1.
         -5    1    4    4    0  502  0.52955254841E+02  0.67077598159E+02 -0.13820878380E+03  0.16256512882E+03  0.47000000000E+01 0. -1.
<mgrwt>
<rscale>  0 0.31586091E+03</rscale>
<asrwt>0</asrwt>
<pdfrwt beam="1">  1       21 0.16770727E-01 0.31586091E+03</pdfrwt>
<pdfrwt beam="2">  1       21 0.35200852E-01 0.31586091E+03</pdfrwt>
<totfact> 0.24146639E+05</totfact>
</mgrwt>
</event>
<event>
 8    1  0.9705063E-006  0.2584877E+03  0.7546771E-02  0.1108055E+00
         21   -1    0    0  504  503  0.00000000000E+00  0.00000000000E+00  0.32222773197E+02  0.32222773197E+02  0.00000000000E+00 0. -1.
         21   -1    0    0  503  504 -0.00000000000E+00 -0.00000000000E+00 -0.51839047645E+03  0.51839047645E+03  0.00000000000E+00 0. -1.
         25    2    1    2    0    0 -0.18579105324E+02 -0.15755524025E+02 -0.19618458280E+03  0.23389632661E+03  0.12500272548E+03 0.  0.
         25    2    1    2    0    0  0.18579105324E+02  0.15755524025E+02 -0.28998312045E+03  0.31671692304E+03  0.12500391795E+03 0.  0.
          5    1    3    3  501    0 -0.39549798883E+02 -0.37995252033E+02 -0.19535139510E+03  0.20295832907E+03  0.47000000000E+01 0. -1.
         -5    1    3    3    0  501  0.20970693559E+02  0.22239728009E+02 -0.83318770313E+00  0.30937997543E+02  0.47000000000E+01 0. -1.
          5    1    4    4  502    0  0.84059055662E+01  0.34782806324E+02 -0.29229435480E+03  0.29451414688E+03  0.47000000000E+01 0.  1.
         -5    1    4    4    0  502  0.10173199758E+02 -0.19027282299E+02  0.23112343502E+01  0.22202776161E+02  0.47000000000E+01 0.  1.
<mgrwt>
<rscale>  0 0.25848775E+03</rscale>
<asrwt>0</asrwt>
<pdfrwt beam="1">  1       21 0.49573500E-02 0.25848775E+03</pdfrwt>
<pdfrwt beam="2">  1       21 0.79752376E-01 0.25848775E+03</pdfrwt>
<totfact> 0.37191058E+05</totfact>
</mgrwt>
</event>
<event>
 8    1  0.9705063E-006  0.3287339E+03  0.7546771E-02  0.1071698E+00
         21   -1    0    0  504  503  0.00000000000E+00  0.00000000000E+00  0.27004505117E+03  0.27004505117E+03  0.00000000000E+00 0.  1.
         21   -1    0    0  503  504 -0.00000000000E+00 -0.00000000000E+00 -0.10004436931E+03  0.10004436931E+03  0.00000000000E+00 0.  1.
         25    2    1    2    0    0  0.17310640108E+02 -0.10382805026E+03  0.10487335338E+03  0.19417207272E+03  0.12499780516E+03 0.  0.
         25    2    1    2    0    0 -0.17310640108E+02  0.10382805026E+03  0.65127328484E+02  0.17591734775E+03  0.12500168817E+03 0.  0.
          5    1    3    3  501    0 -0.39897438320E+02 -0.48995068088E+02  0.94983228201E+02  0.11417629317E+03  0.47000000000E+01 0.  1.
         -5    1    3    3    0  501  0.57208078428E+02 -0.54832982170E+02  0.98901251777E+01  0.79995779558E+02  0.47000000000E+01 0.  1.
          5    1    4    4  502    0  0.32861169772E+02 -0.10391642672E+02 -0.68494395590E+00  0.34790830178E+02  0.47000000000E+01 0.  1.
         -5    1    4    4    0  502 -0.50171809880E+02  0.11421969293E+03  0.65812272440E+02  0.14112651758E+03  0.47000000000E+01 0.  1.
<mgrwt>
<rscale>  0 0.32873385E+03</rscale>
<asrwt>0</asrwt>
<pdfrwt beam="1">  1       21 0.41545392E-01 0.32873385E+03</pdfrwt>
<pdfrwt beam="2">  1       21 0.15391442E-01 0.32873385E+03</pdfrwt>
<totfact> 0.20160454E+05</totfact>
</mgrwt>
</event>
<event>
 8    1  0.9705063E-006  0.2927465E+03  0.7546771E-02  0.1088924E+00
         21   -1    0    0  504  503  0.00000000000E+00  0.00000000000E+00  0.70875744747E+02  0.70875744747E+02  0.00000000000E+00 0.  1.
         21   -1    0    0  503  504 -0.00000000000E+00 -0.00000000000E+00 -0.30229141313E+03  0.30229141313E+03  0.00000000000E+00 0.  1.
         25    2    1    2    0    0 -0.33313926833E+02 -0.64917871352E+02 -0.14352340739E+03  0.20383362025E+03  0.12500011414E+03 0.  0.
         25    2    1    2    0    0  0.33313926833E+02  0.64917871352E+02 -0.87892260988E+02  0.16933353762E+03  0.12499859871E+03 0.  0.
          5    1    3    3  501    0  0.38946500572E+01 -0.47307206900E+02  0.65488193040E+01  0.48146829159E+02  0.47000000000E+01 0. -1.
         -5    1    3    3    0  501 -0.37208576890E+02 -0.17610664451E+02 -0.15007222669E+03  0.15568679109E+03  0.47000000000E+01 0. -1.
          5    1    4    4  502    0  0.52533693499E+02  0.23727233203E+02 -0.10554015106E+03  0.12034776289E+03  0.47000000000E+01 0. -1.
         -5    1    4    4    0  502 -0.19219766666E+02  0.41190638149E+02  0.17647890067E+02  0.48985774728E+02  0.47000000000E+01 0. -1.
<mgrwt>
<rscale>  0 0.29274650E+03</rscale>
<asrwt>0</asrwt>
<pdfrwt beam="1">  1       21 0.10903961E-01 0.29274650E+03</pdfrwt>
<pdfrwt beam="2">  1       21 0.46506371E-01 0.29274650E+03</pdfrwt>
<totfact> 0.30102659E+05</totfact>
</mgrwt>
</event>
<event>
 8    1  0.9705063E-006  0.3185687E+03  0.7546771E-02  0.1076310E+00
         21   -1    0    0  504  503  0.00000000000E+00  0.00000000000E+00  0.76496709971E+02  0.76496709971E+02  0.00000000000E+00 0. -1.
         21   -1    0    0  503  504 -0.00000000000E+00 -0.00000000000E+00 -0.33166801167E+03  0.33166801167E+03  0.00000000000E+00 0. -1.
         25    2    1    2    0    0 -0.66467540809E+02  0.57522535815E+02 -0.18517507912E+03  0.24008211323E+03  0.12499133994E+03 0.  0.
         25    2    1    2    0    0  0.66467540809E+02 -0.57522535815E+02 -0.69996222576E+02  0.16808260841E+03  0.12500206385E+03 0.  0.
          5    1    3    3  501    0  0.15084460937E+02  0.22369668761E+02 -0.13545682915E+03  0.13819763242E+03  0.47000000000E+01 0.  1.
         -5    1    3    3    0  501 -0.81552001746E+02  0.35152867054E+02 -0.49718249971E+02  0.10188448082E+03  0.47000000000E+01 0.  1.
          5    1    4    4  502    0  0.24060593293E+02  0.35801190546E+02 -0.44907966881E+02  0.62445599393E+02  0.47000000000E+01 0.  1.
         -5    1    4    4    0  502  0.42406947516E+02 -0.93323726361E+02 -0.25088255695E+02  0.10563700901E+03  0.47000000000E+01 0.  1.
<mgrwt>
<rscale>  0 0.31856875E+03</rscale>
<asrwt>0</asrwt>
<pdfrwt beam="1">  1       21 0.11768725E-01 0.31856875E+03</pdfrwt>
<pdfrwt beam="2">  1       21 0.51025848E-01 0.31856875E+03</pdfrwt>
<totfact> 0.21479812E+05</totfact>
</mgrwt>
</event>
<event>
 8    1  0.9705063E-006  0.2545777E+03  0.7546771E-02  0.1110446E+00
         21   -1    0    0  504  503  0.00000000000E+00  0.00000000000E+00  0.21178455619E+03  0.21178455619E+03  0.00000000000E+00 0.  1.
         21   -1    0    0  503  504 -0.00000000000E+00 -0.00000000000E+00 -0.76504384884E+02  0.76504384884E+02  0.00000000000E+00 0.  1.
         25    2    1    2    0    0  0.20158594473E+02 -0.88272753929E+01  0.78530214177E+02  0.14925587249E+03  0.12500412478E+03 0.  0.
         25    2    1    2    0    0 -0.20158594473E+02  0.88272753929E+01  0.56749957128E+02  0.13903306859E+03  0.12500138721E+03 0.  0.
          5    1    3    3  501    0  0.37076493324E+02 -0.16923468835E+02  0.10713928613E+03  0.11472570238E+03  0.47000000000E+01 0. -1.
         -5    1    3    3    0  501 -0.16917898851E+02  0.80961934418E+01 -0.28609071952E+02  0.34530170108E+02  0.47000000000E+01 0. -1.
          5    1    4    4  502    0 -0.63879141682E+01 -0.48901898375E+02  0.61891195808E+02  0.79276801340E+02  0.47000000000E+01 0. -1.
         -5    1    4    4    0  502 -0.13770680304E+02  0.57729173768E+02 -0.51412386797E+01  0.59756267246E+02  0.47000000000E+01 0. -1.
<mgrwt>
<rscale>  0 0.25457767E+03</rscale>
<asrwt>0</asrwt>
<pdfrwt beam="1">  1       21 0.32582239E-01 0.25457767E+03</pdfrwt>
<pdfrwt beam="2">  1       21 0.11769905E-01 0.25457767E+03</pdfrwt>
<totfact> 0.54434796E+05</totfact>
</mgrwt>
</event>
<event>
 8    1  0.9705063E-006  0.2589185E+03  0.7546771E-02  0.1107795E+00
         21   -1    0    0  504  503  0.00000000000E+00  0.00000000000E+00  0.34810345862E+02  0.34810345862E+02  0.00000000000E+00 0.  1.
         21   -1    0    0  503  504 -0.00000000000E+00 -0.00000000000E+00 -0.48145741940E+03  0.48145741940E+03  0.00000000000E+00 0.  1.
         25    2    1    2    0    0  0.16954312094E+02 -0.18301090479E+02 -0.26845609999E+03  0.29718248498E+03  0.12500549247E+03 0.  0.
         25    2    1    2    0    0 -0.16954312094E+02  0.18301090479E+02 -0.17819097354E+03  0.21908528027E+03  0.12499583341E+03 0.  0.
          5    1    3    3  501    0 -0.11450292575E+02  0.20979444060E+02 -0.23905756879E+03  0.24029535466E+03  0.47000000000E+01 0.  1.
         -5    1    3    3    0  501  0.28404604669E+02 -0.39280534539E+02 -0.29398531197E+02  0.56887130325E+02  0.47000000000E+01 0.  1.
          5    1    4    4  502    0  0.30475282915E+02  0.29307654143E+01 -0.16418972908E+03  0.16708587430E+03  0.47000000000E+01 0.  1.
         -5    1    4    4    0  502 -0.47429595009E+02  0.15370325065E+02 -0.14001244462E+02  0.51999405975E+02  0.47000000000E+01 0.  1.
<mgrwt>
<rscale>  0 0.25891851E+03</rscale>
<asrwt>0</asrwt>
<pdfrwt beam="1">  1       21 0.53554387E-02 0.25891851E+03</pdfrwt>
<pdfrwt beam="2">  1       21 0.74070361E-01 0.25891851E+03</pdfrwt>
<totfact> 0.38515709E+05</totfact>
</mgrwt>
</event>
<event>
 8    1  0.9705063E-006  0.2708353E+03  0.7546771E-02  0.1100803E+00
         21   -1    0    0  504  503  0.00000000000E+00  0.00000000000E+00  0.11456684879E+02  0.11456684879E+02  0.00000000000E+00 0. -1.
         21   -1    0    0  503  504 -0.00000000000E+00 -0.00000000000E+00 -0.16006320730E+04  0.16006320730E+04  0.00000000000E+00 0. -1.
         25    2    1    2    0    0 -0.23790463529E+02 -0.44876917704E+02 -0.72595192905E+03  0.73838318450E+03  0.12499439971E+03 0.  0.
         25    2    1    2    0    0  0.23790463529E+02  0.44876917704E+02 -0.86322345912E+03  0.87370557343E+03  0.12500705889E+03 0.  0.
          5    1    3    3  501    0 -0.63019368478E+01  0.15897586059E+02 -0.56658692449E+03  0.56686442881E+03  0.47000000000E+01 0.  1.
         -5    1    3    3    0  501 -0.17488526681E+02 -0.60774503762E+02 -0.15936500456E+03  0.17151875568E+03  0.47000000000E+01 0.  1.
          5    1    4    4  502    0 -0.41931062093E+02  0.29710974010E+02 -0.58953529260E+03  0.59178958015E+03  0.47000000000E+01 0.  1.
         -5    1    4    4    0  502  0.65721525622E+02  0.15165943694E+02 -0.27368816652E+03  0.28191599328E+03  0.47000000000E+01 0.  1.
<mgrwt>
<rscale>  0 0.27083528E+03</rscale>
<asrwt>0</asrwt>
<pdfrwt beam="1">  1       21 0.17625672E-02 0.27083528E+03</pdfrwt>
<pdfrwt beam="2">  1       21 0.24625105E+00 0.27083528E+03</pdfrwt>
<totfact> 0.10093288E+05</totfact>
</mgrwt>
</event>
<event>
 8    1  0.9705063E-006  0.2555353E+03  0.7546771E-02  0.1109856E+00
         21   -1    0    0  504  503  0.00000000000E+00  0.00000000000E+00  0.67731998337E+02  0.67731998337E+02  0.00000000000E+00 0.  1.
         21   -1    0    0  503  504 -0.00000000000E+00 -0.00000000000E+00 -0.24101712231E+03  0.24101712231E+03  0.00000000000E+00 0.  1.
         25    2    1    2    0    0 -0.20766995251E+02  0.78603246869E+01 -0.10400209374E+03  0.16411815153E+03  0.12500111745E+03 0.  0.
         25    2    1    2    0    0  0.20766995251E+02 -0.78603246869E+01 -0.69283030228E+02  0.14463096911E+03  0.12499970461E+03 0.  0.
          5    1    3    3  501    0  0.47404542775E+02 -0.10668938526E+02 -0.16435411550E+02  0.51509510556E+02  0.47000000000E+01 0.  1.
         -5    1    3    3    0  501 -0.68171538026E+02  0.18529263213E+02 -0.87566682194E+02  0.11260864098E+03  0.47000000000E+01 0.  1.
          5    1    4    4  502    0  0.29817280791E+02  0.46845741910E+02  0.48528687451E-01  0.55728683134E+02  0.47000000000E+01 0. -1.
         -5    1    4    4    0  502 -0.90502855399E+01 -0.54706066596E+02 -0.69331558915E+02  0.88902285980E+02  0.47000000000E+01 0. -1.
<mgrwt>
<rscale>  0 0.25553529E+03</rscale>
<asrwt>0</asrwt>
<pdfrwt beam="1">  1       21 0.10420308E-01 0.25553529E+03</pdfrwt>
<pdfrwt beam="2">  1       21 0.37079557E-01 0.25553529E+03</pdfrwt>
<totfact> 0.52285107E+05</totfact>
</mgrwt>
</event>
<event>
 8    1  0.9705063E-006  0.3166986E+03  0.7546771E-02  0.1077179E+00
         21   -1    0    0  504  503  0.00000000000E+00  0.00000000000E+00  0.69541783220E+03  0.69541783220E+03  0.00000000000E+00 0. -1.
         21   -1    0    0  503  504 -0.00000000000E+00 -0.00000000000E+00 -0.36056731909E+02  0.36056731909E+02  0.00000000000E+00 0. -1.
         25    2    1    2    0    0 -0.91795440743E+02  0.75652701987E+01  0.40149291535E+03  0.43047028495E+03  0.12499787557E+03 0.  0.
         25    2    1    2    0    0  0.91795440743E+02 -0.75652701987E+01  0.25786818495E+03  0.30100427916E+03  0.12499575597E+03 0.  0.
          5    1    3    3  501    0 -0.10124256020E+03  0.80053505655E+01  0.40632887689E+03  0.41885485294E+03  0.47000000000E+01 0. -1.
         -5    1    3    3    0  501  0.94471194549E+01 -0.44008036679E+00 -0.48359615470E+01  0.11615432011E+02  0.47000000000E+01 0. -1.
          5    1    4    4  502    0  0.68491725661E+02  0.48347037057E+02  0.93003430480E+02  0.12530076040E+03  0.47000000000E+01 0. -1.
         -5    1    4    4    0  502  0.23303715082E+02 -0.55912307255E+02  0.16486475446E+03  0.17570351876E+03  0.47000000000E+01 0. -1.
<mgrwt>
<rscale>  0 0.31669856E+03</rscale>
<asrwt>0</asrwt>
<pdfrwt beam="1">  1       21 0.10698735E+00 0.31669856E+03</pdfrwt>
<pdfrwt beam="2">  1       21 0.55471900E-02 0.31669856E+03</pdfrwt>
<totfact> 0.15132497E+05</totfact>
</mgrwt>
</event>
<event>
 8    1  0.9705063E-006  0.2744147E+03  0.7546771E-02  0.1098779E+00
         21   -1    0    0  504  503  0.00000000000E+00  0.00000000000E+00  0.29036198443E+02  0.29036198443E+02  0.00000000000E+00 0. -1.
         21   -1    0    0  503  504 -0.00000000000E+00 -0.00000000000E+00 -0.64835822259E+03  0.64835822259E+03  0.00000000000E+00 0. -1.
         25    2    1    2    0    0 -0.21283310583E+00 -0.29536375860E+02 -0.42881152649E+03  0.44763441023E+03  0.12499918869E+03 0.  0.
         25    2    1    2    0    0  0.21283310583E+00  0.29536375860E+02 -0.19051049765E+03  0.22976001080E+03  0.12499187994E+03 0.  0.
          5    1    3    3  501    0 -0.59381216305E+02 -0.32129639306E+02 -0.26036751087E+03  0.26902002396E+03  0.47000000000E+01 0. -1.
         -5    1    3    3    0  501  0.59168383199E+02  0.25932634464E+01 -0.16844401561E+03  0.17861438627E+03  0.47000000000E+01 0. -1.
          5    1    4    4  502    0  0.37962398867E+02  0.23747329096E+02 -0.11239302382E+02  0.46405724701E+02  0.47000000000E+01 0.  1.
         -5    1    4    4    0  502 -0.37749565761E+02  0.57890467633E+01 -0.17927119527E+03  0.18335428610E+03  0.47000000000E+01 0.  1.
<mgrwt>
<rscale>  0 0.27441471E+03</rscale>
<asrwt>0</asrwt>
<pdfrwt beam="1">  1       21 0.44671074E-02 0.27441471E+03</pdfrwt>
<pdfrwt beam="2">  1       21 0.99747421E-01 0.27441471E+03</pdfrwt>
<totfact> 0.26254345E+05</totfact>
</mgrwt>
</event>
<event>
 8    1  0.9705063E-006  0.2606020E+03  0.7546771E-02  0.1106782E+00
         21   -1    0    0  504  503  0.00000000000E+00  0.00000000000E+00  0.57602058636E+03  0.57602058636E+03  0.00000000000E+00 0.  1.
         21   -1    0    0  503  504 -0.00000000000E+00 -0.00000000000E+00 -0.29475253515E+02  0.29475253515E+02  0.00000000000E+00 0.  1.
         25    2    1    2    0    0 -0.24115110708E+02 -0.93250953305E+01  0.21243552438E+03  0.24783254167E+03  0.12499448278E+03 0.  0.
         25    2    1    2    0    0  0.24115110708E+02  0.93250953305E+01  0.33410980847E+03  0.35766329821E+03  0.12500069920E+03 0.  0.
          5    1    3    3  501    0  0.91551932761E+01 -0.63107207669E+02  0.98387751913E+02  0.11733957964E+03  0.47000000000E+01 0.  1.
         -5    1    3    3    0  501 -0.33270303985E+02  0.53782112339E+02  0.11404777246E+03  0.13049296203E+03  0.47000000000E+01 0.  1.
          5    1    4    4  502    0  0.58335536808E+02  0.28696630988E+02  0.94478667286E+02  0.11478170611E+03  0.47000000000E+01 0.  1.
         -5    1    4    4    0  502 -0.34220426099E+02 -0.19371535658E+02  0.23963114119E+03  0.24288159210E+03  0.47000000000E+01 0.  1.
<mgrwt>
<rscale>  0 0.26060202E+03</rscale>
<asrwt>0</asrwt>
<pdfrwt beam="1">  1       21 0.88618544E-01 0.26060202E+03</pdfrwt>
<pdfrwt beam="2">  1       21 0.45346548E-02 0.26060202E+03</pdfrwt>
<totfact> 0.33942098E+05</totfact>
</mgrwt>
</event>
<event>
 8    1  0.9705063E-006  0.3029070E+03  0.7546771E-02  0.1083796E+00
         21   -1    0    0  504  503  0.00000000000E+00  0.00000000000E+00  0.12407459038E+02  0.12407459038E+02  0.00000000000E+00 0.  1.
         21   -1    0    0  503  504 -0.00000000000E+00 -0.00000000000E+00 -0.18487397968E+04  0.18487397968E+04  0.00000000000E+00 0.  1.
         25    2    1    2    0    0 -0.12760902349E+02  0.82820044387E+02 -0.81334781803E+03  0.82715285794E+03  0.12500070770E+03 0.  0.
         25    2    1    2    0    0  0.12760902349E+02 -0.82820044387E+02 -0.10229845197E+04  0.10339943979E+04  0.12500034757E+03 0.  0.
          5    1    3    3  501    0  0.31294684877E+01  0.98227303477E+02 -0.78372605122E+03  0.78987784504E+03  0.47000000000E+01 0. -1.
         -5    1    3    3    0  501 -0.15890370837E+02 -0.15407259090E+02 -0.29621766812E+02  0.37275012905E+02  0.47000000000E+01 0. -1.
          5    1    4    4  502    0  0.52941507857E+02 -0.12187881148E+02 -0.64732056789E+03  0.64961323518E+03  0.47000000000E+01 0. -1.
         -5    1    4    4    0  502 -0.40180605508E+02 -0.70632163239E+02 -0.37566395186E+03  0.38438116274E+03  0.47000000000E+01 0. -1.
<mgrwt>
<rscale>  0 0.30290700E+03</rscale>
<asrwt>0</asrwt>
<pdfrwt beam="1">  1       21 0.19088402E-02 0.30290700E+03</pdfrwt>
<pdfrwt beam="2">  1       21 0.28442145E+00 0.30290700E+03</pdfrwt>
<totfact> 0.51670263E+04</totfact>
</mgrwt>
</event>
<event>
 8    1  0.9705063E-006  0.6245056E+03  0.7546771E-02  0.9855830E-01
         21   -1    0    0  504  503  0.00000000000E+00  0.00000000000E+00  0.11167631572E+04  0.11167631572E+04  0.00000000000E+00 0. -1.
         21   -1    0    0  503  504 -0.00000000000E+00 -0.00000000000E+00 -0.87307504519E+02  0.87307504519E+02  0.00000000000E+00 0. -1.
         25    2    1    2    0    0  0.25647428521E+03 -0.96187338054E+02  0.67424507462E+03  0.73841897271E+03  0.12500038250E+03 0.  0.
         25    2    1    2    0    0 -0.25647428521E+03  0.96187338054E+02  0.35521057806E+03  0.46565168901E+03  0.12500351091E+03 0.  0.
          5    1    3    3  501    0  0.23633300679E+02 -0.57756588860E+02  0.18309614021E+03  0.19349584754E+03  0.47000000000E+01 0. -1.
         -5    1    3    3    0  501  0.23284098453E+03 -0.38430749194E+02  0.49114893441E+03  0.54492312516E+03  0.47000000000E+01 0. -1.
          5    1    4    4  502    0 -0.26391895644E+03  0.89417336616E+02  0.30057068500E+03  0.40989450147E+03  0.47000000000E+01 0. -1.
         -5    1    4    4    0  502  0.74446712274E+01  0.67700014380E+01  0.54639893057E+02  0.55757187541E+02  0.47000000000E+01 0. -1.
<mgrwt>
<rscale>  0 0.62450558E+03</rscale>
<asrwt>0</asrwt>
<pdfrwt beam="1">  1       21 0.17180971E+00 0.62450558E+03</pdfrwt>
<pdfrwt beam="2">  1       21 0.13431925E-01 0.62450558E+03</pdfrwt>
<totfact> 0.82724787E+03</totfact>
</mgrwt>
</event>
<event>
 8    1  0.9705063E-006  0.3313049E+03  0.7546771E-02  0.1070561E+00
         21   -1    0    0  504  503  0.00000000000E+00  0.00000000000E+00  0.83581098729E+02  0.83581098729E+02  0.00000000000E+00 0.  1.
         21   -1    0    0  503  504 -0.00000000000E+00 -0.00000000000E+00 -0.32831267420E+03  0.32831267420E+03  0.00000000000E+00 0.  1.
         25    2    1    2    0    0 -0.24756157757E+01  0.41564766262E+02  0.24662604380E+01  0.13178019619E+03  0.12500471671E+03 0.  0.
         25    2    1    2    0    0  0.24756157757E+01 -0.41564766262E+02 -0.24719783591E+03  0.28011357674E+03  0.12499234907E+03 0.  0.
          5    1    3    3  501    0 -0.21638009436E+02  0.82645972021E+02 -0.44911420189E+01  0.85678588342E+02  0.47000000000E+01 0.  1.
         -5    1    3    3    0  501  0.19162393661E+02 -0.41081205759E+02  0.69574024569E+01  0.46101607850E+02  0.47000000000E+01 0.  1.
          5    1    4    4  502    0  0.14221014577E+02 -0.68633841005E+02 -0.23902832505E+03  0.24913745516E+03  0.47000000000E+01 0. -1.
         -5    1    4    4    0  502 -0.11745398801E+02  0.27069074743E+02 -0.81695108623E+01  0.30976121581E+02  0.47000000000E+01 0. -1.
<mgrwt>
<rscale>  0 0.33130490E+03</rscale>
<asrwt>0</asrwt>
<pdfrwt beam="1">  1       21 0.12858631E-01 0.33130490E+03</pdfrwt>
<pdfrwt beam="2">  1       21 0.50509642E-01 0.33130490E+03</pdfrwt>
<totfact> 0.18640932E+05</totfact>
</mgrwt>
</event>
<event>
 8    1  0.9705063E-006  0.2834311E+03  0.7546771E-02  0.1093830E+00
         21   -1    0    0  504  503  0.00000000000E+00  0.00000000000E+00  0.35250683642E+03  0.35250683642E+03  0.00000000000E+00 0.  1.
         21   -1    0    0  503  504 -0.00000000000E+00 -0.00000000000E+00 -0.56972796201E+02  0.56972796201E+02  0.00000000000E+00 0.  1.
         25    2    1    2    0    0 -0.52626235889E+02 -0.29691815445E+02  0.10672019996E+03  0.17511581100E+03  0.12500088629E+03 0.  0.
         25    2    1    2    0    0  0.52626235889E+02  0.29691815445E+02  0.18881384025E+03  0.23436382162E+03  0.12499844001E+03 0.  0.
          5    1    3    3  501    0 -0.36154284838E+01 -0.60224447420E+02  0.85376937032E+01  0.61114954012E+02  0.47000000000E+01 0.  1.
         -5    1    3    3    0  501 -0.49010807406E+02  0.30532631975E+02  0.98182506259E+02  0.11400085698E+03  0.47000000000E+01 0.  1.
          5    1    4    4  502    0 -0.30911760071E+02 -0.68135762092E+01  0.10733276551E+03  0.11200167089E+03  0.47000000000E+01 0. -1.
         -5    1    4    4    0  502  0.83537995961E+02  0.36505391655E+02  0.81481074747E+02  0.12236215073E+03  0.47000000000E+01 0. -1.
<mgrwt>
<rscale>  0 0.28343112E+03</rscale>
<asrwt>0</asrwt>
<pdfrwt beam="1">  1       21 0.54231819E-01 0.28343112E+03</pdfrwt>
<pdfrwt beam="2">  1       21 0.87650458E-02 0.28343112E+03</pdfrwt>
<totfact> 0.32178387E+05</totfact>
</mgrwt>
</event>
<event>
 8    1  0.9705063E-006  0.2628516E+03  0.7546771E-02  0.1105442E+00
         21   -1    0    0  504  503  0.00000000000E+00  0.00000000000E+00  0.16134008567E+02  0.16134008567E+02  0.00000000000E+00 0.  1.
         21   -1    0    0  503  504 -0.00000000000E+00 -0.00000000000E+00 -0.10705798492E+04  0.10705798492E+04  0.00000000000E+00 0.  1.
         25    2    1    2    0    0 -0.13941736338E+02  0.37836657480E+02 -0.54669518475E+03  0.56225161155E+03  0.12500105998E+03 0.  0.
         25    2    1    2    0    0  0.13941736338E+02 -0.37836657480E+02 -0.50775065589E+03  0.52446224623E+03  0.12499573793E+03 0.  0.
          5    1    3    3  501    0 -0.40213396301E+02  0.26434868691E+02 -0.52173945790E+03  0.52397525843E+03  0.47000000000E+01 0.  1.
         -5    1    3    3    0  501  0.26271659963E+02  0.11401788790E+02 -0.24955726854E+02  0.38276353113E+02  0.47000000000E+01 0.  1.
          5    1    4    4  502    0  0.49379308407E+02  0.27565087561E+02 -0.22722333674E+03  0.23420223079E+03  0.47000000000E+01 0.  1.
         -5    1    4    4    0  502 -0.35437572069E+02 -0.65401745041E+02 -0.28052731915E+03  0.29026001544E+03  0.47000000000E+01 0.  1.
<mgrwt>
<rscale>  0 0.26285163E+03</rscale>
<asrwt>0</asrwt>
<pdfrwt beam="1">  1       21 0.24821551E-02 0.26285163E+03</pdfrwt>
<pdfrwt beam="2">  1       21 0.16470460E+00 0.26285163E+03</pdfrwt>
<totfact> 0.19568700E+05</totfact>
</mgrwt>
</event>
<event>
 8    1  0.9705063E-006  0.5200735E+03  0.7546771E-02  0.1008668E+00
         21   -1    0    0  504  503  0.00000000000E+00  0.00000000000E+00  0.16868289980E+03  0.16868289980E+03  0.00000000000E+00 0.  1.
         21   -1    0    0  503  504 -0.00000000000E+00 -0.00000000000E+00 -0.40086528313E+03  0.40086528313E+03  0.00000000000E+00 0.  1.
         25    2    1    2    0    0 -0.16920893185E+03  0.12571015887E+03 -0.21130392880E+03  0.32358808633E+03  0.12500077050E+03 0.  0.
         25    2    1    2    0    0  0.16920893185E+03 -0.12571015887E+03 -0.20878454520E+02  0.24596009660E+03  0.12500301035E+03 0.  0.
          5    1    3    3  501    0 -0.11486883566E+03  0.80312970105E+01 -0.94334158784E+02  0.14893077133E+03  0.47000000000E+01 0. -1.
         -5    1    3    3    0  501 -0.54340096189E+02  0.11767886186E+03 -0.11696977002E+03  0.17465731500E+03  0.47000000000E+01 0. -1.
          5    1    4    4  502    0  0.14812551285E+03 -0.15085704997E+03 -0.23119997645E+02  0.21273373351E+03  0.47000000000E+01 0.  1.
         -5    1    4    4    0  502  0.21083418998E+02  0.25146891097E+02  0.22415431247E+01  0.33226363089E+02  0.47000000000E+01 0.  1.
<mgrwt>
<rscale>  0 0.52007353E+03</rscale>
<asrwt>0</asrwt>
<pdfrwt beam="1">  1       21 0.25951216E-01 0.52007353E+03</pdfrwt>
<pdfrwt beam="2">  1       21 0.61671581E-01 0.52007353E+03</pdfrwt>
<totfact> 0.30938180E+04</totfact>
</mgrwt>
</event>
<event>
 8    1  0.9705063E-006  0.3416803E+03  0.7546771E-02  0.1066083E+00
         21   -1    0    0  504  503  0.00000000000E+00  0.00000000000E+00  0.50576091580E+03  0.50576091580E+03  0.00000000000E+00 0.  1.
         21   -1    0    0  503  504 -0.00000000000E+00 -0.00000000000E+00 -0.57707802122E+02  0.57707802122E+02  0.00000000000E+00 0.  1.
         25    2    1    2    0    0  0.66964862996E+01  0.92309475256E+02  0.34057509664E+03  0.37440936441E+03  0.12500037424E+03 0.  0.
         25    2    1    2    0    0 -0.66964862996E+01 -0.92309475256E+02  0.10747801704E+03  0.18905935351E+03  0.12500413134E+03 0.  0.
          5    1    3    3  501    0  0.29444376494E+02  0.84398673856E+02  0.10680049910E+03  0.13935043618E+03  0.47000000000E+01 0.  1.
         -5    1    3    3    0  501 -0.22747890195E+02  0.79108014005E+01  0.23377459754E+03  0.23505892824E+03  0.47000000000E+01 0.  1.
          5    1    4    4  502    0 -0.63222983498E+02 -0.35168980558E+02  0.34072223643E+02  0.80106237335E+02  0.47000000000E+01 0. -1.
         -5    1    4    4    0  502  0.56526497199E+02 -0.57140494698E+02  0.73405793397E+02  0.10895311617E+03  0.47000000000E+01 0. -1.
<mgrwt>
<rscale>  0 0.34168026E+03</rscale>
<asrwt>0</asrwt>
<pdfrwt beam="1">  1       21 0.77809369E-01 0.34168026E+03</pdfrwt>
<pdfrwt beam="2">  1       21 0.88781237E-02 0.34168026E+03</pdfrwt>
<totfact> 0.14016686E+05</totfact>
</mgrwt>
</event>
<event>
 8    1  0.9705063E-006  0.3051985E+03  0.7546771E-02  0.1082670E+00
         21   -1    0    0  504  503  0.00000000000E+00  0.00000000000E+00  0.41349590500E+02  0.41349590500E+02  0.00000000000E+00 0. -1.
         21   -1    0    0  503  504 -0.00000000000E+00 -0.00000000000E+00 -0.56316219085E+03  0.56316219085E+03  0.00000000000E+00 0. -1.
         25    2    1    2    0    0 -0.73707938748E+02 -0.43121055260E+02 -0.22282820032E+03  0.26938467671E+03  0.12499364603E+03 0.  0.
         25    2    1    2    0    0  0.73707938748E+02  0.43121055260E+02 -0.29898440002E+03  0.33512710463E+03  0.12500487655E+03 0.  0.
          5    1    3    3  501    0 -0.67217965513E+02  0.18283368607E+02 -0.50218498281E+02  0.86003046603E+02  0.47000000000E+01 0.  1.
         -5    1    3    3    0  501 -0.64899732343E+01 -0.61404423867E+02 -0.17260970204E+03  0.18338163011E+03  0.47000000000E+01 0.  1.
          5    1    4    4  502    0  0.14758692945E+01  0.13792402481E+02 -0.23134487377E+03  0.23180800067E+03  0.47000000000E+01 0. -1.
         -5    1    4    4    0  502  0.72232069453E+02  0.29328652779E+02 -0.67639526255E+02  0.10331910396E+03  0.47000000000E+01 0. -1.
<mgrwt>
<rscale>  0 0.30519847E+03</rscale>
<asrwt>0</asrwt>
<pdfrwt beam="1">  1       21 0.63614751E-02 0.30519847E+03</pdfrwt>
<pdfrwt beam="2">  1       21 0.86640342E-01 0.30519847E+03</pdfrwt>
<totfact> 0.19802875E+05</totfact>
</mgrwt>
</event>
<event>
 8    1  0.9705063E-006  0.3129544E+03  0.7546771E-02  0.1078938E+00
         21   -1    0    0  504  503  0.00000000000E+00  0.00000000000E+00  0.22670840262E+04  0.22670840262E+04  0.00000000000E+00 0. -1.
         21   -1    0    0  503  504 -0.00000000000E+00 -0.00000000000E+00 -0.10800270850E+02  0.10800270850E+02  0.00000000000E+00 0. -1.
         25    2    1    2    0    0  0.52461781666E+02 -0.42850528350E+01  0.56017199901E+03  0.57635829177E+03  0.12500244720E+03 0.  0.
         25    2    1    2    0    0 -0.52461781666E+02  0.42850528350E+01  0.16961117563E+04  0.17015260053E+04  0.12500022573E+03 0.  0.
          5    1    3    3  501    0  0.64061595920E+02 -0.25936741366E+02  0.53945105779E+03  0.54388062695E+03  0.47000000000E+01 0.  1.
         -5    1    3    3    0  501 -0.11599814254E+02  0.21651688531E+02  0.20720941218E+02  0.32477664816E+02  0.47000000000E+01 0.  1.
          5    1    4    4  502    0 -0.37261479747E+02 -0.54761821271E+02  0.11678773105E+04  0.11697635562E+04  0.47000000000E+01 0.  1.
         -5    1    4    4    0  502 -0.15200301919E+02  0.59046874106E+02  0.52823444581E+03  0.53176244909E+03  0.47000000000E+01 0.  1.
<mgrwt>
<rscale>  0 0.31295445E+03</rscale>
<asrwt>0</asrwt>
<pdfrwt beam="1">  1       21 0.34878178E+00 0.31295445E+03</pdfrwt>
<pdfrwt beam="2">  1       21 0.16615819E-02 0.31295445E+03</pdfrwt>
<totfact> 0.26726538E+04</totfact>
</mgrwt>
</event>
<event>
 8    1  0.9705063E-006  0.2981183E+03  0.7546771E-02  0.1086185E+00
         21   -1    0    0  504  503  0.00000000000E+00  0.00000000000E+00  0.47835171625E+03  0.47835171625E+03  0.00000000000E+00 0.  1.
         21   -1    0    0  503  504 -0.00000000000E+00 -0.00000000000E+00 -0.46448297846E+02  0.46448297846E+02  0.00000000000E+00 0.  1.
         25    2    1    2    0    0 -0.13244185496E+02 -0.22273352906E+02  0.80480882775E+02  0.15090929111E+03  0.12499972381E+03 0.  0.
         25    2    1    2    0    0  0.13244185496E+02  0.22273352906E+02  0.35142253563E+03  0.37389072298E+03  0.12499985394E+03 0.  0.
          5    1    3    3  501    0 -0.29977226961E+02  0.28397779569E+02 -0.12675209483E+02  0.43449038611E+02  0.47000000000E+01 0. -1.
         -5    1    3    3    0  501  0.16733041466E+02 -0.50671132475E+02  0.93156092258E+02  0.10746025250E+03  0.47000000000E+01 0. -1.
          5    1    4    4  502    0  0.22393139739E+02  0.70565711802E+02  0.16266038636E+03  0.17877769346E+03  0.47000000000E+01 0.  1.
         -5    1    4    4    0  502 -0.91489542436E+01 -0.48292358896E+02  0.18876214926E+03  0.19511302951E+03  0.47000000000E+01 0.  1.
<mgrwt>
<rscale>  0 0.29811825E+03</rscale>
<asrwt>0</asrwt>
<pdfrwt beam="1">  1       21 0.73592568E-01 0.29811825E+03</pdfrwt>
<pdfrwt beam="2">  1       21 0.71458923E-02 0.29811825E+03</pdfrwt>
<totfact> 0.23532465E+05</totfact>
</mgrwt>
</event>
<event>
 8    1  0.9705063E-006  0.5011103E+03  0.7546771E-02  0.1013490E+00
         21   -1    0    0  504  503  0.00000000000E+00  0.00000000000E+00  0.89789033529E+02  0.89789033529E+02  0.00000000000E+00 0. -1.
         21   -1    0    0  503  504 -0.00000000000E+00 -0.00000000000E+00 -0.69917098898E+03  0.69917098898E+03  0.00000000000E+00 0. -1.
         25    2    1    2    0    0 -0.59612213213E+02  0.80383897099E+02 -0.12749994518E+01  0.16013171559E+03  0.12500141534E+03 0.  0.
         25    2    1    2    0    0  0.59612213213E+02 -0.80383897099E+02 -0.60810695600E+03  0.62882830691E+03  0.12496312564E+03 0.  0.
          5    1    3    3  501    0 -0.83566767259E+02  0.86329951376E+02  0.26027842181E+02  0.12302765406E+03  0.47000000000E+01 0.  1.
         -5    1    3    3    0  501  0.23954554045E+02 -0.59460542767E+01 -0.27302841633E+02  0.37104061532E+02  0.47000000000E+01 0.  1.
          5    1    4    4  502    0  0.10494693193E+02 -0.10446394916E+03 -0.40974214930E+03  0.42300540679E+03  0.47000000000E+01 0. -1.
         -5    1    4    4    0  502  0.49117520020E+02  0.24080052066E+02 -0.19836480670E+03  0.20582290013E+03  0.47000000000E+01 0. -1.
<mgrwt>
<rscale>  0 0.50111032E+03</rscale>
<asrwt>0</asrwt>
<pdfrwt beam="1">  1       21 0.13813697E-01 0.50111032E+03</pdfrwt>
<pdfrwt beam="2">  1       21 0.10756477E+00 0.50111032E+03</pdfrwt>
<totfact> 0.28118936E+04</totfact>
</mgrwt>
</event>
<event>
 8    1  0.9705063E-006  0.2550826E+03  0.7546771E-02  0.1110134E+00
         21   -1    0    0  504  503  0.00000000000E+00  0.00000000000E+00  0.38034990019E+02  0.38034990019E+02  0.00000000000E+00 0. -1.
         21   -1    0    0  503  504 -0.00000000000E+00 -0.00000000000E+00 -0.42767945291E+03  0.42767945291E+03  0.00000000000E+00 0. -1.
         25    2    1    2    0    0 -0.69004220041E+01 -0.62768138714E+01 -0.15183039877E+03  0.19688684454E+03  0.12499978139E+03 0.  0.
         25    2    1    2    0    0  0.69004220041E+01  0.62768138714E+01 -0.23781406412E+03  0.26882759839E+03  0.12500293734E+03 0.  0.
          5    1    3    3  501    0 -0.42099664525E+02  0.25664983228E+02 -0.14682593645E+02  0.51659865208E+02  0.47000000000E+01 0.  1.
         -5    1    3    3    0  501  0.35199242521E+02 -0.31941797099E+02 -0.13714780512E+03  0.14522697933E+03  0.47000000000E+01 0.  1.
          5    1    4    4  502    0  0.38178774032E+02  0.48386557133E+02 -0.72226049930E+02  0.95066134802E+02  0.47000000000E+01 0. -1.
         -5    1    4    4    0  502 -0.31278352028E+02 -0.42109743262E+02 -0.16558801419E+03  0.17376146358E+03  0.47000000000E+01 0. -1.
<mgrwt>
<rscale>  0 0.25508260E+03</rscale>
<asrwt>0</asrwt>
<pdfrwt beam="1">  1       21 0.58515371E-02 0.25508260E+03</pdfrwt>
<pdfrwt beam="2">  1       21 0.65796837E-01 0.25508260E+03</pdfrwt>
<totfact> 0.43070961E+05</totfact>
</mgrwt>
</event>
<event>
 8    1  0.9705063E-006  0.2737449E+03  0.7546771E-02  0.1099155E+00
         21   -1    0    0  504  503  0.00000000000E+00  0.00000000000E+00  0.25429300565E+02  0.25429300565E+02  0.00000000000E+00 0. -1.
         21   -1    0    0  503  504 -0.00000000000E+00 -0.00000000000E+00 -0.73671197917E+03  0.73671197917E+03  0.00000000000E+00 0. -1.
         25    2    1    2    0    0 -0.23034981456E+02 -0.34369599515E+02 -0.25157967881E+03  0.28395258818E+03  0.12499943120E+03 0.  0.
         25    2    1    2    0    0  0.23034981456E+02  0.34369599515E+02 -0.45970299979E+03  0.47818869156E+03  0.12500278787E+03 0.  0.
          5    1    3    3  501    0 -0.58280671404E+02  0.12591478511E+02 -0.65160615901E+02  0.88448730092E+02  0.47000000000E+01 0. -1.
         -5    1    3    3    0  501  0.35245689948E+02 -0.46961078026E+02 -0.18641906291E+03  0.19550385808E+03  0.47000000000E+01 0. -1.
          5    1    4    4  502    0  0.31390995464E+02 -0.21932404967E+02 -0.43743881182E+02  0.58327027395E+02  0.47000000000E+01 0. -1.
         -5    1    4    4    0  502 -0.83560140082E+01  0.56302004483E+02 -0.41595911861E+03  0.41986166416E+03  0.47000000000E+01 0. -1.
<mgrwt>
<rscale>  0 0.27374492E+03</rscale>
<asrwt>0</asrwt>
<pdfrwt beam="1">  1       21 0.39122006E-02 0.27374492E+03</pdfrwt>
<pdfrwt beam="2">  1       21 0.11334029E+00 0.27374492E+03</pdfrwt>
<totfact> 0.24093404E+05</totfact>
</mgrwt>
</event>
<event>
 8    1  0.9705063E-006  0.5399404E+03  0.7546771E-02  0.1003850E+00
         21   -1    0    0  504  503  0.00000000000E+00  0.00000000000E+00  0.10122278187E+03  0.10122278187E+03  0.00000000000E+00 0.  1.
         21   -1    0    0  503  504 -0.00000000000E+00 -0.00000000000E+00 -0.72003451081E+03  0.72003451081E+03  0.00000000000E+00 0.  1.
         25    2    1    2    0    0  0.10566789428E+03  0.21155249363E+03 -0.25384905255E+03  0.36877208273E+03  0.12503337985E+03 0.  0.
         25    2    1    2    0    0 -0.10566789428E+03 -0.21155249363E+03 -0.36496267638E+03  0.45248520995E+03  0.12499979449E+03 0.  0.
          5    1    3    3  501    0  0.42575720917E+02  0.57573364336E+01 -0.84272771409E+02  0.94709180840E+02  0.47000000000E+01 0.  1.
         -5    1    3    3    0  501  0.63092173366E+02  0.20579515720E+03 -0.16957628115E+03  0.27406290189E+03  0.47000000000E+01 0.  1.
          5    1    4    4  502    0 -0.66820140275E+02 -0.18843267341E+03 -0.35263020458E+03  0.40539111330E+03  0.47000000000E+01 0. -1.
         -5    1    4    4    0  502 -0.38847754009E+02 -0.23119820222E+02 -0.12332471799E+02  0.47094096650E+02  0.47000000000E+01 0. -1.
<mgrwt>
<rscale>  0 0.53994035E+03</rscale>
<asrwt>0</asrwt>
<pdfrwt beam="1">  1       21 0.15572736E-01 0.53994035E+03</pdfrwt>
<pdfrwt beam="2">  1       21 0.11077454E+00 0.53994035E+03</pdfrwt>
<totfact> 0.20736866E+04</totfact>
</mgrwt>
</event>
<event>
 8    1  0.9705063E-006  0.2568532E+03  0.7546771E-02  0.1109049E+00
         21   -1    0    0  504  503  0.00000000000E+00  0.00000000000E+00  0.36039324704E+02  0.36039324704E+02  0.00000000000E+00 0. -1.
         21   -1    0    0  503  504 -0.00000000000E+00 -0.00000000000E+00 -0.45764983431E+03  0.45764983431E+03  0.00000000000E+00 0. -1.
         25    2    1    2    0    0  0.62772515520E+01  0.67659571907E+01 -0.15705741472E+03  0.20093987431E+03  0.12499847802E+03 0.  0.
         25    2    1    2    0    0 -0.62772515520E+01 -0.67659571907E+01 -0.26455309489E+03  0.29274928470E+03  0.12501448562E+03 0.  0.
          5    1    3    3  501    0  0.56999734309E+02 -0.27919560346E+02 -0.76501066840E+02  0.99513691464E+02  0.47000000000E+01 0.  1.
         -5    1    3    3    0  501 -0.50722482757E+02  0.34685517536E+02 -0.80556347880E+02  0.10142618285E+03  0.47000000000E+01 0.  1.
          5    1    4    4  502    0  0.24044938090E+02 -0.76315822139E+01 -0.26052951724E+03  0.26179022030E+03  0.47000000000E+01 0. -1.
         -5    1    4    4    0  502 -0.30322189642E+02  0.86562502317E+00 -0.40235776538E+01  0.30959064400E+02  0.47000000000E+01 0. -1.
<mgrwt>
<rscale>  0 0.25685320E+03</rscale>
<asrwt>0</asrwt>
<pdfrwt beam="1">  1       21 0.55445119E-02 0.25685320E+03</pdfrwt>
<pdfrwt beam="2">  1       21 0.70407662E-01 0.25685320E+03</pdfrwt>
<totfact> 0.40664369E+05</totfact>
</mgrwt>
</event>
<event>
 8    1  0.9705063E-006  0.2805533E+03  0.7546771E-02  0.1095387E+00
         21   -1    0    0  504  503  0.00000000000E+00  0.00000000000E+00  0.45836709151E+03  0.45836709151E+03  0.00000000000E+00 0.  1.
         21   -1    0    0  503  504 -0.00000000000E+00 -0.00000000000E+00 -0.42929661475E+02  0.42929661475E+02  0.00000000000E+00 0.  1.
         25    2    1    2    0    0  0.52340131448E+02 -0.34427609359E+02  0.18747075201E+03  0.23386720797E+03  0.12499535374E+03 0.  0.
         25    2    1    2    0    0 -0.52340131448E+02  0.34427609359E+02  0.22796667803E+03  0.26742954502E+03  0.12500002245E+03 0.  0.
          5    1    3    3  501    0 -0.37038160163E+02 -0.33331981562E+02  0.60512558091E+02  0.78528376971E+02  0.47000000000E+01 0. -1.
         -5    1    3    3    0  501  0.89378291611E+02 -0.10956277970E+01  0.12695819392E+03  0.15533883099E+03  0.47000000000E+01 0. -1.
          5    1    4    4  502    0 -0.60951918382E+02 -0.12828537833E+02  0.41925700744E+02  0.75230061281E+02  0.47000000000E+01 0.  1.
         -5    1    4    4    0  502  0.86117869338E+01  0.47256147192E+02  0.18604097729E+03  0.19219948374E+03  0.47000000000E+01 0.  1.
<mgrwt>
<rscale>  0 0.28055334E+03</rscale>
<asrwt>0</asrwt>
<pdfrwt beam="1">  1       21 0.70518011E-01 0.28055334E+03</pdfrwt>
<pdfrwt beam="2">  1       21 0.66045636E-02 0.28055334E+03</pdfrwt>
<totfact> 0.29813895E+05</totfact>
</mgrwt>
</event>
<event>
 8    1  0.9705063E-006  0.2825665E+03  0.7546771E-02  0.1094295E+00
         21   -1    0    0  504  503  0.00000000000E+00  0.00000000000E+00  0.59591077981E+03  0.59591077981E+03  0.00000000000E+00 0.  1.
         21   -1    0    0  503  504 -0.00000000000E+00 -0.00000000000E+00 -0.33496544583E+02  0.33496544583E+02  0.00000000000E+00 0.  1.
         25    2    1    2    0    0 -0.19729877201E+02 -0.48931956340E+02  0.19345683367E+03  0.23629366567E+03  0.12500218212E+03 0.  0.
         25    2    1    2    0    0  0.19729877201E+02  0.48931956340E+02  0.36895740156E+03  0.39311365872E+03  0.12500072042E+03 0.  0.
          5    1    3    3  501    0  0.23721884694E+02 -0.78351150137E+02  0.13143698632E+03  0.15491740352E+03  0.47000000000E+01 0.  1.
         -5    1    3    3    0  501 -0.43451761895E+02  0.29419193797E+02  0.62019847346E+02  0.81376262142E+02  0.47000000000E+01 0.  1.
          5    1    4    4  502    0 -0.44099083238E+02  0.54309401759E+02  0.21988830703E+03  0.23079687570E+03  0.47000000000E+01 0. -1.
         -5    1    4    4    0  502  0.63828960439E+02 -0.53774454182E+01  0.14906909452E+03  0.16231678302E+03  0.47000000000E+01 0. -1.
<mgrwt>
<rscale>  0 0.28256647E+03</rscale>
<asrwt>0</asrwt>
<pdfrwt beam="1">  1       21 0.91678573E-01 0.28256647E+03</pdfrwt>
<pdfrwt beam="2">  1       21 0.51533150E-02 0.28256647E+03</pdfrwt>
<totfact> 0.25078798E+05</totfact>
</mgrwt>
</event>
<event>
 8    1  0.9705063E-006  0.2942450E+03  0.7546771E-02  0.1088153E+00
         21   -1    0    0  504  503  0.00000000000E+00  0.00000000000E+00  0.14508455853E+03  0.14508455853E+03  0.00000000000E+00 0.  1.
         21   -1    0    0  503  504 -0.00000000000E+00 -0.00000000000E+00 -0.14918907517E+03  0.14918907517E+03  0.00000000000E+00 0.  1.
         25    2    1    2    0    0  0.73993014286E+02  0.20398994121E+02 -0.13438832113E+02  0.14729088192E+03  0.12499166598E+03 0.  0.
         25    2    1    2    0    0 -0.73993014286E+02 -0.20398994121E+02  0.93343154707E+01  0.14698275177E+03  0.12500285896E+03 0.  0.
          5    1    3    3  501    0  0.78095224767E+01 -0.43343846049E+02  0.21039335349E+02  0.49034898425E+02  0.47000000000E+01 0.  1.
         -5    1    3    3    0  501  0.66183491810E+02  0.63742840169E+02 -0.34478167463E+02  0.98255983495E+02  0.47000000000E+01 0.  1.
          5    1    4    4  502    0  0.32970758553E+02 -0.13738603649E+02  0.16174780046E+02  0.39490931356E+02  0.47000000000E+01 0.  1.
         -5    1    4    4    0  502 -0.10696377284E+03 -0.66603904716E+01 -0.68404645755E+01  0.10749182042E+03  0.47000000000E+01 0.  1.
<mgrwt>
<rscale>  0 0.29424501E+03</rscale>
<asrwt>0</asrwt>
<pdfrwt beam="1">  1       21 0.22320701E-01 0.29424501E+03</pdfrwt>
<pdfrwt beam="2">  1       21 0.22952166E-01 0.29424501E+03</pdfrwt>
<totfact> 0.32719173E+05</totfact>
</mgrwt>
</event>
<event>
 8    1  0.9705063E-006  0.3403683E+03  0.7546771E-02  0.1066639E+00
         21   -1    0    0  504  503  0.00000000000E+00  0.00000000000E+00  0.67859419411E+02  0.67859419411E+02  0.00000000000E+00 0. -1.
         21   -1    0    0  503  504 -0.00000000000E+00 -0.00000000000E+00 -0.42680357089E+03  0.42680357089E+03  0.00000000000E+00 0. -1.
         25    2    1    2    0    0 -0.47562455935E+02 -0.14488210155E+02 -0.27980264884E+02  0.13740438550E+03  0.12499989793E+03 0.  0.
         25    2    1    2    0    0  0.47562455935E+02  0.14488210155E+02 -0.33096388660E+03  0.35725860481E+03  0.12499808410E+03 0.  0.
          5    1    3    3  501    0 -0.33712332514E+02  0.48025727112E+02 -0.41206072932E+02  0.71854173676E+02  0.47000000000E+01 0.  1.
         -5    1    3    3    0  501 -0.13850123421E+02 -0.62513937266E+02  0.13225808048E+02  0.65550211822E+02  0.47000000000E+01 0.  1.
          5    1    4    4  502    0  0.99825979653E+01  0.11373175233E+02 -0.31603307676E+03  0.31643008230E+03  0.47000000000E+01 0. -1.
         -5    1    4    4    0  502  0.37579857970E+02  0.31150349216E+01 -0.14930809834E+02  0.40828522505E+02  0.47000000000E+01 0. -1.
<mgrwt>
<rscale>  0 0.34036829E+03</rscale>
<asrwt>0</asrwt>
<pdfrwt beam="1">  1       21 0.10439911E-01 0.34036829E+03</pdfrwt>
<pdfrwt beam="2">  1       21 0.65662088E-01 0.34036829E+03</pdfrwt>
<totfact> 0.15373314E+05</totfact>
</mgrwt>
</event>
<event>
 8    1  0.9705063E-006  0.2702333E+03  0.7546771E-02  0.1101146E+00
         21   -1    0    0  504  503  0.00000000000E+00  0.00000000000E+00  0.50200725802E+02  0.50200725802E+02  0.00000000000E+00 0. -1.
         21   -1    0    0  503  504 -0.00000000000E+00 -0.00000000000E+00 -0.36367034701E+03  0.36367034701E+03  0.00000000000E+00 0. -1.
         25    2    1    2    0    0 -0.42720072618E+02 -0.11463789668E+02 -0.19654209032E+03  0.23708683023E+03  0.12499979490E+03 0.  0.
         25    2    1    2    0    0  0.42720072618E+02  0.11463789668E+02 -0.11692753089E+03  0.17678424258E+03  0.12499679143E+03 0.  0.
          5    1    3    3  501    0  0.30632340974E+02 -0.34662409499E+02 -0.11896880023E+03  0.12773209610E+03  0.47000000000E+01 0. -1.
         -5    1    3    3    0  501 -0.73352413591E+02  0.23198619831E+02 -0.77573290087E+02  0.10935473413E+03  0.47000000000E+01 0. -1.
          5    1    4    4  502    0  0.46087918209E+01  0.64930547373E+02 -0.44954911733E+02  0.79248034885E+02  0.47000000000E+01 0.  1.
         -5    1    4    4    0  502  0.38111280797E+02 -0.53466757706E+02 -0.71972619155E+02  0.97536207695E+02  0.47000000000E+01 0.  1.
<mgrwt>
<rscale>  0 0.27023335E+03</rscale>
<asrwt>0</asrwt>
<pdfrwt beam="1">  1       21 0.77231887E-02 0.27023335E+03</pdfrwt>
<pdfrwt beam="2">  1       21 0.55949284E-01 0.27023335E+03</pdfrwt>
<totfact> 0.37706091E+05</totfact>
</mgrwt>
</event>
<event>
 8    1  0.9705063E-006  0.3813106E+03  0.7546771E-02  0.1050450E+00
         21   -1    0    0  504  503  0.00000000000E+00  0.00000000000E+00  0.19833390069E+03  0.19833390069E+03  0.00000000000E+00 0. -1.
         21   -1    0    0  503  504 -0.00000000000E+00 -0.00000000000E+00 -0.18327400147E+03  0.18327400147E+03  0.00000000000E+00 0. -1.
         25    2    1    2    0    0  0.11955580015E+03 -0.13634292903E+02 -0.71558109802E+02  0.18768252777E+03  0.12499873943E+03 0.  0.
         25    2    1    2    0    0 -0.11955580015E+03  0.13634292903E+02  0.86618009026E+02  0.19392537439E+03  0.12499955221E+03 0.  0.
          5    1    3    3  501    0  0.66337678644E+02  0.12448402245E+02 -0.10082070729E+03  0.12141892498E+03  0.47000000000E+01 0.  1.
         -5    1    3    3    0  501  0.53218121508E+02 -0.26082695148E+02  0.29262597485E+02  0.66263602790E+02  0.47000000000E+01 0.  1.
          5    1    4    4  502    0 -0.13029615845E+03 -0.13604302041E+02  0.96379007163E+02  0.16270577421E+03  0.47000000000E+01 0. -1.
         -5    1    4    4    0  502  0.10740358293E+02  0.27238594944E+02 -0.97609981361E+01  0.31219600180E+02  0.47000000000E+01 0. -1.
<mgrwt>
<rscale>  0 0.38131062E+03</rscale>
<asrwt>0</asrwt>
<pdfrwt beam="1">  1       21 0.30512908E-01 0.38131062E+03</pdfrwt>
<pdfrwt beam="2">  1       21 0.28196000E-01 0.38131062E+03</pdfrwt>
<totfact> 0.11753553E+05</totfact>
</mgrwt>
</event>
<event>
 8    1  0.9705063E-006  0.3123772E+03  0.7546771E-02  0.1079212E+00
         21   -1    0    0  504  503  0.00000000000E+00  0.00000000000E+00  0.82782305235E+03  0.82782305235E+03  0.00000000000E+00 0. -1.
         21   -1    0    0  503  504 -0.00000000000E+00 -0.00000000000E+00 -0.29468714056E+02  0.29468714056E+02  0.00000000000E+00 0. -1.
         25    2    1    2    0    0 -0.84862903554E+01 -0.91141981706E+02  0.45341884385E+03  0.47915920395E+03  0.12500406719E+03 0.  0.
         25    2    1    2    0    0  0.84862903554E+01  0.91141981706E+02  0.34493549444E+03  0.37813256246E+03  0.12499944605E+03 0.  0.
          5    1    3    3  501    0 -0.37620395626E+02  0.58785794707E+00  0.41901818867E+02  0.56510991571E+02  0.47000000000E+01 0. -1.
         -5    1    3    3    0  501  0.29134105270E+02 -0.91729839653E+02  0.41151702498E+03  0.42264821238E+03  0.47000000000E+01 0. -1.
          5    1    4    4  502    0  0.65249683518E+02  0.57264783442E+02  0.22305558401E+03  0.23940062694E+03  0.47000000000E+01 0.  1.
         -5    1    4    4    0  502 -0.56763393162E+02  0.33877198264E+02  0.12187991043E+03  0.13873193552E+03  0.47000000000E+01 0.  1.
<mgrwt>
<rscale>  0 0.31237721E+03</rscale>
<asrwt>0</asrwt>
<pdfrwt beam="1">  1       21 0.12735738E+00 0.31237721E+03</pdfrwt>
<pdfrwt beam="2">  1       21 0.45336489E-02 0.31237721E+03</pdfrwt>
<totfact> 0.13860141E+05</totfact>
</mgrwt>
</event>
<event>
 8    1  0.9705063E-006  0.2747295E+03  0.7546771E-02  0.1098603E+00
         21   -1    0    0  504  503  0.00000000000E+00  0.00000000000E+00  0.26875045478E+03  0.26875045478E+03  0.00000000000E+00 0.  1.
         21   -1    0    0  503  504 -0.00000000000E+00 -0.00000000000E+00 -0.70210366018E+02  0.70210366018E+02  0.00000000000E+00 0.  1.
         25    2    1    2    0    0 -0.28575718984E+02 -0.49229902925E+02  0.10134246072E+03  0.17068838023E+03  0.12499629493E+03 0.  0.
         25    2    1    2    0    0  0.28575718984E+02  0.49229902925E+02  0.97197628044E+02  0.16827244056E+03  0.12501232059E+03 0.  0.
          5    1    3    3  501    0  0.30913816359E+01 -0.87286406899E+02  0.68391849840E+02  0.11103156576E+03  0.47000000000E+01 0.  1.
         -5    1    3    3    0  501 -0.31667100620E+02  0.38056503974E+02  0.32950610877E+02  0.59656814477E+02  0.47000000000E+01 0.  1.
          5    1    4    4  502    0  0.61222153076E+02 -0.16684070443E+02  0.43359111162E+02  0.76997485378E+02  0.47000000000E+01 0.  1.
         -5    1    4    4    0  502 -0.32646434092E+02  0.65913973367E+02  0.53838516882E+02  0.91274955185E+02  0.47000000000E+01 0.  1.
<mgrwt>
<rscale>  0 0.27472945E+03</rscale>
<asrwt>0</asrwt>
<pdfrwt beam="1">  1       21 0.41346223E-01 0.27472945E+03</pdfrwt>
<pdfrwt beam="2">  1       21 0.10801595E-01 0.27472945E+03</pdfrwt>
<totfact> 0.39172020E+05</totfact>
</mgrwt>
</event>
<event>
 8    1  0.9705063E-006  0.2837999E+03  0.7546771E-02  0.1093631E+00
         21   -1    0    0  504  503  0.00000000000E+00  0.00000000000E+00  0.92913338937E+03  0.92913338937E+03  0.00000000000E+00 0. -1.
         21   -1    0    0  503  504 -0.00000000000E+00 -0.00000000000E+00 -0.21671366326E+02  0.21671366326E+02  0.00000000000E+00 0. -1.
         25    2    1    2    0    0 -0.34295017461E+02  0.39203081699E+02  0.31154809927E+03  0.33969799928E+03  0.12497792890E+03 0.  0.
         25    2    1    2    0    0  0.34295017461E+02 -0.39203081699E+02  0.59591392377E+03  0.61110675642E+03  0.12500013345E+03 0.  0.
          5    1    3    3  501    0  0.50316651174E+01  0.77944372709E+02  0.15491782213E+03  0.17355766910E+03  0.47000000000E+01 0. -1.
         -5    1    3    3    0  501 -0.39326682578E+02 -0.38741291010E+02  0.15663027715E+03  0.16614033018E+03  0.47000000000E+01 0. -1.
          5    1    4    4  502    0 -0.70490238581E+01  0.13609008147E+02  0.56066992314E+01  0.16982900706E+02  0.47000000000E+01 0. -1.
         -5    1    4    4    0  502  0.41344041319E+02 -0.52812089846E+02  0.59030722454E+03  0.59412385572E+03  0.47000000000E+01 0. -1.
<mgrwt>
<rscale>  0 0.28379986E+03</rscale>
<asrwt>0</asrwt>
<pdfrwt beam="1">  1       21 0.14294357E+00 0.28379986E+03</pdfrwt>
<pdfrwt beam="2">  1       21 0.33340571E-02 0.28379986E+03</pdfrwt>
<totfact> 0.17420164E+05</totfact>
</mgrwt>
</event>
<event>
 8    1  0.9705063E-006  0.3086626E+03  0.7546771E-02  0.1080989E+00
         21   -1    0    0  504  503  0.00000000000E+00  0.00000000000E+00  0.16565422683E+04  0.16565422683E+04  0.00000000000E+00 0.  1.
         21   -1    0    0  503  504 -0.00000000000E+00 -0.00000000000E+00 -0.14378230677E+02  0.14378230677E+02  0.00000000000E+00 0.  1.
         25    2    1    2    0    0 -0.88632196427E+02 -0.17969360168E+02  0.83962262752E+03  0.85368008707E+03  0.12499988112E+03 0.  0.
         25    2    1    2    0    0  0.88632196427E+02  0.17969360168E+02  0.80254141015E+03  0.81724041194E+03  0.12502244505E+03 0.  0.
          5    1    3    3  501    0  0.15616234522E+02 -0.29784751112E+02  0.41014721456E+03  0.41155051426E+03  0.47000000000E+01 0. -1.
         -5    1    3    3    0  501 -0.10424843095E+03  0.11815390943E+02  0.42947541296E+03  0.44212957281E+03  0.47000000000E+01 0. -1.
          5    1    4    4  502    0  0.79129111339E+02 -0.25289722077E+02  0.26263382133E+03  0.27549882107E+03  0.47000000000E+01 0.  1.
         -5    1    4    4    0  502  0.95030850874E+01  0.43259082245E+02  0.53990758881E+03  0.54174159087E+03  0.47000000000E+01 0.  1.
<mgrwt>
<rscale>  0 0.30866258E+03</rscale>
<asrwt>0</asrwt>
<pdfrwt beam="1">  1       21 0.25485251E+00 0.30866258E+03</pdfrwt>
<pdfrwt beam="2">  1       21 0.22120368E-02 0.30866258E+03</pdfrwt>
<totfact> 0.60590576E+04</totfact>
</mgrwt>
</event>
<event>
 8    1  0.9705063E-006  0.3264254E+03  0.7546771E-02  0.1072730E+00
         21   -1    0    0  504  503  0.00000000000E+00  0.00000000000E+00  0.78569752886E+02  0.78569752886E+02  0.00000000000E+00 0. -1.
         21   -1    0    0  503  504 -0.00000000000E+00 -0.00000000000E+00 -0.33904126021E+03  0.33904126021E+03  0.00000000000E+00 0. -1.
         25    2    1    2    0    0  0.45277316998E+02  0.42982416059E+02 -0.22318265643E+02  0.14149595241E+03  0.12500190415E+03 0.  0.
         25    2    1    2    0    0 -0.45277316998E+02 -0.42982416059E+02 -0.23815324168E+03  0.27611506068E+03  0.12500014676E+03 0.  0.
          5    1    3    3  501    0 -0.23022449384E+01  0.29914078713E+02  0.47195125896E+02  0.56121496285E+02  0.47000000000E+01 0. -1.
         -5    1    3    3    0  501  0.47579561936E+02  0.13068337346E+02 -0.69513391539E+02  0.85374456123E+02  0.47000000000E+01 0. -1.
          5    1    4    4  502    0  0.30949321533E+02 -0.10530336560E+02 -0.15559319631E+03  0.15905999255E+03  0.47000000000E+01 0.  1.
         -5    1    4    4    0  502 -0.76226638531E+02 -0.32452079499E+02 -0.82560045369E+02  0.11705506814E+03  0.47000000000E+01 0.  1.
<mgrwt>
<rscale>  0 0.32642542E+03</rscale>
<asrwt>0</asrwt>
<pdfrwt beam="1">  1       21 0.12087654E-01 0.32642542E+03</pdfrwt>
<pdfrwt beam="2">  1       21 0.52160194E-01 0.32642542E+03</pdfrwt>
<totfact> 0.19500776E+05</totfact>
</mgrwt>
</event>
<event>
 8    1  0.9705063E-006  0.2910178E+03  0.7546771E-02  0.1089819E+00
         21   -1    0    0  504  503  0.00000000000E+00  0.00000000000E+00  0.29001400912E+02  0.29001400912E+02  0.00000000000E+00 0. -1.
         21   -1    0    0  503  504 -0.00000000000E+00 -0.00000000000E+00 -0.73006278937E+03  0.73006278937E+03  0.00000000000E+00 0. -1.
         25    2    1    2    0    0 -0.33726577525E+02 -0.52772243438E+02 -0.24545017119E+03  0.28247379032E+03  0.12499305570E+03 0.  0.
         25    2    1    2    0    0  0.33726577525E+02  0.52772243438E+02 -0.45561121727E+03  0.47659039996E+03  0.12503773960E+03 0.  0.
          5    1    3    3  501    0  0.86752748705E+01 -0.82704667532E+02 -0.18349981574E+03  0.20151822449E+03  0.47000000000E+01 0. -1.
         -5    1    3    3    0  501 -0.42401852396E+02  0.29932424094E+02 -0.61950355447E+02  0.80955565829E+02  0.47000000000E+01 0. -1.
          5    1    4    4  502    0 -0.28375936121E+02  0.10810279253E+02 -0.32084417578E+03  0.32231216393E+03  0.47000000000E+01 0.  1.
         -5    1    4    4    0  502  0.62102513647E+02  0.41961964185E+02 -0.13476704150E+03  0.15427823603E+03  0.47000000000E+01 0.  1.
<mgrwt>
<rscale>  0 0.29101783E+03</rscale>
<asrwt>0</asrwt>
<pdfrwt beam="1">  1       21 0.44617544E-02 0.29101783E+03</pdfrwt>
<pdfrwt beam="2">  1       21 0.11231734E+00 0.29101783E+03</pdfrwt>
<totfact> 0.19629021E+05</totfact>
</mgrwt>
</event>
<event>
 8    1  0.9705063E-006  0.2722009E+03  0.7546771E-02  0.1100027E+00
         21   -1    0    0  504  503  0.00000000000E+00  0.00000000000E+00  0.20857515909E+03  0.20857515909E+03  0.00000000000E+00 0. -1.
         21   -1    0    0  503  504 -0.00000000000E+00 -0.00000000000E+00 -0.88808911605E+02  0.88808911605E+02  0.00000000000E+00 0. -1.
         25    2    1    2    0    0  0.12673196176E+02 -0.46591986644E+02  0.33816059704E+02  0.13818758169E+03  0.12498343377E+03 0.  0.
         25    2    1    2    0    0 -0.12673196176E+02  0.46591986644E+02  0.85950187778E+02  0.15919648900E+03  0.12499865684E+03 0.  0.
          5    1    3    3  501    0  0.36547543901E+02  0.30767305498E+02  0.30799803350E+02  0.57035672514E+02  0.47000000000E+01 0.  1.
         -5    1    3    3    0  501 -0.23874347725E+02 -0.77359292142E+02  0.30162563544E+01  0.81151909173E+02  0.47000000000E+01 0.  1.
          5    1    4    4  502    0  0.49800599841E+02  0.10049989914E+02  0.61977849687E+01  0.51396542494E+02  0.47000000000E+01 0. -1.
         -5    1    4    4    0  502 -0.62473796017E+02  0.36541996730E+02  0.79752402809E+02  0.10779994651E+03  0.47000000000E+01 0. -1.
<mgrwt>
<rscale>  0 0.27220090E+03</rscale>
<asrwt>0</asrwt>
<pdfrwt beam="1">  1       21 0.32088486E-01 0.27220090E+03</pdfrwt>
<pdfrwt beam="2">  1       21 0.13662910E-01 0.27220090E+03</pdfrwt>
<totfact> 0.42703407E+05</totfact>
</mgrwt>
</event>
<event>
 8    1  0.9705063E-006  0.3626064E+03  0.7546771E-02  0.1057557E+00
         21   -1    0    0  504  503  0.00000000000E+00  0.00000000000E+00  0.27756284132E+03  0.27756284132E+03  0.00000000000E+00 0.  1.
         21   -1    0    0  503  504 -0.00000000000E+00 -0.00000000000E+00 -0.11842669797E+03  0.11842669797E+03  0.00000000000E+00 0.  1.
         25    2    1    2    0    0  0.36491058196E+02 -0.45005587792E+02 -0.49130460429E+02  0.14627359460E+03  0.12500024830E+03 0.  0.
         25    2    1    2    0    0 -0.36491058196E+02  0.45005587792E+02  0.20826660378E+03  0.24971594468E+03  0.12500389801E+03 0.  0.
          5    1    3    3  501    0  0.54978097098E+02 -0.79530415736E+02 -0.24780991377E+02  0.99919296041E+02  0.47000000000E+01 0. -1.
         -5    1    3    3    0  501 -0.18487038903E+02  0.34524827944E+02 -0.24349469052E+02  0.46354298561E+02  0.47000000000E+01 0. -1.
          5    1    4    4  502    0 -0.46428870855E+02  0.26329773217E+02  0.21905150746E+03  0.22550953400E+03  0.47000000000E+01 0. -1.
         -5    1    4    4    0  502  0.99378126594E+01  0.18675814576E+02 -0.10784903680E+02  0.24206410678E+02  0.47000000000E+01 0. -1.
<mgrwt>
<rscale>  0 0.36260640E+03</rscale>
<asrwt>0</asrwt>
<pdfrwt beam="1">  1       21 0.42701976E-01 0.36260640E+03</pdfrwt>
<pdfrwt beam="2">  1       21 0.18219492E-01 0.36260640E+03</pdfrwt>
<totfact> 0.13818061E+05</totfact>
</mgrwt>
</event>
<event>
 8    1  0.9705063E-006  0.2835011E+03  0.7546771E-02  0.1093792E+00
         21   -1    0    0  504  503  0.00000000000E+00  0.00000000000E+00  0.95506378469E+02  0.95506378469E+02  0.00000000000E+00 0.  1.
         21   -1    0    0  503  504 -0.00000000000E+00 -0.00000000000E+00 -0.21038613358E+03  0.21038613358E+03  0.00000000000E+00 0.  1.
         25    2    1    2    0    0  0.44772445380E+02  0.15382932985E+02 -0.64759579413E+01  0.13380641214E+03  0.12498404461E+03 0.  0.
         25    2    1    2    0    0 -0.44772445380E+02 -0.15382932985E+02 -0.10840379717E+03  0.17208609991E+03  0.12498414319E+03 0.  0.
          5    1    3    3  501    0  0.62884379409E+02 -0.26149532426E+02  0.30850421078E+02  0.74913828499E+02  0.47000000000E+01 0.  1.
         -5    1    3    3    0  501 -0.18111934029E+02  0.41532465411E+02 -0.37326379019E+02  0.58892583642E+02  0.47000000000E+01 0.  1.
          5    1    4    4  502    0 -0.21303762522E+02 -0.32945006338E+02 -0.12967755364E+03  0.13556393938E+03  0.47000000000E+01 0.  1.
         -5    1    4    4    0  502 -0.23468682858E+02  0.17562073353E+02  0.21273756472E+02  0.36522160533E+02  0.47000000000E+01 0.  1.
<mgrwt>
<rscale>  0 0.28350109E+03</rscale>
<asrwt>0</asrwt>
<pdfrwt beam="1">  1       21 0.14693289E-01 0.28350109E+03</pdfrwt>
<pdfrwt beam="2">  1       21 0.32367097E-01 0.28350109E+03</pdfrwt>
<totfact> 0.36677685E+05</totfact>
</mgrwt>
</event>
<event>
 8    1  0.9705063E-006  0.3028372E+03  0.7546771E-02  0.1083831E+00
         21   -1    0    0  504  503  0.00000000000E+00  0.00000000000E+00  0.20277815100E+03  0.20277815100E+03  0.00000000000E+00 0. -1.
         21   -1    0    0  503  504 -0.00000000000E+00 -0.00000000000E+00 -0.11306740359E+03  0.11306740359E+03  0.00000000000E+00 0. -1.
         25    2    1    2    0    0 -0.82439818952E+02 -0.12561874455E+02  0.25379557414E+02  0.15239472328E+03  0.12500362119E+03 0.  0.
         25    2    1    2    0    0  0.82439818952E+02  0.12561874455E+02  0.64331190001E+02  0.16345083131E+03  0.12499419111E+03 0.  0.
          5    1    3    3  501    0 -0.36444335155E+02  0.15066962074E+02 -0.47408653912E+02  0.61845560688E+02  0.47000000000E+01 0.  1.
         -5    1    3    3    0  501 -0.45995483796E+02 -0.27628836529E+02  0.72788211326E+02  0.90549162589E+02  0.47000000000E+01 0.  1.
          5    1    4    4  502    0  0.20161869427E+02  0.14026912109E+02 -0.36852067738E+02  0.44535605291E+02  0.47000000000E+01 0.  1.
         -5    1    4    4    0  502  0.62277949525E+02 -0.14650376538E+01  0.10118325774E+03  0.11891522602E+03  0.47000000000E+01 0.  1.
<mgrwt>
<rscale>  0 0.30283724E+03</rscale>
<asrwt>0</asrwt>
<pdfrwt beam="1">  1       21 0.31196638E-01 0.30283724E+03</pdfrwt>
<pdfrwt beam="2">  1       21 0.17394985E-01 0.30283724E+03</pdfrwt>
<totfact> 0.28774986E+05</totfact>
</mgrwt>
</event>
<event>
 8    1  0.9705063E-006  0.3823938E+03  0.7546771E-02  0.1050053E+00
         21   -1    0    0  504  503  0.00000000000E+00  0.00000000000E+00  0.10425276689E+04  0.10425276689E+04  0.00000000000E+00 0. -1.
         21   -1    0    0  503  504 -0.00000000000E+00 -0.00000000000E+00 -0.35065014192E+02  0.35065014192E+02  0.00000000000E+00 0. -1.
         25    2    1    2    0    0 -0.65018505468E+02 -0.95437854510E+02  0.74931559903E+03  0.76839782388E+03  0.12500223465E+03 0.  0.
         25    2    1    2    0    0  0.65018505468E+02  0.95437854510E+02  0.25814705564E+03  0.30919485917E+03  0.12500307387E+03 0.  0.
          5    1    3    3  501    0  0.18758690666E+02 -0.72901540573E+02  0.46585292114E+03  0.47191901554E+03  0.47000000000E+01 0.  1.
         -5    1    3    3    0  501 -0.83777196134E+02 -0.22536313938E+02  0.28346267789E+03  0.29647880834E+03  0.47000000000E+01 0.  1.
          5    1    4    4  502    0  0.59243873128E+02  0.52346281804E+02  0.43939130302E+02  0.90568796468E+02  0.47000000000E+01 0. -1.
         -5    1    4    4    0  502  0.57746323399E+01  0.43091572706E+02  0.21420792533E+03  0.21862606270E+03  0.47000000000E+01 0. -1.
<mgrwt>
<rscale>  0 0.38239376E+03</rscale>
<asrwt>0</asrwt>
<pdfrwt beam="1">  1       21 0.16038885E+00 0.38239376E+03</pdfrwt>
<pdfrwt beam="2">  1       21 0.53946184E-02 0.38239376E+03</pdfrwt>
<totfact> 0.54651164E+04</totfact>
</mgrwt>
</event>
<event>
 8    1  0.9705063E-006  0.3162645E+03  0.7546771E-02  0.1077381E+00
         21   -1    0    0  504  503  0.00000000000E+00  0.00000000000E+00  0.35537309771E+03  0.35537309771E+03  0.00000000000E+00 0. -1.
         21   -1    0    0  503  504 -0.00000000000E+00 -0.00000000000E+00 -0.70364951827E+02  0.70364951827E+02  0.00000000000E+00 0. -1.
         25    2    1    2    0    0  0.15990666515E+02  0.93252322195E+02  0.11462794735E+03  0.19420593205E+03  0.12499872287E+03 0.  0.
         25    2    1    2    0    0 -0.15990666515E+02 -0.93252322195E+02  0.17038019854E+03  0.23153211749E+03  0.12500404939E+03 0.  0.
          5    1    3    3  501    0  0.69610365996E+02  0.47868305416E+02  0.48031653768E+02  0.97293923146E+02  0.47000000000E+01 0.  1.
         -5    1    3    3    0  501 -0.53619699481E+02  0.45384016780E+02  0.66596293580E+02  0.96912008906E+02  0.47000000000E+01 0.  1.
          5    1    4    4  502    0 -0.68949020477E+01 -0.91446505010E+02  0.39039565039E+02  0.99780662411E+02  0.47000000000E+01 0.  1.
         -5    1    4    4    0  502 -0.90957644669E+01 -0.18058171854E+01  0.13134063350E+03  0.13175145508E+03  0.47000000000E+01 0.  1.
<mgrwt>
<rscale>  0 0.31626452E+03</rscale>
<asrwt>0</asrwt>
<pdfrwt beam="1">  1       21 0.54672783E-01 0.31626452E+03</pdfrwt>
<pdfrwt beam="2">  1       21 0.10825377E-01 0.31626452E+03</pdfrwt>
<totfact> 0.21567283E+05</totfact>
</mgrwt>
</event>
<event>
 8    1  0.9705063E-006  0.2627210E+03  0.7546771E-02  0.1105519E+00
         21   -1    0    0  504  503  0.00000000000E+00  0.00000000000E+00  0.11690281104E+04  0.11690281104E+04  0.00000000000E+00 0.  1.
         21   -1    0    0  503  504 -0.00000000000E+00 -0.00000000000E+00 -0.14760620995E+02  0.14760620995E+02  0.00000000000E+00 0.  1.
         25    2    1    2    0    0  0.29755395214E+02 -0.24647095245E+02  0.52429402934E+03  0.54037199878E+03  0.12499922005E+03 0.  0.
         25    2    1    2    0    0 -0.29755395214E+02  0.24647095245E+02  0.62997346007E+03  0.64341673262E+03  0.12500267428E+03 0.  0.
          5    1    3    3  501    0  0.39770251747E+02 -0.71831548845E+02  0.34138052941E+03  0.35114697805E+03  0.47000000000E+01 0. -1.
         -5    1    3    3    0  501 -0.10014856533E+02  0.47184453600E+02  0.18291349994E+03  0.18922502073E+03  0.47000000000E+01 0. -1.
          5    1    4    4  502    0  0.29203337469E+02 -0.35125154345E+02  0.25825008434E+03  0.26230098636E+03  0.47000000000E+01 0.  1.
         -5    1    4    4    0  502 -0.58958732683E+02  0.59772249590E+02  0.37172337573E+03  0.38111574626E+03  0.47000000000E+01 0.  1.
<mgrwt>
<rscale>  0 0.26272100E+03</rscale>
<asrwt>0</asrwt>
<pdfrwt beam="1">  1       21 0.17985041E+00 0.26272100E+03</pdfrwt>
<pdfrwt beam="2">  1       21 0.22708657E-02 0.26272100E+03</pdfrwt>
<totfact> 0.17706812E+05</totfact>
</mgrwt>
</event>
<event>
 8    1  0.9705063E-006  0.5207396E+03  0.7546771E-02  0.1008503E+00
         21   -1    0    0  504  503  0.00000000000E+00  0.00000000000E+00  0.91127159788E+02  0.91127159788E+02  0.00000000000E+00 0. -1.
         21   -1    0    0  503  504 -0.00000000000E+00 -0.00000000000E+00 -0.74393236113E+03  0.74393236113E+03  0.00000000000E+00 0. -1.
         25    2    1    2    0    0  0.17432971791E+03 -0.10358095184E+03 -0.49495327855E+03  0.54929346711E+03  0.12499880375E+03 0.  0.
         25    2    1    2    0    0 -0.17432971791E+03  0.10358095184E+03 -0.15785192280E+03  0.28576605381E+03  0.12500057540E+03 0.  0.
          5    1    3    3  501    0  0.15120453460E+03 -0.41548912286E+02 -0.42422031587E+03  0.45229867322E+03  0.47000000000E+01 0.  1.
         -5    1    3    3    0  501  0.23125183309E+02 -0.62032039550E+02 -0.70732962674E+02  0.96994793893E+02  0.47000000000E+01 0.  1.
          5    1    4    4  502    0  0.14444060170E+02 -0.45124395575E+01  0.17247814989E+01  0.15939192457E+02  0.47000000000E+01 0. -1.
         -5    1    4    4    0  502 -0.18877377808E+03  0.10809339139E+03 -0.15957670430E+03  0.26982686135E+03  0.47000000000E+01 0. -1.
<mgrwt>
<rscale>  0 0.52073964E+03</rscale>
<asrwt>0</asrwt>
<pdfrwt beam="1">  1       21 0.14019563E-01 0.52073964E+03</pdfrwt>
<pdfrwt beam="2">  1       21 0.11445113E+00 0.52073964E+03</pdfrwt>
<totfact> 0.23332868E+04</totfact>
</mgrwt>
</event>
<event>
 8    1  0.9705063E-006  0.3669812E+03  0.7546771E-02  0.1055853E+00
         21   -1    0    0  504  503  0.00000000000E+00  0.00000000000E+00  0.15725407872E+03  0.15725407872E+03  0.00000000000E+00 0.  1.
         21   -1    0    0  503  504 -0.00000000000E+00 -0.00000000000E+00 -0.21410452145E+03  0.21410452145E+03  0.00000000000E+00 0.  1.
         25    2    1    2    0    0  0.62324972073E+02  0.31217157107E+02  0.87770090805E+02  0.16788594185E+03  0.12499275015E+03 0.  0.
         25    2    1    2    0    0 -0.62324972073E+02 -0.31217157107E+02 -0.14462053354E+03  0.20347265832E+03  0.12500844340E+03 0.  0.
          5    1    3    3  501    0  0.39966469637E+02 -0.38546612770E+02  0.30821114171E+01  0.55809940532E+02  0.47000000000E+01 0. -1.
         -5    1    3    3    0  501  0.22358502436E+02  0.69763769877E+02  0.84687979388E+02  0.11207600132E+03  0.47000000000E+01 0. -1.
          5    1    4    4  502    0 -0.91575369503E+02 -0.22148283891E+02 -0.56255257420E+02  0.10983323161E+03  0.47000000000E+01 0.  1.
         -5    1    4    4    0  502  0.29250397430E+02 -0.90688732154E+01 -0.88365276121E+02  0.93639426712E+02  0.47000000000E+01 0.  1.
<mgrwt>
<rscale>  0 0.36698125E+03</rscale>
<asrwt>0</asrwt>
<pdfrwt beam="1">  1       21 0.24192935E-01 0.36698125E+03</pdfrwt>
<pdfrwt beam="2">  1       21 0.32939157E-01 0.36698125E+03</pdfrwt>
<totfact> 0.13639218E+05</totfact>
</mgrwt>
</event>
<event>
 8    1  0.9705063E-006  0.2559079E+03  0.7546771E-02  0.1109627E+00
         21   -1    0    0  504  503  0.00000000000E+00  0.00000000000E+00  0.67321395995E+02  0.67321395995E+02  0.00000000000E+00 0. -1.
         21   -1    0    0  503  504 -0.00000000000E+00 -0.00000000000E+00 -0.24319479038E+03  0.24319479038E+03  0.00000000000E+00 0. -1.
         25    2    1    2    0    0 -0.78621273110E+01  0.26167250654E+02 -0.88117529923E+02  0.15536003099E+03  0.12500200837E+03 0.  0.
         25    2    1    2    0    0  0.78621273110E+01 -0.26167250654E+02 -0.87755864467E+02  0.15515615539E+03  0.12500321098E+03 0.  0.
          5    1    3    3  501    0 -0.10648392639E+02 -0.33576871799E+02  0.12953787592E+02  0.37824399514E+02  0.47000000000E+01 0.  1.
         -5    1    3    3    0  501  0.27862653278E+01  0.59744122453E+02 -0.10107131752E+03  0.11753563148E+03  0.47000000000E+01 0.  1.
          5    1    4    4  502    0  0.22390785726E+02  0.31850998686E+02 -0.86695529178E+02  0.95152709799E+02  0.47000000000E+01 0.  1.
         -5    1    4    4    0  502 -0.14528658415E+02 -0.58018249340E+02 -0.10603352890E+01  0.60003445590E+02  0.47000000000E+01 0.  1.
<mgrwt>
<rscale>  0 0.25590790E+03</rscale>
<asrwt>0</asrwt>
<pdfrwt beam="1">  1       21 0.10357138E-01 0.25590790E+03</pdfrwt>
<pdfrwt beam="2">  1       21 0.37414583E-01 0.25590790E+03</pdfrwt>
<totfact> 0.51902635E+05</totfact>
</mgrwt>
</event>
<event>
 8    1  0.9705063E-006  0.2639084E+03  0.7546771E-02  0.1104817E+00
         21   -1    0    0  504  503  0.00000000000E+00  0.00000000000E+00  0.13594596129E+02  0.13594596129E+02  0.00000000000E+00 0. -1.
         21   -1    0    0  503  504 -0.00000000000E+00 -0.00000000000E+00 -0.12807962860E+04  0.12807962860E+04  0.00000000000E+00 0. -1.
         25    2    1    2    0    0  0.95041747444E+00 -0.11020690716E+02 -0.43352831833E+03  0.45132501418E+03  0.12500042687E+03 0.  0.
         25    2    1    2    0    0 -0.95041747444E+00  0.11020690716E+02 -0.83367337157E+03  0.84306586797E+03  0.12500563331E+03 0.  0.
          5    1    3    3  501    0 -0.22282507305E+02  0.36139287423E+02 -0.57606402502E+02  0.71715729352E+02  0.47000000000E+01 0.  1.
         -5    1    3    3    0  501  0.23232924779E+02 -0.47159978139E+02 -0.37592191583E+03  0.37960928483E+03  0.47000000000E+01 0.  1.
          5    1    4    4  502    0  0.31752370658E+01  0.65624713710E+02 -0.33830521900E+03  0.34465808620E+03  0.47000000000E+01 0. -1.
         -5    1    4    4    0  502 -0.41256545402E+01 -0.54604022995E+02 -0.49536815257E+03  0.49840778177E+03  0.47000000000E+01 0. -1.
<mgrwt>
<rscale>  0 0.26390838E+03</rscale>
<asrwt>0</asrwt>
<pdfrwt beam="1">  1       21 0.20914764E-02 0.26390838E+03</pdfrwt>
<pdfrwt beam="2">  1       21 0.19704557E+00 0.26390838E+03</pdfrwt>
<totfact> 0.15526997E+05</totfact>
</mgrwt>
</event>
<event>
 8    1  0.9705063E-006  0.3493298E+03  0.7546771E-02  0.1062890E+00
         21   -1    0    0  504  503  0.00000000000E+00  0.00000000000E+00  0.29053770427E+03  0.29053770427E+03  0.00000000000E+00 0. -1.
         21   -1    0    0  503  504 -0.00000000000E+00 -0.00000000000E+00 -0.10500468298E+03  0.10500468298E+03  0.00000000000E+00 0. -1.
         25    2    1    2    0    0  0.15960275244E+02 -0.11384473593E+03  0.46533770057E+02  0.17608651818E+03  0.12500286334E+03 0.  0.
         25    2    1    2    0    0 -0.15960275244E+02  0.11384473593E+03  0.13899925123E+03  0.21945586907E+03  0.12499892937E+03 0.  0.
          5    1    3    3  501    0  0.46241956683E+02 -0.12468433540E+03  0.20915676894E+02  0.13469987970E+03  0.47000000000E+01 0.  1.
         -5    1    3    3    0  501 -0.30281681440E+02  0.10839599467E+02  0.25618093163E+02  0.41386638480E+02  0.47000000000E+01 0.  1.
          5    1    4    4  502    0  0.51209415114E+02  0.22141230964E+02  0.42985459909E+02  0.70586670615E+02  0.47000000000E+01 0.  1.
         -5    1    4    4    0  502 -0.67169690357E+02  0.91703504964E+02  0.96013791323E+02  0.14886919846E+03  0.47000000000E+01 0.  1.
<mgrwt>
<rscale>  0 0.34932976E+03</rscale>
<asrwt>0</asrwt>
<pdfrwt beam="1">  1       21 0.44698108E-01 0.34932976E+03</pdfrwt>
<pdfrwt beam="2">  1       21 0.16154567E-01 0.34932976E+03</pdfrwt>
<totfact> 0.15776313E+05</totfact>
</mgrwt>
</event>
<event>
 8    1  0.9705063E-006  0.2970340E+03  0.7546771E-02  0.1086733E+00
         21   -1    0    0  504  503  0.00000000000E+00  0.00000000000E+00  0.43018966214E+03  0.43018966214E+03  0.00000000000E+00 0. -1.
         21   -1    0    0  503  504 -0.00000000000E+00 -0.00000000000E+00 -0.51273442070E+02  0.51273442070E+02  0.00000000000E+00 0. -1.
         25    2    1    2    0    0 -0.56995556913E+02 -0.41453774058E+02  0.25150441000E+03  0.28956459518E+03  0.12500511047E+03 0.  0.
         25    2    1    2    0    0  0.56995556913E+02  0.41453774058E+02  0.12741181007E+03  0.19189850903E+03  0.12499743809E+03 0.  0.
          5    1    3    3  501    0  0.21109432036E+02 -0.55200287807E+02  0.72010913819E+02  0.93275621702E+02  0.47000000000E+01 0. -1.
         -5    1    3    3    0  501 -0.78104988949E+02  0.13746513749E+02  0.17949349618E+03  0.19628897348E+03  0.47000000000E+01 0. -1.
          5    1    4    4  502    0  0.60189771831E+02 -0.30739959560E+02  0.82224536790E+02  0.10653974938E+03  0.47000000000E+01 0.  1.
         -5    1    4    4    0  502 -0.31942149177E+01  0.72193733618E+02  0.45187273278E+02  0.85358759650E+02  0.47000000000E+01 0.  1.
<mgrwt>
<rscale>  0 0.29703404E+03</rscale>
<asrwt>0</asrwt>
<pdfrwt beam="1">  1       21 0.66183022E-01 0.29703404E+03</pdfrwt>
<pdfrwt beam="2">  1       21 0.78882222E-02 0.29703404E+03</pdfrwt>
<totfact> 0.25080180E+05</totfact>
</mgrwt>
</event>
<event>
 8    1  0.9705063E-006  0.2929235E+03  0.7546771E-02  0.1088833E+00
         21   -1    0    0  504  503  0.00000000000E+00  0.00000000000E+00  0.24900240583E+02  0.24900240583E+02  0.00000000000E+00 0.  1.
         21   -1    0    0  503  504 -0.00000000000E+00 -0.00000000000E+00 -0.86147963026E+03  0.86147963026E+03  0.00000000000E+00 0.  1.
         25    2    1    2    0    0 -0.62658174689E+01  0.64096240533E+02 -0.29429635818E+03  0.32616372691E+03  0.12499936718E+03 0.  0.
         25    2    1    2    0    0  0.62658174689E+01 -0.64096240533E+02 -0.54228303149E+03  0.56021614392E+03  0.12499461249E+03 0.  0.
          5    1    3    3  501    0 -0.23808113755E+01  0.39955251599E+02 -0.29824307014E+03  0.30095366634E+03  0.47000000000E+01 0. -1.
         -5    1    3    3    0  501 -0.38850060934E+01  0.24140988934E+02  0.39467119598E+01  0.25210060578E+02  0.47000000000E+01 0. -1.
          5    1    4    4  502    0 -0.52814946010E+01  0.32771917511E+01 -0.41979120988E+03  0.41986353029E+03  0.47000000000E+01 0.  1.
         -5    1    4    4    0  502  0.11547312070E+02 -0.67373432284E+02 -0.12249182161E+03  0.14035261363E+03  0.47000000000E+01 0.  1.
<mgrwt>
<rscale>  0 0.29292354E+03</rscale>
<asrwt>0</asrwt>
<pdfrwt beam="1">  1       21 0.38308069E-02 0.29292354E+03</pdfrwt>
<pdfrwt beam="2">  1       21 0.13253530E+00 0.29292354E+03</pdfrwt>
<totfact> 0.16746149E+05</totfact>
</mgrwt>
</event>
<event>
 8    1  0.9705063E-006  0.3994764E+03  0.7546771E-02  0.1043961E+00
         21   -1    0    0  504  503  0.00000000000E+00  0.00000000000E+00  0.17971627857E+03  0.17971627857E+03  0.00000000000E+00 0.  1.
         21   -1    0    0  503  504 -0.00000000000E+00 -0.00000000000E+00 -0.22199070953E+03  0.22199070953E+03  0.00000000000E+00 0.  1.
         25    2    1    2    0    0  0.15217748787E+03  0.28802302195E+02 -0.38026834342E+02  0.20262973861E+03  0.12500084165E+03 0.  0.
         25    2    1    2    0    0 -0.15217748787E+03 -0.28802302195E+02 -0.42475966263E+01  0.19907724949E+03  0.12500459496E+03 0.  0.
          5    1    3    3  501    0  0.56333047529E+02  0.44688835326E+02  0.35853702176E+02  0.80486534317E+02  0.47000000000E+01 0. -1.
         -5    1    3    3    0  501  0.95844440342E+02 -0.15886533131E+02 -0.73880536517E+02  0.12214320429E+03  0.47000000000E+01 0. -1.
          5    1    4    4  502    0  0.16389114039E+02 -0.60822473394E+01  0.20256184682E+02  0.27166151910E+02  0.47000000000E+01 0. -1.
         -5    1    4    4    0  502 -0.16856660191E+03 -0.22720054856E+02 -0.24503781309E+02  0.17191109758E+03  0.47000000000E+01 0. -1.
<mgrwt>
<rscale>  0 0.39947638E+03</rscale>
<asrwt>0</asrwt>
<pdfrwt beam="1">  1       21 0.27648658E-01 0.39947638E+03</pdfrwt>
<pdfrwt beam="2">  1       21 0.34152417E-01 0.39947638E+03</pdfrwt>
<totfact> 0.97158034E+04</totfact>
</mgrwt>
</event>
<event>
 8    1  0.9705063E-006  0.2591702E+03  0.7546771E-02  0.1107643E+00
         21   -1    0    0  504  503  0.00000000000E+00  0.00000000000E+00  0.19579456672E+03  0.19579456672E+03  0.00000000000E+00 0.  1.
         21   -1    0    0  503  504 -0.00000000000E+00 -0.00000000000E+00 -0.85764874085E+02  0.85764874085E+02  0.00000000000E+00 0.  1.
         25    2    1    2    0    0 -0.29702411890E+02  0.13954811846E+02  0.44652776459E+02  0.13672792237E+03  0.12499473695E+03 0.  0.
         25    2    1    2    0    0  0.29702411890E+02 -0.13954811846E+02  0.65376916173E+02  0.14483151843E+03  0.12500023007E+03 0.  0.
          5    1    3    3  501    0 -0.40938385120E+02  0.30643955319E+02  0.80422868146E+02  0.95419762600E+02  0.47000000000E+01 0. -1.
         -5    1    3    3    0  501  0.11235973230E+02 -0.16689143473E+02 -0.35770091687E+02  0.41308159770E+02  0.47000000000E+01 0. -1.
          5    1    4    4  502    0 -0.38717928098E+02  0.17546374889E+02  0.53403043096E+02  0.68417309505E+02  0.47000000000E+01 0.  1.
         -5    1    4    4    0  502  0.68420339988E+02 -0.31501186735E+02  0.11973873077E+02  0.76414208929E+02  0.47000000000E+01 0.  1.
<mgrwt>
<rscale>  0 0.25917019E+03</rscale>
<asrwt>0</asrwt>
<pdfrwt beam="1">  1       21 0.30122241E-01 0.25917019E+03</pdfrwt>
<pdfrwt beam="2">  1       21 0.13194596E-01 0.25917019E+03</pdfrwt>
<totfact> 0.51660399E+05</totfact>
</mgrwt>
</event>
<event>
 8    1  0.9705063E-006  0.2751390E+03  0.7546771E-02  0.1098374E+00
         21   -1    0    0  504  503  0.00000000000E+00  0.00000000000E+00  0.11588830415E+03  0.11588830415E+03  0.00000000000E+00 0. -1.
         21   -1    0    0  503  504 -0.00000000000E+00 -0.00000000000E+00 -0.16330692605E+03  0.16330692605E+03  0.00000000000E+00 0. -1.
         25    2    1    2    0    0  0.14083917091E+01 -0.57421744844E+02 -0.24700333150E+02  0.13976549241E+03  0.12500018425E+03 0.  0.
         25    2    1    2    0    0 -0.14083917091E+01  0.57421744844E+02 -0.22718288753E+02  0.13942973778E+03  0.12500116314E+03 0.  0.
          5    1    3    3  501    0 -0.20764733971E+02  0.35477771949E+02 -0.16831845288E+01  0.41409776497E+02  0.47000000000E+01 0. -1.
         -5    1    3    3    0  501  0.22173125680E+02 -0.92899516793E+02 -0.23017148621E+02  0.98355715916E+02  0.47000000000E+01 0. -1.
          5    1    4    4  502    0  0.71702861428E+01 -0.34594810926E+02  0.16066656255E+02  0.39095286028E+02  0.47000000000E+01 0. -1.
         -5    1    4    4    0  502 -0.85786778520E+01  0.92016555769E+02 -0.38784945008E+02  0.10033445175E+03  0.47000000000E+01 0. -1.
<mgrwt>
<rscale>  0 0.27513897E+03</rscale>
<asrwt>0</asrwt>
<pdfrwt beam="1">  1       21 0.17828970E-01 0.27513897E+03</pdfrwt>
<pdfrwt beam="2">  1       21 0.25124142E-01 0.27513897E+03</pdfrwt>
<totfact> 0.42156991E+05</totfact>
</mgrwt>
</event>
<event>
 8    1  0.9705063E-006  0.3512230E+03  0.7546771E-02  0.1062114E+00
         21   -1    0    0  504  503  0.00000000000E+00  0.00000000000E+00  0.10016805002E+03  0.10016805002E+03  0.00000000000E+00 0.  1.
         21   -1    0    0  503  504 -0.00000000000E+00 -0.00000000000E+00 -0.30787653724E+03  0.30787653724E+03  0.00000000000E+00 0.  1.
         25    2    1    2    0    0  0.56262475961E+02  0.67972477192E+02 -0.20397106075E+03  0.25499204009E+03  0.12502408979E+03 0.  0.
         25    2    1    2    0    0 -0.56262475961E+02 -0.67972477192E+02 -0.37374264674E+01  0.15305254716E+03  0.12500155990E+03 0.  0.
          5    1    3    3  501    0  0.28634451193E+02  0.65682704801E+02 -0.21354009929E+03  0.22529006527E+03  0.47000000000E+01 0.  1.
         -5    1    3    3    0  501  0.27628024768E+02  0.22897723907E+01  0.95690385304E+01  0.29701974826E+02  0.47000000000E+01 0.  1.
          5    1    4    4  502    0 -0.47397860516E+02  0.22245348550E+02  0.24486195909E+02  0.57992038279E+02  0.47000000000E+01 0. -1.
         -5    1    4    4    0  502 -0.88646154451E+01 -0.90217825742E+02 -0.28223622377E+02  0.95060508881E+02  0.47000000000E+01 0. -1.
<mgrwt>
<rscale>  0 0.35122296E+03</rscale>
<asrwt>0</asrwt>
<pdfrwt beam="1">  1       21 0.15410470E-01 0.35122296E+03</pdfrwt>
<pdfrwt beam="2">  1       21 0.47365620E-01 0.35122296E+03</pdfrwt>
<totfact> 0.15246645E+05</totfact>
</mgrwt>
</event>
<event>
 8    1  0.9705063E-006  0.2871621E+03  0.7546771E-02  0.1091840E+00
         21   -1    0    0  504  503  0.00000000000E+00  0.00000000000E+00  0.45384236641E+02  0.45384236641E+02  0.00000000000E+00 0. -1.
         21   -1    0    0  503  504 -0.00000000000E+00 -0.00000000000E+00 -0.45424413339E+03  0.45424413339E+03  0.00000000000E+00 0. -1.
         25    2    1    2    0    0  0.12603800023E+02  0.29414601399E+02 -0.31391925763E+03  0.33943156904E+03  0.12507763670E+03 0.  0.
         25    2    1    2    0    0 -0.12603800023E+02 -0.29414601399E+02 -0.94940639114E+02  0.16019680098E+03  0.12500086215E+03 0.  0.
          5    1    3    3  501    0 -0.29270248524E+01 -0.45949038775E+02 -0.16974060401E+03  0.17593704638E+03  0.47000000000E+01 0.  1.
         -5    1    3    3    0  501  0.15530824875E+02  0.75363640174E+02 -0.14417865362E+03  0.16349452266E+03  0.47000000000E+01 0.  1.
          5    1    4    4  502    0  0.39472693972E+02  0.28468145684E+02 -0.51075636072E+02  0.70706007441E+02  0.47000000000E+01 0.  1.
         -5    1    4    4    0  502 -0.52076493995E+02 -0.57882747083E+02 -0.43865003042E+02  0.89490793541E+02  0.47000000000E+01 0.  1.
<mgrwt>
<rscale>  0 0.28716214E+03</rscale>
<asrwt>0</asrwt>
<pdfrwt beam="1">  1       21 0.69821903E-02 0.28716214E+03</pdfrwt>
<pdfrwt beam="2">  1       21 0.69883712E-01 0.28716214E+03</pdfrwt>
<totfact> 0.27576979E+05</totfact>
</mgrwt>
</event>
<event>
 8    1  0.9705063E-006  0.3949404E+03  0.7546771E-02  0.1045546E+00
         21   -1    0    0  504  503  0.00000000000E+00  0.00000000000E+00  0.19421022051E+03  0.19421022051E+03  0.00000000000E+00 0.  1.
         21   -1    0    0  503  504 -0.00000000000E+00 -0.00000000000E+00 -0.20078486545E+03  0.20078486545E+03  0.00000000000E+00 0.  1.
         25    2    1    2    0    0  0.46079022037E+02  0.68719648490E+02  0.12527861667E+03  0.19535999382E+03  0.12500051613E+03 0.  0.
         25    2    1    2    0    0 -0.46079022037E+02 -0.68719648490E+02 -0.13185326161E+03  0.19963509215E+03  0.12499288403E+03 0.  0.
          5    1    3    3  501    0  0.36093960695E+01  0.51294121716E+02 -0.98526475765E+01  0.52566903341E+02  0.47000000000E+01 0. -1.
         -5    1    3    3    0  501  0.42469625967E+02  0.17425526775E+02  0.13513126424E+03  0.14279309048E+03  0.47000000000E+01 0. -1.
          5    1    4    4  502    0  0.23423093200E+01 -0.92701889402E+02 -0.64013340302E+02  0.11277820910E+03  0.47000000000E+01 0.  1.
         -5    1    4    4    0  502 -0.48421331357E+02  0.23982240911E+02 -0.67839921306E+02  0.86856883045E+02  0.47000000000E+01 0.  1.
<mgrwt>
<rscale>  0 0.39494037E+03</rscale>
<asrwt>0</asrwt>
<pdfrwt beam="1">  1       21 0.29878496E-01 0.39494037E+03</pdfrwt>
<pdfrwt beam="2">  1       21 0.30889979E-01 0.39494037E+03</pdfrwt>
<totfact> 0.10201822E+05</totfact>
</mgrwt>
</event>
<event>
 8    1  0.9705063E-006  0.3141007E+03  0.7546771E-02  0.1078397E+00
         21   -1    0    0  504  503  0.00000000000E+00  0.00000000000E+00  0.27113851784E+03  0.27113851784E+03  0.00000000000E+00 0.  1.
         21   -1    0    0  503  504 -0.00000000000E+00 -0.00000000000E+00 -0.90967578142E+02  0.90967578142E+02  0.00000000000E+00 0.  1.
         25    2    1    2    0    0  0.29084908269E+01  0.45844344849E+02  0.18603381485E+03  0.22878810574E+03  0.12500101516E+03 0.  0.
         25    2    1    2    0    0 -0.29084908269E+01 -0.45844344849E+02 -0.58628751456E+01  0.13331799024E+03  0.12501659867E+03 0.  0.
          5    1    3    3  501    0  0.44691245023E+02  0.68119765306E+01  0.15899678963E+03  0.16536559352E+03  0.47000000000E+01 0.  1.
         -5    1    3    3    0  501 -0.41782754196E+02  0.39032368318E+02  0.27037025214E+02  0.63422512227E+02  0.47000000000E+01 0.  1.
          5    1    4    4  502    0 -0.57306991138E+01  0.17434208721E+02 -0.51653066084E+02  0.55017467971E+02  0.47000000000E+01 0. -1.
         -5    1    4    4    0  502  0.28222082869E+01 -0.63278553570E+02  0.45790190938E+02  0.78300522270E+02  0.47000000000E+01 0. -1.
<mgrwt>
<rscale>  0 0.31410071E+03</rscale>
<asrwt>0</asrwt>
<pdfrwt beam="1">  1       21 0.41713618E-01 0.31410071E+03</pdfrwt>
<pdfrwt beam="2">  1       21 0.13995012E-01 0.31410071E+03</pdfrwt>
<totfact> 0.23885884E+05</totfact>
</mgrwt>
</event>
<event>
 8    1  0.9705063E-006  0.3417638E+03  0.7546771E-02  0.1066047E+00
         21   -1    0    0  504  503  0.00000000000E+00  0.00000000000E+00  0.49871423591E+03  0.49871423591E+03  0.00000000000E+00 0.  1.
         21   -1    0    0  503  504 -0.00000000000E+00 -0.00000000000E+00 -0.58551816532E+02  0.58551816532E+02  0.00000000000E+00 0.  1.
         25    2    1    2    0    0 -0.22876519029E+02 -0.62234433198E+02  0.63859512618E+02  0.15523854013E+03  0.12499802875E+03 0.  0.
         25    2    1    2    0    0  0.22876519029E+02  0.62234433198E+02  0.37630290676E+03  0.40202751231E+03  0.12500313285E+03 0.  0.
          5    1    3    3  501    0  0.11427386091E+01 -0.32566471857E+02 -0.35666735095E+02  0.48539539893E+02  0.47000000000E+01 0. -1.
         -5    1    3    3    0  501 -0.24019257638E+02 -0.29667961341E+02  0.99526247712E+02  0.10669900024E+03  0.47000000000E+01 0. -1.
          5    1    4    4  502    0  0.56377811757E+02  0.77165493176E+02  0.19770041655E+03  0.21963723660E+03  0.47000000000E+01 0.  1.
         -5    1    4    4    0  502 -0.33501292728E+02 -0.14931059978E+02  0.17860249021E+03  0.18239027571E+03  0.47000000000E+01 0.  1.
<mgrwt>
<rscale>  0 0.34176380E+03</rscale>
<asrwt>0</asrwt>
<pdfrwt beam="1">  1       21 0.76725264E-01 0.34176380E+03</pdfrwt>
<pdfrwt beam="2">  1       21 0.90079721E-02 0.34176380E+03</pdfrwt>
<totfact> 0.14103504E+05</totfact>
</mgrwt>
</event>
<event>
 8    1  0.9705063E-006  0.2855178E+03  0.7546771E-02  0.1092713E+00
         21   -1    0    0  504  503  0.00000000000E+00  0.00000000000E+00  0.50783894614E+03  0.50783894614E+03  0.00000000000E+00 0.  1.
         21   -1    0    0  503  504 -0.00000000000E+00 -0.00000000000E+00 -0.40131030180E+02  0.40131030180E+02  0.00000000000E+00 0.  1.
         25    2    1    2    0    0  0.30491920480E+01 -0.33025855678E+02  0.34989142262E+03  0.37302846150E+03  0.12500488289E+03 0.  0.
         25    2    1    2    0    0 -0.30491920480E+01  0.33025855678E+02  0.11781649334E+03  0.17494151483E+03  0.12499521108E+03 0.  0.
          5    1    3    3  501    0 -0.43437768614E+02  0.19003573291E+02  0.71009230064E+02  0.85512433565E+02  0.47000000000E+01 0.  1.
         -5    1    3    3    0  501  0.46486960662E+02 -0.52029428970E+02  0.27888219256E+03  0.28751602793E+03  0.47000000000E+01 0.  1.
          5    1    4    4  502    0 -0.35531279147E+02 -0.34945920947E+02  0.68256057833E+02  0.84644365551E+02  0.47000000000E+01 0.  1.
         -5    1    4    4    0  502  0.32482087099E+02  0.67971776625E+02  0.49560435508E+02  0.90297149277E+02  0.47000000000E+01 0.  1.
<mgrwt>
<rscale>  0 0.28551778E+03</rscale>
<asrwt>0</asrwt>
<pdfrwt beam="1">  1       21 0.78129064E-01 0.28551778E+03</pdfrwt>
<pdfrwt beam="2">  1       21 0.61740050E-02 0.28551778E+03</pdfrwt>
<totfact> 0.26574465E+05</totfact>
</mgrwt>
</event>
<event>
 8    1  0.9705063E-006  0.3006534E+03  0.7546771E-02  0.1084914E+00
         21   -1    0    0  504  503  0.00000000000E+00  0.00000000000E+00  0.36848454021E+03  0.36848454021E+03  0.00000000000E+00 0. -1.
         21   -1    0    0  503  504 -0.00000000000E+00 -0.00000000000E+00 -0.61327171062E+02  0.61327171062E+02  0.00000000000E+00 0. -1.
         25    2    1    2    0    0 -0.75899083833E+02  0.61245261785E+01  0.10456051426E+03  0.17987319928E+03  0.12499314353E+03 0.  0.
         25    2    1    2    0    0  0.75899083833E+02 -0.61245261785E+01  0.20259685488E+03  0.24993851199E+03  0.12500237365E+03 0.  0.
          5    1    3    3  501    0 -0.82962138407E+02  0.52160655268E+01  0.12925322950E+03  0.15374788156E+03  0.47000000000E+01 0. -1.
         -5    1    3    3    0  501  0.70630545735E+01  0.90846065173E+00 -0.24692715233E+02  0.26125317725E+02  0.47000000000E+01 0. -1.
          5    1    4    4  502    0  0.11023311123E+03 -0.10916176132E+02  0.16257146891E+03  0.19677925250E+03  0.47000000000E+01 0.  1.
         -5    1    4    4    0  502 -0.34334027396E+02  0.47916499537E+01  0.40025385977E+02  0.53159259486E+02  0.47000000000E+01 0.  1.
<mgrwt>
<rscale>  0 0.30065338E+03</rscale>
<asrwt>0</asrwt>
<pdfrwt beam="1">  1       21 0.56689928E-01 0.30065338E+03</pdfrwt>
<pdfrwt beam="2">  1       21 0.94349496E-02 0.30065338E+03</pdfrwt>
<totfact> 0.25594323E+05</totfact>
</mgrwt>
</event>
<event>
 8    1  0.9705063E-006  0.3210474E+03  0.7546771E-02  0.1075168E+00
         21   -1    0    0  504  503  0.00000000000E+00  0.00000000000E+00  0.30707969552E+02  0.30707969552E+02  0.00000000000E+00 0.  1.
         21   -1    0    0  503  504 -0.00000000000E+00 -0.00000000000E+00 -0.83912623372E+03  0.83912623372E+03  0.00000000000E+00 0.  1.
         25    2    1    2    0    0 -0.60583682613E+02 -0.58244869969E+02 -0.55453111830E+03  0.57462509710E+03  0.12500557419E+03 0.  0.
         25    2    1    2    0    0  0.60583682613E+02  0.58244869969E+02 -0.25388714587E+03  0.29520910617E+03  0.12500754398E+03 0.  0.
          5    1    3    3  501    0 -0.89394221806E+02 -0.25579462294E+02 -0.47294342471E+03  0.48201992569E+03  0.47000000000E+01 0.  1.
         -5    1    3    3    0  501  0.28810539193E+02 -0.32665407675E+02 -0.81587693591E+02  0.92605171414E+02  0.47000000000E+01 0.  1.
          5    1    4    4  502    0  0.51523078289E+02  0.91982488464E+02 -0.22873571651E+03  0.25190776842E+03  0.47000000000E+01 0.  1.
         -5    1    4    4    0  502  0.90606043246E+01 -0.33737618495E+02 -0.25151429351E+02  0.43301337749E+02  0.47000000000E+01 0.  1.
<mgrwt>
<rscale>  0 0.32104743E+03</rscale>
<asrwt>0</asrwt>
<pdfrwt beam="1">  1       21 0.47243031E-02 0.32104743E+03</pdfrwt>
<pdfrwt beam="2">  1       21 0.12909634E+00 0.32104743E+03</pdfrwt>
<totfact> 0.12448151E+05</totfact>
</mgrwt>
</event>
<event>
 8    1  0.9705063E-006  0.3516210E+03  0.7546771E-02  0.1061952E+00
         21   -1    0    0  504  503  0.00000000000E+00  0.00000000000E+00  0.76201671664E+03  0.76201671664E+03  0.00000000000E+00 0.  1.
         21   -1    0    0  503  504 -0.00000000000E+00 -0.00000000000E+00 -0.40562530199E+02  0.40562530199E+02  0.00000000000E+00 0.  1.
         25    2    1    2    0    0 -0.78082723188E+02  0.79012245731E+02  0.23687287354E+03  0.28995469061E+03  0.12500047099E+03 0.  0.
         25    2    1    2    0    0  0.78082723188E+02 -0.79012245731E+02  0.48458131290E+03  0.51262455623E+03  0.12500016084E+03 0.  0.
          5    1    3    3  501    0  0.10268058864E+02 -0.94037073891E+01 -0.66938243431E+01  0.16148065823E+02  0.47000000000E+01 0. -1.
         -5    1    3    3    0  501 -0.88350782052E+02  0.88415953120E+02  0.24356669789E+03  0.27380662478E+03  0.47000000000E+01 0. -1.
          5    1    4    4  502    0 -0.13445849415E+01 -0.22148680493E+02  0.32269526554E+03  0.32349141621E+03  0.47000000000E+01 0.  1.
         -5    1    4    4    0  502  0.79427308129E+02 -0.56863565238E+02  0.16188604735E+03  0.18913314003E+03  0.47000000000E+01 0.  1.
<mgrwt>
<rscale>  0 0.35162097E+03</rscale>
<asrwt>0</asrwt>
<pdfrwt beam="1">  1       21 0.11723333E+00 0.35162097E+03</pdfrwt>
<pdfrwt beam="2">  1       21 0.62403898E-02 0.35162097E+03</pdfrwt>
<totfact> 0.97597230E+04</totfact>
</mgrwt>
</event>
<event>
 8    1  0.9705063E-006  0.2595291E+03  0.7546771E-02  0.1107427E+00
         21   -1    0    0  504  503  0.00000000000E+00  0.00000000000E+00  0.57730883879E+01  0.57730883879E+01  0.00000000000E+00 0. -1.
         21   -1    0    0  503  504 -0.00000000000E+00 -0.00000000000E+00 -0.29167805857E+04  0.29167805857E+04  0.00000000000E+00 0. -1.
         25    2    1    2    0    0 -0.73728047320E+01 -0.29996051362E+02 -0.16369565618E+04  0.16420127833E+04  0.12500029568E+03 0.  0.
         25    2    1    2    0    0  0.73728047320E+01  0.29996051362E+02 -0.12740509355E+04  0.12805408908E+04  0.12500026152E+03 0.  0.
          5    1    3    3  501    0 -0.26836210149E+02  0.43062537624E+02 -0.80656671971E+03  0.80817481257E+03  0.47000000000E+01 0.  1.
         -5    1    3    3    0  501  0.19463405417E+02 -0.73058588987E+02 -0.83038984207E+03  0.83383797071E+03  0.47000000000E+01 0.  1.
          5    1    4    4  502    0 -0.50802407805E+01 -0.41401517659E+02 -0.78553094412E+03  0.78665166922E+03  0.47000000000E+01 0. -1.
         -5    1    4    4    0  502  0.12453045512E+02  0.71397569022E+02 -0.48851999139E+03  0.49388922158E+03  0.47000000000E+01 0. -1.
<mgrwt>
<rscale>  0 0.25952905E+03</rscale>
<asrwt>0</asrwt>
<pdfrwt beam="1">  1       21 0.88816786E-03 0.25952905E+03</pdfrwt>
<pdfrwt beam="2">  1       21 0.44873526E+00 0.25952905E+03</pdfrwt>
<totfact> 0.17854525E+04</totfact>
</mgrwt>
</event>
<event>
 8    1  0.9705063E-006  0.4045372E+03  0.7546771E-02  0.1042220E+00
         21   -1    0    0  504  503  0.00000000000E+00  0.00000000000E+00  0.29803202901E+03  0.29803202901E+03  0.00000000000E+00 0. -1.
         21   -1    0    0  503  504 -0.00000000000E+00 -0.00000000000E+00 -0.13727583300E+03  0.13727583300E+03  0.00000000000E+00 0. -1.
         25    2    1    2    0    0  0.10848042934E+03  0.41019641876E+02  0.19745715463E+03  0.26088271557E+03  0.12497939350E+03 0.  0.
         25    2    1    2    0    0 -0.10848042934E+03 -0.41019641876E+02 -0.36700958622E+02  0.17442514644E+03  0.12500622695E+03 0.  0.
          5    1    3    3  501    0  0.12504579004E+03  0.53769371160E+00  0.13080401080E+03  0.18102076666E+03  0.47000000000E+01 0.  1.
         -5    1    3    3    0  501 -0.16565360693E+02  0.40481948165E+02  0.66653143830E+02  0.79861948915E+02  0.47000000000E+01 0.  1.
          5    1    4    4  502    0  0.70831779454E+01  0.73572398736E+01 -0.47291784819E+02  0.48609703761E+02  0.47000000000E+01 0.  1.
         -5    1    4    4    0  502 -0.11556360729E+03 -0.48376881750E+02  0.10590826197E+02  0.12581544268E+03  0.47000000000E+01 0.  1.
<mgrwt>
<rscale>  0 0.40453724E+03</rscale>
<asrwt>0</asrwt>
<pdfrwt beam="1">  1       21 0.45851081E-01 0.40453724E+03</pdfrwt>
<pdfrwt beam="2">  1       21 0.21119359E-01 0.40453724E+03</pdfrwt>
<totfact> 0.89289947E+04</totfact>
</mgrwt>
</event>
<event>
 8    1  0.9705063E-006  0.2888474E+03  0.7546771E-02  0.1090952E+00
         21   -1    0    0  504  503  0.00000000000E+00  0.00000000000E+00  0.87427017787E+02  0.87427017787E+02  0.00000000000E+00 0.  1.
         21   -1    0    0  503  504 -0.00000000000E+00 -0.00000000000E+00 -0.23857848408E+03  0.23857848408E+03  0.00000000000E+00 0.  1.
         25    2    1    2    0    0 -0.61685696175E+02 -0.57219595487E+01 -0.11774977366E+03  0.18255076441E+03  0.12498762521E+03 0.  0.
         25    2    1    2    0    0  0.61685696175E+02  0.57219595487E+01 -0.33401692635E+02  0.14345473746E+03  0.12500289075E+03 0.  0.
          5    1    3    3  501    0 -0.57844715098E+02 -0.41732032825E+02 -0.14371764924E+02  0.72912353243E+02  0.47000000000E+01 0. -1.
         -5    1    3    3    0  501 -0.38409810771E+01  0.36010073277E+02 -0.10337800874E+03  0.10963841117E+03  0.47000000000E+01 0. -1.
          5    1    4    4  502    0  0.51845271062E+02 -0.26008403203E+02 -0.71827163962E+02  0.92442418031E+02  0.47000000000E+01 0. -1.
         -5    1    4    4    0  502  0.98404251133E+01  0.31730362752E+02  0.38425471327E+02  0.51012319428E+02  0.47000000000E+01 0. -1.
<mgrwt>
<rscale>  0 0.28884740E+03</rscale>
<asrwt>0</asrwt>
<pdfrwt beam="1">  1       21 0.13450311E-01 0.28884740E+03</pdfrwt>
<pdfrwt beam="2">  1       21 0.36704381E-01 0.28884740E+03</pdfrwt>
<totfact> 0.33488979E+05</totfact>
</mgrwt>
</event>
<event>
 8    1  0.9705063E-006  0.3929284E+03  0.7546771E-02  0.1046256E+00
         21   -1    0    0  504  503  0.00000000000E+00  0.00000000000E+00  0.58880195942E+03  0.58880195942E+03  0.00000000000E+00 0.  1.
         21   -1    0    0  503  504 -0.00000000000E+00 -0.00000000000E+00 -0.65553748335E+02  0.65553748335E+02  0.00000000000E+00 0.  1.
         25    2    1    2    0    0  0.20365444702E+02  0.12220700473E+03  0.40702741046E+03  0.44344725417E+03  0.12499940411E+03 0.  0.
         25    2    1    2    0    0 -0.20365444702E+02 -0.12220700473E+03  0.11622080063E+03  0.21090845358E+03  0.12500319177E+03 0.  0.
          5    1    3    3  501    0  0.59099411695E+02  0.51525301854E+02  0.29551767296E+03  0.30577832203E+03  0.47000000000E+01 0. -1.
         -5    1    3    3    0  501 -0.38733966993E+02  0.70681702871E+02  0.11150973750E+03  0.13766893215E+03  0.47000000000E+01 0. -1.
          5    1    4    4  502    0  0.34633707133E+02 -0.73281698978E+00  0.52429280134E+02  0.63015475130E+02  0.47000000000E+01 0.  1.
         -5    1    4    4    0  502 -0.54999151835E+02 -0.12147418774E+03  0.63791520493E+02  0.14789297845E+03  0.47000000000E+01 0.  1.
<mgrwt>
<rscale>  0 0.39292837E+03</rscale>
<asrwt>0</asrwt>
<pdfrwt beam="1">  1       21 0.90584913E-01 0.39292837E+03</pdfrwt>
<pdfrwt beam="2">  1       21 0.10085192E-01 0.39292837E+03</pdfrwt>
<totfact> 0.77503653E+04</totfact>
</mgrwt>
</event>
<event>
 8    1  0.9705063E-006  0.3945049E+03  0.7546771E-02  0.1045699E+00
         21   -1    0    0  504  503  0.00000000000E+00  0.00000000000E+00  0.44004763419E+03  0.44004763419E+03  0.00000000000E+00 0. -1.
         21   -1    0    0  503  504 -0.00000000000E+00 -0.00000000000E+00 -0.88418897274E+02  0.88418897274E+02  0.00000000000E+00 0. -1.
         25    2    1    2    0    0 -0.41113497434E+02 -0.10719397863E+03  0.31046563828E+03  0.35383016655E+03  0.12500402186E+03 0.  0.
         25    2    1    2    0    0  0.41113497434E+02  0.10719397863E+03  0.41163098635E+02  0.17463636491E+03  0.12499036177E+03 0.  0.
          5    1    3    3  501    0  0.34406982150E+02 -0.62626029717E+02  0.20172354314E+03  0.21405685664E+03  0.47000000000E+01 0. -1.
         -5    1    3    3    0  501 -0.75520479584E+02 -0.44567948910E+02  0.10874209514E+03  0.13977330991E+03  0.47000000000E+01 0. -1.
          5    1    4    4  502    0  0.11014573119E+02  0.11306795295E+03  0.68961818192E+02  0.13297934116E+03  0.47000000000E+01 0. -1.
         -5    1    4    4    0  502  0.30098924315E+02 -0.58739743260E+01 -0.27798719557E+02  0.41657023757E+02  0.47000000000E+01 0. -1.
<mgrwt>
<rscale>  0 0.39450489E+03</rscale>
<asrwt>0</asrwt>
<pdfrwt beam="1">  1       21 0.67699635E-01 0.39450489E+03</pdfrwt>
<pdfrwt beam="2">  1       21 0.13602908E-01 0.39450489E+03</pdfrwt>
<totfact> 0.87814354E+04</totfact>
</mgrwt>
</event>
<event>
 8    1  0.9705063E-006  0.2811075E+03  0.7546771E-02  0.1095086E+00
         21   -1    0    0  504  503  0.00000000000E+00  0.00000000000E+00  0.29826979803E+03  0.29826979803E+03  0.00000000000E+00 0. -1.
         21   -1    0    0  503  504 -0.00000000000E+00 -0.00000000000E+00 -0.66233180849E+02  0.66233180849E+02  0.00000000000E+00 0. -1.
         25    2    1    2    0    0 -0.37316772832E+02 -0.25171783120E+02  0.56512572548E+02  0.14437125235E+03  0.12499290960E+03 0.  0.
         25    2    1    2    0    0  0.37316772832E+02  0.25171783120E+02  0.17552404463E+03  0.22013172652E+03  0.12499250609E+03 0.  0.
          5    1    3    3  501    0 -0.61425097069E+02  0.32440314774E+02  0.36566065806E+02  0.78642124470E+02  0.47000000000E+01 0. -1.
         -5    1    3    3    0  501  0.24108324237E+02 -0.57612097894E+02  0.19946506742E+02  0.65729127885E+02  0.47000000000E+01 0. -1.
          5    1    4    4  502    0  0.28179322959E+02  0.35609632442E+02  0.16928204487E+01  0.45684524800E+02  0.47000000000E+01 0.  1.
         -5    1    4    4    0  502  0.91374498725E+01 -0.10437849322E+02  0.17383122418E+03  0.17444720172E+03  0.47000000000E+01 0.  1.
<mgrwt>
<rscale>  0 0.28110751E+03</rscale>
<asrwt>0</asrwt>
<pdfrwt beam="1">  1       21 0.45887661E-01 0.28110751E+03</pdfrwt>
<pdfrwt beam="2">  1       21 0.10189720E-01 0.28110751E+03</pdfrwt>
<totfact> 0.35022500E+05</totfact>
</mgrwt>
</event>
<event>
 8    1  0.9705063E-006  0.2674914E+03  0.7546771E-02  0.1102724E+00
         21   -1    0    0  504  503  0.00000000000E+00  0.00000000000E+00  0.98232055058E+02  0.98232055058E+02  0.00000000000E+00 0.  1.
         21   -1    0    0  503  504 -0.00000000000E+00 -0.00000000000E+00 -0.18209857654E+03  0.18209857654E+03  0.00000000000E+00 0.  1.
         25    2    1    2    0    0  0.31913689422E+01  0.38760864706E+02 -0.70643777204E+02  0.14875559980E+03  0.12500038298E+03 0.  0.
         25    2    1    2    0    0 -0.31913689422E+01 -0.38760864706E+02 -0.13222744277E+02  0.13157503179E+03  0.12499823422E+03 0.  0.
          5    1    3    3  501    0  0.38257914359E+01  0.27563505643E+02  0.33557465140E+02  0.43847200482E+02  0.47000000000E+01 0.  1.
         -5    1    3    3    0  501 -0.63442249375E+00  0.11197359064E+02 -0.10420124234E+03  0.10490839932E+03  0.47000000000E+01 0.  1.
          5    1    4    4  502    0  0.42559451768E+02 -0.40151751167E+02  0.32173279969E+02  0.66937881655E+02  0.47000000000E+01 0. -1.
         -5    1    4    4    0  502 -0.45750820710E+02  0.13908864608E+01 -0.45396024246E+02  0.64637150139E+02  0.47000000000E+01 0. -1.
<mgrwt>
<rscale>  0 0.26749144E+03</rscale>
<asrwt>0</asrwt>
<pdfrwt beam="1">  1       21 0.15112624E-01 0.26749144E+03</pdfrwt>
<pdfrwt beam="2">  1       21 0.28015165E-01 0.26749144E+03</pdfrwt>
<totfact> 0.46404149E+05</totfact>
</mgrwt>
</event>
<event>
 8    1  0.9705063E-006  0.3161629E+03  0.7546771E-02  0.1077429E+00
         21   -1    0    0  504  503  0.00000000000E+00  0.00000000000E+00  0.40743547275E+03  0.40743547275E+03  0.00000000000E+00 0.  1.
         21   -1    0    0  503  504 -0.00000000000E+00 -0.00000000000E+00 -0.61334232160E+02  0.61334232160E+02  0.00000000000E+00 0.  1.
         25    2    1    2    0    0  0.60914354283E+02  0.72835867668E+02  0.14533980038E+03  0.21392521900E+03  0.12499887828E+03 0.  0.
         25    2    1    2    0    0 -0.60914354283E+02 -0.72835867668E+02  0.20076144022E+03  0.25484448592E+03  0.12499973579E+03 0.  0.
          5    1    3    3  501    0 -0.33942278734E+02  0.33886115906E+02  0.20679944731E+02  0.52441369651E+02  0.47000000000E+01 0.  1.
         -5    1    3    3    0  501  0.94856633017E+02  0.38949751762E+02  0.12465985565E+03  0.16148384935E+03  0.47000000000E+01 0.  1.
          5    1    4    4  502    0 -0.68759815478E+02 -0.10300157078E+01  0.42925290151E+02  0.81201254248E+02  0.47000000000E+01 0. -1.
         -5    1    4    4    0  502  0.78454611951E+01 -0.71805851960E+02  0.15783615007E+03  0.17364323167E+03  0.47000000000E+01 0. -1.
<mgrwt>
<rscale>  0 0.31616288E+03</rscale>
<asrwt>0</asrwt>
<pdfrwt beam="1">  1       21 0.62682378E-01 0.31616288E+03</pdfrwt>
<pdfrwt beam="2">  1       21 0.94360360E-02 0.31616288E+03</pdfrwt>
<totfact> 0.20507384E+05</totfact>
</mgrwt>
</event>
<event>
 8    1  0.9705063E-006  0.3457537E+03  0.7546771E-02  0.1064372E+00
         21   -1    0    0  504  503  0.00000000000E+00  0.00000000000E+00  0.50699698665E+02  0.50699698665E+02  0.00000000000E+00 0.  1.
         21   -1    0    0  503  504 -0.00000000000E+00 -0.00000000000E+00 -0.58947879031E+03  0.58947879031E+03  0.00000000000E+00 0.  1.
         25    2    1    2    0    0 -0.11653633563E+03  0.85753589942E+01 -0.22363769646E+03  0.28159020870E+03  0.12499988821E+03 0.  0.
         25    2    1    2    0    0  0.11653633563E+03 -0.85753589942E+01 -0.31514139518E+03  0.35858828028E+03  0.12496880207E+03 0.  0.
          5    1    3    3  501    0 -0.55036788840E+02 -0.31624207909E+02 -0.22677437428E+02  0.67568445446E+02  0.47000000000E+01 0.  1.
         -5    1    3    3    0  501 -0.61499546785E+02  0.40199566903E+02 -0.20096025903E+03  0.21402176325E+03  0.47000000000E+01 0.  1.
          5    1    4    4  502    0  0.77055174063E+02 -0.36616501538E+02 -0.29287121093E+03  0.30508016033E+03  0.47000000000E+01 0.  1.
         -5    1    4    4    0  502  0.39481161562E+02  0.28041142544E+02 -0.22270184247E+02  0.53508119943E+02  0.47000000000E+01 0.  1.
<mgrwt>
<rscale>  0 0.34575365E+03</rscale>
<asrwt>0</asrwt>
<pdfrwt beam="1">  1       21 0.77999540E-02 0.34575365E+03</pdfrwt>
<pdfrwt beam="2">  1       21 0.90689041E-01 0.34575365E+03</pdfrwt>
<totfact> 0.12341393E+05</totfact>
</mgrwt>
</event>
<event>
 8    1  0.9705063E-006  0.4680483E+03  0.7546771E-02  0.1022473E+00
         21   -1    0    0  504  503  0.00000000000E+00  0.00000000000E+00  0.44105813643E+02  0.44105813643E+02  0.00000000000E+00 0. -1.
         21   -1    0    0  503  504 -0.00000000000E+00 -0.00000000000E+00 -0.12417252226E+04  0.12417252226E+04  0.00000000000E+00 0. -1.
         25    2    1    2    0    0 -0.12559184844E+03 -0.11249345455E+03 -0.31441715392E+03  0.37803659329E+03  0.12500171790E+03 0.  0.
         25    2    1    2    0    0  0.12559184844E+03  0.11249345455E+03 -0.88320225505E+03  0.90779444296E+03  0.12496574590E+03 0.  0.
          5    1    3    3  501    0 -0.42955803473E+02  0.79704537073E+01 -0.15784452039E+03  0.16384661059E+03  0.47000000000E+01 0. -1.
         -5    1    3    3    0  501 -0.82636044963E+02 -0.12046390825E+03 -0.15657263353E+03  0.21418998270E+03  0.47000000000E+01 0. -1.
          5    1    4    4  502    0 -0.22562630869E+02  0.35492733590E+02 -0.15430333912E+03  0.16000130285E+03  0.47000000000E+01 0. -1.
         -5    1    4    4    0  502  0.14815447930E+03  0.77000720955E+02 -0.72889891592E+03  0.74779314011E+03  0.47000000000E+01 0. -1.
<mgrwt>
<rscale>  0 0.46804829E+03</rscale>
<asrwt>0</asrwt>
<pdfrwt beam="1">  1       21 0.67855090E-02 0.46804829E+03</pdfrwt>
<pdfrwt beam="2">  1       21 0.19103467E+00 0.46804829E+03</pdfrwt>
<totfact> 0.21581252E+04</totfact>
</mgrwt>
</event>
<event>
 8    1  0.9705063E-006  0.2902669E+03  0.7546771E-02  0.1090210E+00
         21   -1    0    0  504  503  0.00000000000E+00  0.00000000000E+00  0.56990507057E+02  0.56990507057E+02  0.00000000000E+00 0. -1.
         21   -1    0    0  503  504 -0.00000000000E+00 -0.00000000000E+00 -0.36960056006E+03  0.36960056006E+03  0.00000000000E+00 0. -1.
         25    2    1    2    0    0  0.64035623846E+02  0.97051492679E+01 -0.10446795691E+03  0.17530854273E+03  0.12499912036E+03 0.  0.
         25    2    1    2    0    0 -0.64035623846E+02 -0.97051492679E+01 -0.20814209609E+03  0.25128252438E+03  0.12500009541E+03 0.  0.
          5    1    3    3  501    0  0.38803229112E+02 -0.34676551305E+02  0.69008720299E+01  0.52705463044E+02  0.47000000000E+01 0.  1.
         -5    1    3    3    0  501  0.25232394734E+02  0.44381700573E+02 -0.11136882894E+03  0.12260307969E+03  0.47000000000E+01 0.  1.
          5    1    4    4  502    0 -0.47485202445E+02  0.46744648102E+02 -0.52918738116E+02  0.85219653961E+02  0.47000000000E+01 0.  1.
         -5    1    4    4    0  502 -0.16550421401E+02 -0.56449797370E+02 -0.15522335798E+03  0.16606287042E+03  0.47000000000E+01 0.  1.
<mgrwt>
<rscale>  0 0.29026693E+03</rscale>
<asrwt>0</asrwt>
<pdfrwt beam="1">  1       21 0.87677705E-02 0.29026693E+03</pdfrwt>
<pdfrwt beam="2">  1       21 0.56861624E-01 0.29026693E+03</pdfrwt>
<totfact> 0.29020815E+05</totfact>
</mgrwt>
</event>
<event>
 8    1  0.9705063E-006  0.3008081E+03  0.7546771E-02  0.1084837E+00
         21   -1    0    0  504  503  0.00000000000E+00  0.00000000000E+00  0.45914246081E+03  0.45914246081E+03  0.00000000000E+00 0. -1.
         21   -1    0    0  503  504 -0.00000000000E+00 -0.00000000000E+00 -0.49268754783E+02  0.49268754783E+02  0.00000000000E+00 0. -1.
         25    2    1    2    0    0  0.42981857797E+02  0.71737035530E+02  0.20795327109E+03  0.25663706805E+03  0.12499751745E+03 0.  0.
         25    2    1    2    0    0 -0.42981857797E+02 -0.71737035530E+02  0.20192043493E+03  0.25177414755E+03  0.12499886785E+03 0.  0.
          5    1    3    3  501    0 -0.29526674596E+02  0.35378307468E+02  0.17392155485E+02  0.49477532522E+02  0.47000000000E+01 0. -1.
         -5    1    3    3    0  501  0.72508532393E+02  0.36358728061E+02  0.19056111561E+03  0.20715953552E+03  0.47000000000E+01 0. -1.
          5    1    4    4  502    0 -0.12457733144E+02 -0.95918992102E+02  0.86412200002E+02  0.12978754359E+03  0.47000000000E+01 0. -1.
         -5    1    4    4    0  502 -0.30524124653E+02  0.24181956572E+02  0.11550823493E+03  0.12198660396E+03  0.47000000000E+01 0. -1.
<mgrwt>
<rscale>  0 0.30080809E+03</rscale>
<asrwt>0</asrwt>
<pdfrwt beam="1">  1       21 0.70637299E-01 0.30080809E+03</pdfrwt>
<pdfrwt beam="2">  1       21 0.75798087E-02 0.30080809E+03</pdfrwt>
<totfact> 0.23256209E+05</totfact>
</mgrwt>
</event>
<event>
 8    1  0.9705063E-006  0.2573859E+03  0.7546771E-02  0.1108724E+00
         21   -1    0    0  504  503  0.00000000000E+00  0.00000000000E+00  0.25680671281E+03  0.25680671281E+03  0.00000000000E+00 0. -1.
         21   -1    0    0  503  504 -0.00000000000E+00 -0.00000000000E+00 -0.64491599568E+02  0.64491599568E+02  0.00000000000E+00 0. -1.
         25    2    1    2    0    0  0.13729862309E+02 -0.14022008561E+02  0.66804522419E+02  0.14307631647E+03  0.12499144881E+03 0.  0.
         25    2    1    2    0    0 -0.13729862309E+02  0.14022008561E+02  0.12551059082E+03  0.17822199591E+03  0.12500018230E+03 0.  0.
          5    1    3    3  501    0  0.11116529551E+02 -0.69054607073E+02  0.46736246449E+02  0.84252493847E+02  0.47000000000E+01 0. -1.
         -5    1    3    3    0  501  0.26133327581E+01  0.55032598513E+02  0.20068275970E+02  0.58823822619E+02  0.47000000000E+01 0. -1.
          5    1    4    4  502    0  0.10222610508E+02 -0.43745346932E+02  0.92216054987E+01  0.46100815088E+02  0.47000000000E+01 0. -1.
         -5    1    4    4    0  502 -0.23952472817E+02  0.57767355493E+02  0.11628898533E+03  0.13212118083E+03  0.47000000000E+01 0. -1.
<mgrwt>
<rscale>  0 0.25738590E+03</rscale>
<asrwt>0</asrwt>
<pdfrwt beam="1">  1       21 0.39508724E-01 0.25738590E+03</pdfrwt>
<pdfrwt beam="2">  1       21 0.99217847E-02 0.25738590E+03</pdfrwt>
<totfact> 0.50168501E+05</totfact>
</mgrwt>
</event>
<event>
 8    1  0.9705063E-006  0.3437313E+03  0.7546771E-02  0.1065218E+00
         21   -1    0    0  504  503  0.00000000000E+00  0.00000000000E+00  0.63842888966E+03  0.63842888966E+03  0.00000000000E+00 0.  1.
         21   -1    0    0  503  504 -0.00000000000E+00 -0.00000000000E+00 -0.46266395879E+02  0.46266395879E+02  0.00000000000E+00 0.  1.
         25    2    1    2    0    0 -0.94245455810E+02 -0.39970937090E+02  0.17937775960E+03  0.24141650246E+03  0.12500266105E+03 0.  0.
         25    2    1    2    0    0  0.94245455810E+02  0.39970937090E+02  0.41278473417E+03  0.44327878307E+03  0.12499984401E+03 0.  0.
          5    1    3    3  501    0 -0.86414048689E+02  0.29346934591E+02  0.94634544055E+02  0.13155385707E+03  0.47000000000E+01 0.  1.
         -5    1    3    3    0  501 -0.78314071205E+01 -0.69317871681E+02  0.84743215548E+02  0.10986264540E+03  0.47000000000E+01 0.  1.
          5    1    4    4  502    0  0.17016588812E+02  0.69868142767E+02  0.13068733941E+03  0.14923937936E+03  0.47000000000E+01 0. -1.
         -5    1    4    4    0  502  0.77228866997E+02 -0.29897205677E+02  0.28209739477E+03  0.29403940372E+03  0.47000000000E+01 0. -1.
<mgrwt>
<rscale>  0 0.34373131E+03</rscale>
<asrwt>0</asrwt>
<pdfrwt beam="1">  1       21 0.98219823E-01 0.34373131E+03</pdfrwt>
<pdfrwt beam="2">  1       21 0.71179075E-02 0.34373131E+03</pdfrwt>
<totfact> 0.11994883E+05</totfact>
</mgrwt>
</event>
<event>
 8    1  0.9705063E-006  0.2557119E+03  0.7546771E-02  0.1109747E+00
         21   -1    0    0  504  503  0.00000000000E+00  0.00000000000E+00  0.29541297205E+03  0.29541297205E+03  0.00000000000E+00 0.  1.
         21   -1    0    0  503  504 -0.00000000000E+00 -0.00000000000E+00 -0.55336584145E+02  0.55336584145E+02  0.00000000000E+00 0.  1.
         25    2    1    2    0    0  0.24446311729E+01  0.20905089658E+02  0.97028539909E+02  0.15962201199E+03  0.12498659992E+03 0.  0.
         25    2    1    2    0    0 -0.24446311729E+01 -0.20905089658E+02  0.14304784800E+03  0.19112754421E+03  0.12499620932E+03 0.  0.
          5    1    3    3  501    0 -0.53304218885E+02  0.36914869474E+01  0.83984018691E+02  0.99651252989E+02  0.47000000000E+01 0. -1.
         -5    1    3    3    0  501  0.55748850058E+02  0.17213602710E+02  0.13044521218E+02  0.59970758999E+02  0.47000000000E+01 0. -1.
          5    1    4    4  502    0 -0.16541143250E+02 -0.65768592951E+02  0.42888253550E+02  0.80377916939E+02  0.47000000000E+01 0. -1.
         -5    1    4    4    0  502  0.14096512077E+02  0.44863503294E+02  0.10015959445E+03  0.11074962727E+03  0.47000000000E+01 0. -1.
<mgrwt>
<rscale>  0 0.25571191E+03</rscale>
<asrwt>0</asrwt>
<pdfrwt beam="1">  1       21 0.45448149E-01 0.25571191E+03</pdfrwt>
<pdfrwt beam="2">  1       21 0.85133207E-02 0.25571191E+03</pdfrwt>
<totfact> 0.49359421E+05</totfact>
</mgrwt>
</event>
<event>
 8    1  0.9705063E-006  0.3020447E+03  0.7546771E-02  0.1084223E+00
         21   -1    0    0  504  503  0.00000000000E+00  0.00000000000E+00  0.13942528730E+03  0.13942528730E+03  0.00000000000E+00 0. -1.
         21   -1    0    0  503  504 -0.00000000000E+00 -0.00000000000E+00 -0.16358407607E+03  0.16358407607E+03  0.00000000000E+00 0. -1.
         25    2    1    2    0    0  0.16034502458E+02  0.43780969633E+02  0.58881697967E+02  0.14583374098E+03  0.12500618817E+03 0.  0.
         25    2    1    2    0    0 -0.16034502458E+02 -0.43780969633E+02 -0.83040486739E+02  0.15717562240E+03  0.12503829520E+03 0.  0.
          5    1    3    3  501    0 -0.54813861410E+02  0.19372599026E+02  0.26617755057E+02  0.64112805897E+02  0.47000000000E+01 0. -1.
         -5    1    3    3    0  501  0.70848363868E+02  0.24408370608E+02  0.32263942910E+02  0.81720935081E+02  0.47000000000E+01 0. -1.
          5    1    4    4  502    0  0.12597889797E+02 -0.74086445075E+01  0.30679064731E+02  0.34305828274E+02  0.47000000000E+01 0.  1.
         -5    1    4    4    0  502 -0.28632392255E+02 -0.36372325126E+02 -0.11371955147E+03  0.12286979412E+03  0.47000000000E+01 0.  1.
<mgrwt>
<rscale>  0 0.30204474E+03</rscale>
<asrwt>0</asrwt>
<pdfrwt beam="1">  1       21 0.21450044E-01 0.30204474E+03</pdfrwt>
<pdfrwt beam="2">  1       21 0.25166781E-01 0.30204474E+03</pdfrwt>
<totfact> 0.29525424E+05</totfact>
</mgrwt>
</event>
<event>
 8    1  0.9705063E-006  0.2743313E+03  0.7546771E-02  0.1098826E+00
         21   -1    0    0  504  503  0.00000000000E+00  0.00000000000E+00  0.27468735477E+02  0.27468735477E+02  0.00000000000E+00 0. -1.
         21   -1    0    0  503  504 -0.00000000000E+00 -0.00000000000E+00 -0.68493930632E+03  0.68493930632E+03  0.00000000000E+00 0. -1.
         25    2    1    2    0    0 -0.10991635170E+02 -0.49380628340E+02 -0.26352744760E+03  0.29602534772E+03  0.12500011342E+03 0.  0.
         25    2    1    2    0    0  0.10991635170E+02  0.49380628340E+02 -0.39394312324E+03  0.41638269408E+03  0.12499640426E+03 0.  0.
          5    1    3    3  501    0 -0.56728261632E+01  0.50100449949E+01 -0.23315661343E+03  0.23332676206E+03  0.47000000000E+01 0. -1.
         -5    1    3    3    0  501 -0.53188090071E+01 -0.54390673335E+02 -0.30370834166E+02  0.62698585654E+02  0.47000000000E+01 0. -1.
          5    1    4    4  502    0  0.60481772587E+02  0.41280796781E+02 -0.14631090922E+03  0.16367993510E+03  0.47000000000E+01 0. -1.
         -5    1    4    4    0  502 -0.49490137416E+02  0.80998315594E+01 -0.24763221402E+03  0.25270275898E+03  0.47000000000E+01 0. -1.
<mgrwt>
<rscale>  0 0.27433131E+03</rscale>
<asrwt>0</asrwt>
<pdfrwt beam="1">  1       21 0.42259597E-02 0.27433131E+03</pdfrwt>
<pdfrwt beam="2">  1       21 0.10537527E+00 0.27433131E+03</pdfrwt>
<totfact> 0.25265514E+05</totfact>
</mgrwt>
</event>
<event>
 8    1  0.9705063E-006  0.4383536E+03  0.7546771E-02  0.1031253E+00
         21   -1    0    0  504  503  0.00000000000E+00  0.00000000000E+00  0.91282378076E+03  0.91282378076E+03  0.00000000000E+00 0.  1.
         21   -1    0    0  503  504 -0.00000000000E+00 -0.00000000000E+00 -0.52626226731E+02  0.52626226731E+02  0.00000000000E+00 0.  1.
         25    2    1    2    0    0  0.65817750597E+02 -0.15830836513E+03  0.30905438423E+03  0.37487674182E+03  0.12499777749E+03 0.  0.
         25    2    1    2    0    0 -0.65817750597E+02  0.15830836513E+03  0.55114316979E+03  0.59057326567E+03  0.12499789500E+03 0.  0.
          5    1    3    3  501    0  0.58911073413E+02 -0.16251426448E+03  0.31797268649E+03  0.36195320151E+03  0.47000000000E+01 0.  1.
         -5    1    3    3    0  501  0.69066771843E+01  0.42058993500E+01 -0.89183022531E+01  0.12923540310E+02  0.47000000000E+01 0.  1.
          5    1    4    4  502    0 -0.57006866560E+02  0.12262006321E+03  0.53185290737E+03  0.54879419441E+03  0.47000000000E+01 0.  1.
         -5    1    4    4    0  502 -0.88108840372E+01  0.35688301918E+02  0.19290262418E+02  0.41779071261E+02  0.47000000000E+01 0.  1.
<mgrwt>
<rscale>  0 0.43835361E+03</rscale>
<asrwt>0</asrwt>
<pdfrwt beam="1">  1       21 0.14043442E+00 0.43835361E+03</pdfrwt>
<pdfrwt beam="2">  1       21 0.80963433E-02 0.43835361E+03</pdfrwt>
<totfact> 0.37910950E+04</totfact>
</mgrwt>
</event>
<event>
 8    1  0.9705063E-006  0.2903071E+03  0.7546771E-02  0.1090189E+00
         21   -1    0    0  504  503  0.00000000000E+00  0.00000000000E+00  0.15444341192E+03  0.15444341192E+03  0.00000000000E+00 0. -1.
         21   -1    0    0  503  504 -0.00000000000E+00 -0.00000000000E+00 -0.13642251046E+03  0.13642251046E+03  0.00000000000E+00 0. -1.
         25    2    1    2    0    0  0.97043171540E+01  0.52560711994E+02 -0.41964758975E+02  0.14227507870E+03  0.12499741920E+03 0.  0.
         25    2    1    2    0    0 -0.97043171540E+01 -0.52560711994E+02  0.59985660444E+02  0.14859084368E+03  0.12499662855E+03 0.  0.
          5    1    3    3  501    0 -0.18955572953E+02 -0.19729491839E+02  0.26634429475E+02  0.38471410523E+02  0.47000000000E+01 0. -1.
         -5    1    3    3    0  501  0.28659890106E+02  0.72290203833E+02 -0.68599188450E+02  0.10380366818E+03  0.47000000000E+01 0. -1.
          5    1    4    4  502    0 -0.25014771633E+02  0.26594711788E+02 -0.13688994691E+02  0.39274623749E+02  0.47000000000E+01 0. -1.
         -5    1    4    4    0  502  0.15310454479E+02 -0.79155423782E+02  0.73674655135E+02  0.10931621993E+03  0.47000000000E+01 0. -1.
<mgrwt>
<rscale>  0 0.29030713E+03</rscale>
<asrwt>0</asrwt>
<pdfrwt beam="1">  1       21 0.23760525E-01 0.29030713E+03</pdfrwt>
<pdfrwt beam="2">  1       21 0.20988078E-01 0.29030713E+03</pdfrwt>
<totfact> 0.34446913E+05</totfact>
</mgrwt>
</event>
<event>
 8    1  0.9705063E-006  0.3084166E+03  0.7546771E-02  0.1081107E+00
         21   -1    0    0  504  503  0.00000000000E+00  0.00000000000E+00  0.17626817961E+03  0.17626817961E+03  0.00000000000E+00 0.  1.
         21   -1    0    0  503  504 -0.00000000000E+00 -0.00000000000E+00 -0.13490921632E+03  0.13490921632E+03  0.00000000000E+00 0.  1.
         25    2    1    2    0    0  0.86780036457E+02  0.22827982999E+02  0.30944471159E+02  0.15694958100E+03  0.12499487648E+03 0.  0.
         25    2    1    2    0    0 -0.86780036457E+02 -0.22827982999E+02  0.10414492130E+02  0.15422781492E+03  0.12500346281E+03 0.  0.
          5    1    3    3  501    0  0.78538224947E+01 -0.25339827482E+02 -0.34351967342E+02  0.43657038893E+02  0.47000000000E+01 0. -1.
         -5    1    3    3    0  501  0.78926213963E+02  0.48167810481E+02  0.65296438501E+02  0.11329254211E+03  0.47000000000E+01 0. -1.
          5    1    4    4  502    0 -0.16373531815E+02  0.41742964626E+01  0.60889550122E+02  0.63365168737E+02  0.47000000000E+01 0. -1.
         -5    1    4    4    0  502 -0.70406504643E+02 -0.27002279461E+02 -0.50475057992E+02  0.90862646183E+02  0.47000000000E+01 0. -1.
<mgrwt>
<rscale>  0 0.30841661E+03</rscale>
<asrwt>0</asrwt>
<pdfrwt beam="1">  1       21 0.27118182E-01 0.30841661E+03</pdfrwt>
<pdfrwt beam="2">  1       21 0.20755264E-01 0.30841661E+03</pdfrwt>
<totfact> 0.27159384E+05</totfact>
</mgrwt>
</event>
<event>
 8    1  0.9705063E-006  0.3047999E+03  0.7546771E-02  0.1082866E+00
         21   -1    0    0  504  503  0.00000000000E+00  0.00000000000E+00  0.53178519059E+03  0.53178519059E+03  0.00000000000E+00 0. -1.
         21   -1    0    0  503  504 -0.00000000000E+00 -0.00000000000E+00 -0.43675043284E+02  0.43675043284E+02  0.00000000000E+00 0. -1.
         25    2    1    2    0    0  0.33607480743E+02  0.20945806047E+02  0.97417316532E+02  0.16335097929E+03  0.12500087728E+03 0.  0.
         25    2    1    2    0    0 -0.33607480743E+02 -0.20945806047E+02  0.39069283077E+03  0.41210925459E+03  0.12499984059E+03 0.  0.
          5    1    3    3  501    0  0.77804575796E+02  0.25139931951E+01  0.37584920841E+02  0.86571291149E+02  0.47000000000E+01 0. -1.
         -5    1    3    3    0  501 -0.44197095053E+02  0.18431812852E+02  0.59832395691E+02  0.76779688136E+02  0.47000000000E+01 0. -1.
          5    1    4    4  502    0  0.16816331937E+02  0.42287151814E+02  0.93807855780E+02  0.10436951679E+03  0.47000000000E+01 0.  1.
         -5    1    4    4    0  502 -0.50423812681E+02 -0.63232957861E+02  0.29688497499E+03  0.30773973780E+03  0.47000000000E+01 0.  1.
<mgrwt>
<rscale>  0 0.30479988E+03</rscale>
<asrwt>0</asrwt>
<pdfrwt beam="1">  1       21 0.81813101E-01 0.30479988E+03</pdfrwt>
<pdfrwt beam="2">  1       21 0.67192378E-02 0.30479988E+03</pdfrwt>
<totfact> 0.20560777E+05</totfact>
</mgrwt>
</event>
<event>
 8    1  0.9705063E-006  0.3284407E+03  0.7546771E-02  0.1071829E+00
         21   -1    0    0  504  503  0.00000000000E+00  0.00000000000E+00  0.16588787085E+04  0.16588787085E+04  0.00000000000E+00 0. -1.
         21   -1    0    0  503  504 -0.00000000000E+00 -0.00000000000E+00 -0.16256957544E+02  0.16256957544E+02  0.00000000000E+00 0. -1.
         25    2    1    2    0    0 -0.99468939735E+01  0.70065262660E+02  0.12272599945E+04  0.12356378207E+04  0.12500259284E+03 0.  0.
         25    2    1    2    0    0  0.99468939735E+01 -0.70065262660E+02  0.41536175652E+03  0.43949784536E+03  0.12499954228E+03 0.  0.
          5    1    3    3  501    0  0.24109968272E+02  0.51811245139E+02  0.11211197414E+04  0.11225850792E+04  0.47000000000E+01 0. -1.
         -5    1    3    3    0  501 -0.34056862245E+02  0.18254017521E+02  0.10614025313E+03  0.11305274148E+03  0.47000000000E+01 0. -1.
          5    1    4    4  502    0  0.15761264593E+02 -0.20970426135E+02  0.62380322385E+01  0.27371139546E+02  0.47000000000E+01 0. -1.
         -5    1    4    4    0  502 -0.58143706200E+01 -0.49094836525E+02  0.40912372428E+03  0.41212670582E+03  0.47000000000E+01 0. -1.
<mgrwt>
<rscale>  0 0.32844068E+03</rscale>
<asrwt>0</asrwt>
<pdfrwt beam="1">  1       21 0.25521198E+00 0.32844068E+03</pdfrwt>
<pdfrwt beam="2">  1       21 0.25010717E-02 0.32844068E+03</pdfrwt>
<totfact> 0.48734776E+04</totfact>
</mgrwt>
</event>
<event>
 8    1  0.9705063E-006  0.4373769E+03  0.7546771E-02  0.1031555E+00
         21   -1    0    0  504  503  0.00000000000E+00  0.00000000000E+00  0.12885850298E+03  0.12885850298E+03  0.00000000000E+00 0. -1.
         21   -1    0    0  503  504 -0.00000000000E+00 -0.00000000000E+00 -0.37114069165E+03  0.37114069165E+03  0.00000000000E+00 0. -1.
         25    2    1    2    0    0  0.12879097201E+03  0.12127087309E+03 -0.15553500297E+03  0.26666510951E+03  0.12500161739E+03 0.  0.
         25    2    1    2    0    0 -0.12879097201E+03 -0.12127087309E+03 -0.86747185707E+02  0.23333408512E+03  0.12500392762E+03 0.  0.
          5    1    3    3  501    0  0.16666115970E+02  0.60707289921E+02 -0.11784605766E+03  0.13368963227E+03  0.47000000000E+01 0.  1.
         -5    1    3    3    0  501  0.11212485604E+03  0.60563583166E+02 -0.37688945308E+02  0.13297547724E+03  0.47000000000E+01 0.  1.
          5    1    4    4  502    0 -0.64723780653E+02 -0.28160404567E+02 -0.96659249848E+02  0.11978011834E+03  0.47000000000E+01 0. -1.
         -5    1    4    4    0  502 -0.64067191358E+02 -0.93110468521E+02  0.99120641414E+01  0.11355396678E+03  0.47000000000E+01 0. -1.
<mgrwt>
<rscale>  0 0.43737688E+03</rscale>
<asrwt>0</asrwt>
<pdfrwt beam="1">  1       21 0.19824385E-01 0.43737688E+03</pdfrwt>
<pdfrwt beam="2">  1       21 0.57098567E-01 0.43737688E+03</pdfrwt>
<totfact> 0.62662580E+04</totfact>
</mgrwt>
</event>
<event>
 8    1  0.9705063E-006  0.4180688E+03  0.7546771E-02  0.1037697E+00
         21   -1    0    0  504  503  0.00000000000E+00  0.00000000000E+00  0.21942539163E+03  0.21942539163E+03  0.00000000000E+00 0. -1.
         21   -1    0    0  503  504 -0.00000000000E+00 -0.00000000000E+00 -0.19913548876E+03  0.19913548876E+03  0.00000000000E+00 0. -1.
         25    2    1    2    0    0  0.10319797616E+03 -0.11923531530E+03 -0.46529626866E+02  0.20653537827E+03  0.12499989441E+03 0.  0.
         25    2    1    2    0    0 -0.10319797616E+03  0.11923531530E+03  0.66819529728E+02  0.21202550212E+03  0.12499232494E+03 0.  0.
          5    1    3    3  501    0  0.82965946942E+02 -0.80171276270E+02  0.28952636417E+02  0.11904254301E+03  0.47000000000E+01 0. -1.
         -5    1    3    3    0  501  0.20232029220E+02 -0.39064039035E+02 -0.75482263282E+02  0.87492835263E+02  0.47000000000E+01 0. -1.
          5    1    4    4  502    0  0.40930614162E+01 -0.22346285579E+02  0.11612489704E+02  0.25943198493E+02  0.47000000000E+01 0. -1.
         -5    1    4    4    0  502 -0.10729103758E+03  0.14158160088E+03  0.55207040024E+02  0.18608230362E+03  0.47000000000E+01 0. -1.
<mgrwt>
<rscale>  0 0.41806881E+03</rscale>
<asrwt>0</asrwt>
<pdfrwt beam="1">  1       21 0.33757752E-01 0.41806881E+03</pdfrwt>
<pdfrwt beam="2">  1       21 0.30636229E-01 0.41806881E+03</pdfrwt>
<totfact> 0.80890223E+04</totfact>
</mgrwt>
</event>
<event>
 8    1  0.9705063E-006  0.3183269E+03  0.7546771E-02  0.1076422E+00
         21   -1    0    0  504  503  0.00000000000E+00  0.00000000000E+00  0.82549963489E+03  0.82549963489E+03  0.00000000000E+00 0.  1.
         21   -1    0    0  503  504 -0.00000000000E+00 -0.00000000000E+00 -0.30688092644E+02  0.30688092644E+02  0.00000000000E+00 0.  1.
         25    2    1    2    0    0  0.57609666683E+02 -0.10240790333E-01  0.61238143994E+03  0.62765931773E+03  0.12500526927E+03 0.  0.
         25    2    1    2    0    0 -0.57609666683E+02  0.10240790333E-01  0.18243010230E+03  0.22852840980E+03  0.12500247222E+03 0.  0.
          5    1    3    3  501    0  0.85144185268E+02  0.32743458946E+02  0.34760535278E+03  0.35940678578E+03  0.47000000000E+01 0.  1.
         -5    1    3    3    0  501 -0.27534518584E+02 -0.32753699736E+02  0.26477608717E+03  0.26825253195E+03  0.47000000000E+01 0.  1.
          5    1    4    4  502    0  0.26561043436E+02  0.21013244804E+01 -0.53992948547E+00  0.27060785591E+02  0.47000000000E+01 0.  1.
         -5    1    4    4    0  502 -0.84170710119E+02 -0.20910836901E+01  0.18297003179E+03  0.20146762421E+03  0.47000000000E+01 0.  1.
<mgrwt>
<rscale>  0 0.31832693E+03</rscale>
<asrwt>0</asrwt>
<pdfrwt beam="1">  1       21 0.12699993E+00 0.31832693E+03</pdfrwt>
<pdfrwt beam="2">  1       21 0.47212456E-02 0.31832693E+03</pdfrwt>
<totfact> 0.13004914E+05</totfact>
</mgrwt>
</event>
<event>
 8    1  0.9705063E-006  0.2849525E+03  0.7546771E-02  0.1093014E+00
         21   -1    0    0  504  503  0.00000000000E+00  0.00000000000E+00  0.71648196829E+03  0.71648196829E+03  0.00000000000E+00 0.  1.
         21   -1    0    0  503  504 -0.00000000000E+00 -0.00000000000E+00 -0.28332157044E+02  0.28332157044E+02  0.00000000000E+00 0.  1.
         25    2    1    2    0    0 -0.53063659088E+02  0.23762915177E+01  0.23155510800E+03  0.26844802588E+03  0.12500070351E+03 0.  0.
         25    2    1    2    0    0  0.53063659088E+02 -0.23762915177E+01  0.45659470325E+03  0.47636609946E+03  0.12499815600E+03 0.  0.
          5    1    3    3  501    0 -0.73178762787E+02  0.26725195395E+02  0.73530283914E+02  0.10722947377E+03  0.47000000000E+01 0. -1.
         -5    1    3    3    0  501  0.20115103700E+02 -0.24348903878E+02  0.15802482408E+03  0.16121855211E+03  0.47000000000E+01 0. -1.
          5    1    4    4  502    0 -0.15719688793E+02  0.47392843719E+02  0.19213529897E+03  0.19857304289E+03  0.47000000000E+01 0. -1.
         -5    1    4    4    0  502  0.68783347881E+02 -0.49769135237E+02  0.26445940428E+03  0.27779305657E+03  0.47000000000E+01 0. -1.
<mgrwt>
<rscale>  0 0.28495248E+03</rscale>
<asrwt>0</asrwt>
<pdfrwt beam="1">  1       21 0.11022798E+00 0.28495248E+03</pdfrwt>
<pdfrwt beam="2">  1       21 0.43587940E-02 0.28495248E+03</pdfrwt>
<totfact> 0.21420848E+05</totfact>
</mgrwt>
</event>
<event>
 8    1  0.9705063E-006  0.2992003E+03  0.7546771E-02  0.1085641E+00
         21   -1    0    0  504  503  0.00000000000E+00  0.00000000000E+00  0.86773389697E+02  0.86773389697E+02  0.00000000000E+00 0. -1.
         21   -1    0    0  503  504 -0.00000000000E+00 -0.00000000000E+00 -0.25791550821E+03  0.25791550821E+03  0.00000000000E+00 0. -1.
         25    2    1    2    0    0  0.65263659614E+02  0.38222384464E+02 -0.48505785198E+02  0.15393988323E+03  0.12499752202E+03 0.  0.
         25    2    1    2    0    0 -0.65263659614E+02 -0.38222384464E+02 -0.12263633332E+03  0.19074901468E+03  0.12500088164E+03 0.  0.
          5    1    3    3  501    0 -0.25691850968E+02  0.30661033251E+02  0.14640948294E+02  0.42855775960E+02  0.47000000000E+01 0. -1.
         -5    1    3    3    0  501  0.90955510583E+02  0.75613512125E+01 -0.63146733492E+02  0.11108410727E+03  0.47000000000E+01 0. -1.
          5    1    4    4  502    0 -0.97441198944E+02 -0.51940818843E+02 -0.97947151427E+02  0.14767657359E+03  0.47000000000E+01 0. -1.
         -5    1    4    4    0  502  0.32177539330E+02  0.13718434379E+02 -0.24689181890E+02  0.43072441091E+02  0.47000000000E+01 0. -1.
<mgrwt>
<rscale>  0 0.29920029E+03</rscale>
<asrwt>0</asrwt>
<pdfrwt beam="1">  1       21 0.13349752E-01 0.29920029E+03</pdfrwt>
<pdfrwt beam="2">  1       21 0.39679309E-01 0.29920029E+03</pdfrwt>
<totfact> 0.28930324E+05</totfact>
</mgrwt>
</event>
<event>
 8    1  0.9705063E-006  0.2568425E+03  0.7546771E-02  0.1109055E+00
         21   -1    0    0  504  503  0.00000000000E+00  0.00000000000E+00  0.68457873540E+02  0.68457873540E+02  0.00000000000E+00 0.  1.
         21   -1    0    0  503  504 -0.00000000000E+00 -0.00000000000E+00 -0.24090760442E+03  0.24090760442E+03  0.00000000000E+00 0.  1.
         25    2    1    2    0    0  0.17006261082E+02  0.16608985209E+02 -0.10713977395E+03  0.16633909036E+03  0.12499876205E+03 0.  0.
         25    2    1    2    0    0 -0.17006261082E+02 -0.16608985209E+02 -0.65309956926E+02  0.14302638760E+03  0.12500434301E+03 0.  0.
          5    1    3    3  501    0 -0.44893574307E+02  0.40475136768E+02 -0.47750003016E+02  0.77173975526E+02  0.47000000000E+01 0.  1.
         -5    1    3    3    0  501  0.61899835390E+02 -0.23866151559E+02 -0.59389770936E+02  0.89165114834E+02  0.47000000000E+01 0.  1.
          5    1    4    4  502    0  0.12387044786E+02 -0.26747959974E+02  0.30206546528E+02  0.42466665685E+02  0.47000000000E+01 0.  1.
         -5    1    4    4    0  502 -0.29393305868E+02  0.10138974765E+02 -0.95516503454E+02  0.10055972191E+03  0.47000000000E+01 0.  1.
<mgrwt>
<rscale>  0 0.25684254E+03</rscale>
<asrwt>0</asrwt>
<pdfrwt beam="1">  1       21 0.10531981E-01 0.25684254E+03</pdfrwt>
<pdfrwt beam="2">  1       21 0.37062708E-01 0.25684254E+03</pdfrwt>
<totfact> 0.51335594E+05</totfact>
</mgrwt>
</event>
<event>
 8    1  0.9705063E-006  0.2717831E+03  0.7546771E-02  0.1100263E+00
         21   -1    0    0  504  503  0.00000000000E+00  0.00000000000E+00  0.42759243704E+02  0.42759243704E+02  0.00000000000E+00 0.  1.
         21   -1    0    0  503  504 -0.00000000000E+00 -0.00000000000E+00 -0.43187193515E+03  0.43187193515E+03  0.00000000000E+00 0.  1.
         25    2    1    2    0    0 -0.10884886962E+02  0.38219553962E+02 -0.25658864963E+03  0.28817198602E+03  0.12500457326E+03 0.  0.
         25    2    1    2    0    0  0.10884886962E+02 -0.38219553962E+02 -0.13252404181E+03  0.18645919284E+03  0.12500077546E+03 0.  0.
          5    1    3    3  501    0  0.64866742348E+01 -0.44842845520E+02 -0.76486360157E+02  0.89023654312E+02  0.47000000000E+01 0. -1.
         -5    1    3    3    0  501 -0.17371561197E+02  0.83062399482E+02 -0.18010228948E+03  0.19914833170E+03  0.47000000000E+01 0. -1.
          5    1    4    4  502    0 -0.52719486956E+01  0.45228668652E+02 -0.52029886561E+02  0.69300974067E+02  0.47000000000E+01 0. -1.
         -5    1    4    4    0  502  0.16156835658E+02 -0.83448222614E+02 -0.80494155251E+02  0.11715821877E+03  0.47000000000E+01 0. -1.
<mgrwt>
<rscale>  0 0.27178313E+03</rscale>
<asrwt>0</asrwt>
<pdfrwt beam="1">  1       21 0.65783453E-02 0.27178313E+03</pdfrwt>
<pdfrwt beam="2">  1       21 0.66441835E-01 0.27178313E+03</pdfrwt>
<totfact> 0.34320177E+05</totfact>
</mgrwt>
</event>
<event>
 8    1  0.9705063E-006  0.2898532E+03  0.7546771E-02  0.1090426E+00
         21   -1    0    0  504  503  0.00000000000E+00  0.00000000000E+00  0.36443167854E+03  0.36443167854E+03  0.00000000000E+00 0.  1.
         21   -1    0    0  503  504 -0.00000000000E+00 -0.00000000000E+00 -0.57634190121E+02  0.57634190121E+02  0.00000000000E+00 0.  1.
         25    2    1    2    0    0  0.63460983666E+02  0.30402108303E+02  0.12333407603E+03  0.18917602742E+03  0.12499876161E+03 0.  0.
         25    2    1    2    0    0 -0.63460983666E+02 -0.30402108303E+02  0.18346341239E+03  0.23288984124E+03  0.12500907898E+03 0.  0.
          5    1    3    3  501    0 -0.27952701742E+02 -0.20928799375E+02  0.14842715550E+02  0.38233027383E+02  0.47000000000E+01 0.  1.
         -5    1    3    3    0  501  0.91413685408E+02  0.51330907678E+02  0.10849136048E+03  0.15094300004E+03  0.47000000000E+01 0.  1.
          5    1    4    4  502    0  0.26942196284E+02 -0.72459501068E+01  0.14940855254E+01  0.28332102378E+02  0.47000000000E+01 0. -1.
         -5    1    4    4    0  502 -0.90403179950E+02 -0.23156158196E+02  0.18196932686E+03  0.20455773886E+03  0.47000000000E+01 0. -1.
<mgrwt>
<rscale>  0 0.28985324E+03</rscale>
<asrwt>0</asrwt>
<pdfrwt beam="1">  1       21 0.56066411E-01 0.28985324E+03</pdfrwt>
<pdfrwt beam="2">  1       21 0.88667987E-02 0.28985324E+03</pdfrwt>
<totfact> 0.29326013E+05</totfact>
</mgrwt>
</event>
<event>
 8    1  0.9705063E-006  0.2720951E+03  0.7546771E-02  0.1100086E+00
         21   -1    0    0  504  503  0.00000000000E+00  0.00000000000E+00  0.14732711471E+03  0.14732711471E+03  0.00000000000E+00 0. -1.
         21   -1    0    0  503  504 -0.00000000000E+00 -0.00000000000E+00 -0.12563160815E+03  0.12563160815E+03  0.00000000000E+00 0. -1.
         25    2    1    2    0    0 -0.20642086706E+02 -0.24641044193E+02  0.54008007735E+02  0.13991177749E+03  0.12500065511E+03 0.  0.
         25    2    1    2    0    0  0.20642086706E+02  0.24641044193E+02 -0.32312501173E+02  0.13304694537E+03  0.12499646050E+03 0.  0.
          5    1    3    3  501    0  0.23526891231E+02 -0.11944459584E+02 -0.32328237700E+02  0.41992733640E+02  0.47000000000E+01 0.  1.
         -5    1    3    3    0  501 -0.44168977937E+02 -0.12696584609E+02  0.86336245435E+02  0.97919043850E+02  0.47000000000E+01 0.  1.
          5    1    4    4  502    0 -0.38828785259E+01 -0.45525904055E+02 -0.36177653458E+02  0.58468771968E+02  0.47000000000E+01 0. -1.
         -5    1    4    4    0  502  0.24524965232E+02  0.70166948248E+02  0.38651522854E+01  0.74578173404E+02  0.47000000000E+01 0. -1.
<mgrwt>
<rscale>  0 0.27209515E+03</rscale>
<asrwt>0</asrwt>
<pdfrwt beam="1">  1       21 0.22665710E-01 0.27209515E+03</pdfrwt>
<pdfrwt beam="2">  1       21 0.19327940E-01 0.27209515E+03</pdfrwt>
<totfact> 0.44181019E+05</totfact>
</mgrwt>
</event>
<event>
 8    1  0.9705063E-006  0.2700614E+03  0.7546771E-02  0.1101244E+00
         21   -1    0    0  504  503  0.00000000000E+00  0.00000000000E+00  0.23004001397E+03  0.23004001397E+03  0.00000000000E+00 0.  1.
         21   -1    0    0  503  504 -0.00000000000E+00 -0.00000000000E+00 -0.79261387127E+02  0.79261387127E+02  0.00000000000E+00 0.  1.
         25    2    1    2    0    0  0.33507263697E+02 -0.21827831362E+02  0.39041580966E+02  0.13693850860E+03  0.12501487572E+03 0.  0.
         25    2    1    2    0    0 -0.33507263697E+02  0.21827831362E+02  0.11173704588E+03  0.17236289249E+03  0.12499843337E+03 0.  0.
          5    1    3    3  501    0 -0.33353597347E+02  0.17308452016E+02 -0.16692191448E+02  0.41385555723E+02  0.47000000000E+01 0. -1.
         -5    1    3    3    0  501  0.66860861044E+02 -0.39136283378E+02  0.55733772414E+02  0.95552952878E+02  0.47000000000E+01 0. -1.
          5    1    4    4  502    0 -0.73141671584E+02 -0.59727192170E+00  0.10192561690E+03  0.12554275063E+03  0.47000000000E+01 0.  1.
         -5    1    4    4    0  502  0.39634407886E+02  0.22425103284E+02  0.98114289798E+01  0.46820141867E+02  0.47000000000E+01 0.  1.
<mgrwt>
<rscale>  0 0.27006140E+03</rscale>
<asrwt>0</asrwt>
<pdfrwt beam="1">  1       21 0.35390771E-01 0.27006140E+03</pdfrwt>
<pdfrwt beam="2">  1       21 0.12194060E-01 0.27006140E+03</pdfrwt>
<totfact> 0.43197297E+05</totfact>
</mgrwt>
</event>
<event>
 8    1  0.9705063E-006  0.3458295E+03  0.7546771E-02  0.1064340E+00
         21   -1    0    0  504  503  0.00000000000E+00  0.00000000000E+00  0.26480867260E+02  0.26480867260E+02  0.00000000000E+00 0.  1.
         21   -1    0    0  503  504 -0.00000000000E+00 -0.00000000000E+00 -0.11290989357E+04  0.11290989357E+04  0.00000000000E+00 0.  1.
         25    2    1    2    0    0 -0.18410959123E+02  0.53097244668E+02 -0.19874903939E+03  0.24137871162E+03  0.12491685619E+03 0.  0.
         25    2    1    2    0    0  0.18410959123E+02 -0.53097244668E+02 -0.90386902901E+03  0.91420109129E+03  0.12500453156E+03 0.  0.
          5    1    3    3  501    0  0.18433940636E+02  0.51880593092E+02 -0.19652819450E+03  0.20414903218E+03  0.47000000000E+01 0.  1.
         -5    1    3    3    0  501 -0.36844899759E+02  0.12166515762E+01 -0.22208448851E+01  0.37229679441E+02  0.47000000000E+01 0.  1.
          5    1    4    4  502    0 -0.47259180953E+02 -0.51039751574E+02 -0.39778579813E+03  0.40384912729E+03  0.47000000000E+01 0.  1.
         -5    1    4    4    0  502  0.65670140076E+02 -0.20574930940E+01 -0.50608323088E+03  0.51035196400E+03  0.47000000000E+01 0.  1.
<mgrwt>
<rscale>  0 0.34582955E+03</rscale>
<asrwt>0</asrwt>
<pdfrwt beam="1">  1       21 0.40739799E-02 0.34582955E+03</pdfrwt>
<pdfrwt beam="2">  1       21 0.17370751E+00 0.34582955E+03</pdfrwt>
<totfact> 0.71481750E+04</totfact>
</mgrwt>
</event>
<event>
 8    1  0.9705063E-006  0.4381803E+03  0.7546771E-02  0.1031307E+00
         21   -1    0    0  504  503  0.00000000000E+00  0.00000000000E+00  0.10880960689E+03  0.10880960689E+03  0.00000000000E+00 0.  1.
         21   -1    0    0  503  504 -0.00000000000E+00 -0.00000000000E+00 -0.44114211446E+03  0.44114211446E+03  0.00000000000E+00 0.  1.
         25    2    1    2    0    0 -0.10269595162E+03  0.50377888141E+02  0.81559863094E+01  0.16963446966E+03  0.12499977236E+03 0.  0.
         25    2    1    2    0    0  0.10269595162E+03 -0.50377888141E+02 -0.34048849389E+03  0.38031725169E+03  0.12499762947E+03 0.  0.
          5    1    3    3  501    0  0.87791967964E+01  0.33180438685E+02  0.39434343804E+02  0.52489744512E+02  0.47000000000E+01 0. -1.
         -5    1    3    3    0  501 -0.11147514841E+03  0.17197449457E+02 -0.31278357495E+02  0.11714472514E+03  0.47000000000E+01 0. -1.
          5    1    4    4  502    0  0.28707801192E+02  0.26627476244E+02 -0.19964974436E+03  0.20350742189E+03  0.47000000000E+01 0. -1.
         -5    1    4    4    0  502  0.73988150424E+02 -0.77005364386E+02 -0.14083874953E+03  0.17680982981E+03  0.47000000000E+01 0. -1.
<mgrwt>
<rscale>  0 0.43818033E+03</rscale>
<asrwt>0</asrwt>
<pdfrwt beam="1">  1       21 0.16739939E-01 0.43818033E+03</pdfrwt>
<pdfrwt beam="2">  1       21 0.67868019E-01 0.43818033E+03</pdfrwt>
<totfact> 0.58881724E+04</totfact>
</mgrwt>
</event>
<event>
 8    1  0.9705063E-006  0.2593102E+03  0.7546771E-02  0.1107558E+00
         21   -1    0    0  504  503  0.00000000000E+00  0.00000000000E+00  0.18958394255E+02  0.18958394255E+02  0.00000000000E+00 0.  1.
         21   -1    0    0  503  504 -0.00000000000E+00 -0.00000000000E+00 -0.88670177541E+03  0.88670177541E+03  0.00000000000E+00 0.  1.
         25    2    1    2    0    0 -0.17830606173E+02  0.15834889380E+02 -0.52066680686E+03  0.53599118136E+03  0.12499579388E+03 0.  0.
         25    2    1    2    0    0  0.17830606173E+02 -0.15834889380E+02 -0.34707657430E+03  0.36966898831E+03  0.12499735299E+03 0.  0.
          5    1    3    3  501    0 -0.60224393524E+02  0.14908029287E+02 -0.44326101885E+03  0.44760657697E+03  0.47000000000E+01 0.  1.
         -5    1    3    3    0  501  0.42393787351E+02  0.92686009261E+00 -0.77405788007E+02  0.88384604386E+02  0.47000000000E+01 0.  1.
          5    1    4    4  502    0 -0.39795592386E+02  0.30918175503E+01 -0.26207990273E+03  0.26514376086E+03  0.47000000000E+01 0.  1.
         -5    1    4    4    0  502  0.57626198559E+02 -0.18926706930E+02 -0.84996671569E+02  0.10452522745E+03  0.47000000000E+01 0.  1.
<mgrwt>
<rscale>  0 0.25931018E+03</rscale>
<asrwt>0</asrwt>
<pdfrwt beam="1">  1       21 0.29166760E-02 0.25931018E+03</pdfrwt>
<pdfrwt beam="2">  1       21 0.13641566E+00 0.25931018E+03</pdfrwt>
<totfact> 0.24794573E+05</totfact>
</mgrwt>
</event>
<event>
 8    1  0.9705063E-006  0.3135596E+03  0.7546771E-02  0.1078652E+00
         21   -1    0    0  504  503  0.00000000000E+00  0.00000000000E+00  0.73174252082E+02  0.73174252082E+02  0.00000000000E+00 0.  1.
         21   -1    0    0  503  504 -0.00000000000E+00 -0.00000000000E+00 -0.33590915894E+03  0.33590915894E+03  0.00000000000E+00 0.  1.
         25    2    1    2    0    0 -0.59811259034E+02  0.26782716529E+02 -0.22042169401E+03  0.26173699678E+03  0.12500332667E+03 0.  0.
         25    2    1    2    0    0  0.59811259034E+02 -0.26782716529E+02 -0.42313212844E+02  0.14734641424E+03  0.12500342874E+03 0.  0.
          5    1    3    3  501    0 -0.92398245244E+02  0.45655346443E+02 -0.15912955430E+03  0.18964743983E+03  0.47000000000E+01 0. -1.
         -5    1    3    3    0  501  0.32586986210E+02 -0.18872629914E+02 -0.61292139708E+02  0.72089556943E+02  0.47000000000E+01 0. -1.
          5    1    4    4  502    0 -0.55745861098E+01  0.41172051604E+02 -0.31414492283E+02  0.52298892617E+02  0.47000000000E+01 0.  1.
         -5    1    4    4    0  502  0.65385845144E+02 -0.67954768133E+02 -0.10898720562E+02  0.95047521625E+02  0.47000000000E+01 0.  1.
<mgrwt>
<rscale>  0 0.31355957E+03</rscale>
<asrwt>0</asrwt>
<pdfrwt beam="1">  1       21 0.11257577E-01 0.31355957E+03</pdfrwt>
<pdfrwt beam="2">  1       21 0.51678333E-01 0.31355957E+03</pdfrwt>
<totfact> 0.22676336E+05</totfact>
</mgrwt>
</event>
<event>
 8    1  0.9705063E-006  0.2857220E+03  0.7546771E-02  0.1092604E+00
         21   -1    0    0  504  503  0.00000000000E+00  0.00000000000E+00  0.87252840611E+02  0.87252840611E+02  0.00000000000E+00 0.  1.
         21   -1    0    0  503  504 -0.00000000000E+00 -0.00000000000E+00 -0.23390952138E+03  0.23390952138E+03  0.00000000000E+00 0.  1.
         25    2    1    2    0    0 -0.44661186382E+02 -0.34024318435E+02 -0.27921927866E+02  0.13984874898E+03  0.12500305085E+03 0.  0.
         25    2    1    2    0    0  0.44661186382E+02  0.34024318435E+02 -0.11873475290E+03  0.18131361302E+03  0.12499763559E+03 0.  0.
          5    1    3    3  501    0 -0.53455650544E+02 -0.70165381383E+02  0.70029915300E+01  0.88610491535E+02  0.47000000000E+01 0.  1.
         -5    1    3    3    0  501  0.87944641621E+01  0.36141062948E+02 -0.34924919396E+02  0.51238257442E+02  0.47000000000E+01 0.  1.
          5    1    4    4  502    0 -0.31272444841E+02  0.12529252732E+02 -0.91628515334E+02  0.97738543076E+02  0.47000000000E+01 0.  1.
         -5    1    4    4    0  502  0.75933631223E+02  0.21495065704E+02 -0.27106237570E+02  0.83575069940E+02  0.47000000000E+01 0.  1.
<mgrwt>
<rscale>  0 0.28572203E+03</rscale>
<asrwt>0</asrwt>
<pdfrwt beam="1">  1       21 0.13423514E-01 0.28572203E+03</pdfrwt>
<pdfrwt beam="2">  1       21 0.35986080E-01 0.28572203E+03</pdfrwt>
<totfact> 0.34996231E+05</totfact>
</mgrwt>
</event>
<event>
 8    1  0.9705063E-006  0.3002561E+03  0.7546771E-02  0.1085113E+00
         21   -1    0    0  504  503  0.00000000000E+00  0.00000000000E+00  0.15108706840E+02  0.15108706840E+02  0.00000000000E+00 0.  1.
         21   -1    0    0  503  504 -0.00000000000E+00 -0.00000000000E+00 -0.14917509102E+04  0.14917509102E+04  0.00000000000E+00 0.  1.
         25    2    1    2    0    0  0.69229946397E+02 -0.33048609901E+02 -0.57737434830E+03  0.59571051465E+03  0.12499953241E+03 0.  0.
         25    2    1    2    0    0 -0.69229946397E+02  0.33048609901E+02 -0.89926785503E+03  0.91114910236E+03  0.12500006214E+03 0.  0.
          5    1    3    3  501    0 -0.30430353105E+02 -0.23742998619E+02 -0.88380239422E+02  0.96555129816E+02  0.47000000000E+01 0.  1.
         -5    1    3    3    0  501  0.99660299501E+02 -0.93056112823E+01 -0.48899410888E+03  0.49915538484E+03  0.47000000000E+01 0.  1.
          5    1    4    4  502    0  0.18989129033E+02 -0.28688338875E+02 -0.32545507277E+03  0.32730215734E+03  0.47000000000E+01 0.  1.
         -5    1    4    4    0  502 -0.88219075430E+02  0.61736948776E+02 -0.57381278227E+03  0.58384694502E+03  0.47000000000E+01 0.  1.
<mgrwt>
<rscale>  0 0.30025607E+03</rscale>
<asrwt>0</asrwt>
<pdfrwt beam="1">  1       21 0.23244164E-02 0.30025607E+03</pdfrwt>
<pdfrwt beam="2">  1       21 0.22950014E+00 0.30025607E+03</pdfrwt>
<totfact> 0.79937156E+04</totfact>
</mgrwt>
</event>
<event>
 8    1  0.9705063E-006  0.3203877E+03  0.7546771E-02  0.1075471E+00
         21   -1    0    0  504  503  0.00000000000E+00  0.00000000000E+00  0.43739689008E+03  0.43739689008E+03  0.00000000000E+00 0.  1.
         21   -1    0    0  503  504 -0.00000000000E+00 -0.00000000000E+00 -0.58669987089E+02  0.58669987089E+02  0.00000000000E+00 0.  1.
         25    2    1    2    0    0 -0.85282186419E+02 -0.29908769287E+02  0.25631793667E+03  0.29914856038E+03  0.12499356271E+03 0.  0.
         25    2    1    2    0    0  0.85282186419E+02  0.29908769287E+02  0.12240896633E+03  0.19691831679E+03  0.12500113060E+03 0.  0.
          5    1    3    3  501    0 -0.89585295851E+02 -0.10479339492E+02  0.26264802111E+03  0.27774343338E+03  0.47000000000E+01 0.  1.
         -5    1    3    3    0  501  0.43031094321E+01 -0.19429429795E+02 -0.63300844457E+01  0.21405127003E+02  0.47000000000E+01 0.  1.
          5    1    4    4  502    0 -0.10019209666E+02 -0.31784019447E+02  0.55929865318E+02  0.65275173604E+02  0.47000000000E+01 0.  1.
         -5    1    4    4    0  502  0.95301396085E+02  0.61692788734E+02  0.66479101008E+02  0.13164314319E+03  0.47000000000E+01 0.  1.
<mgrwt>
<rscale>  0 0.32038770E+03</rscale>
<asrwt>0</asrwt>
<pdfrwt beam="1">  1       21 0.67291827E-01 0.32038770E+03</pdfrwt>
<pdfrwt beam="2">  1       21 0.90261521E-02 0.32038770E+03</pdfrwt>
<totfact> 0.18961014E+05</totfact>
</mgrwt>
</event>
<event>
 8    1  0.9705063E-006  0.3312032E+03  0.7546771E-02  0.1070606E+00
         21   -1    0    0  504  503  0.00000000000E+00  0.00000000000E+00  0.17160641275E+02  0.17160641275E+02  0.00000000000E+00 0. -1.
         21   -1    0    0  503  504 -0.00000000000E+00 -0.00000000000E+00 -0.15980690646E+04  0.15980690646E+04  0.00000000000E+00 0. -1.
         25    2    1    2    0    0 -0.76936808069E+02  0.75937282746E+02 -0.73979449534E+03  0.75803380773E+03  0.12503445518E+03 0.  0.
         25    2    1    2    0    0  0.76936808069E+02 -0.75937282746E+02 -0.84111392796E+03  0.85719589812E+03  0.12500569826E+03 0.  0.
          5    1    3    3  501    0  0.65064052446E+01  0.75535245148E+02 -0.25446057676E+03  0.26555636255E+03  0.47000000000E+01 0.  1.
         -5    1    3    3    0  501 -0.83443213314E+02  0.40203759834E+00 -0.48533391858E+03  0.49247744518E+03  0.47000000000E+01 0.  1.
          5    1    4    4  502    0  0.32980082162E+02  0.27044817522E+02 -0.39069257179E+03  0.39304183445E+03  0.47000000000E+01 0. -1.
         -5    1    4    4    0  502  0.43956725907E+02 -0.10298210027E+03 -0.45042135617E+03  0.46415406367E+03  0.47000000000E+01 0. -1.
<mgrwt>
<rscale>  0 0.33120320E+03</rscale>
<asrwt>0</asrwt>
<pdfrwt beam="1">  1       21 0.26400983E-02 0.33120320E+03</pdfrwt>
<pdfrwt beam="2">  1       21 0.24585682E+00 0.33120320E+03</pdfrwt>
<totfact> 0.50678754E+04</totfact>
</mgrwt>
</event>
<event>
 8    1  0.9705063E-006  0.2596284E+03  0.7546771E-02  0.1107367E+00
         21   -1    0    0  504  503  0.00000000000E+00  0.00000000000E+00  0.38401884146E+03  0.38401884146E+03  0.00000000000E+00 0.  1.
         21   -1    0    0  503  504 -0.00000000000E+00 -0.00000000000E+00 -0.43882549810E+02  0.43882549810E+02  0.00000000000E+00 0.  1.
         25    2    1    2    0    0 -0.31697069123E+02  0.96473561234E+01  0.18931900259E+03  0.22926999009E+03  0.12500107177E+03 0.  0.
         25    2    1    2    0    0  0.31697069123E+02 -0.96473561234E+01  0.15081728906E+03  0.19863140118E+03  0.12494319983E+03 0.  0.
          5    1    3    3  501    0 -0.64768946004E+02 -0.19451817634E+02  0.16577721101E+03  0.17910210290E+03  0.47000000000E+01 0. -1.
         -5    1    3    3    0  501  0.33071876881E+02  0.29099173757E+02  0.23541791585E+02  0.50167887187E+02  0.47000000000E+01 0. -1.
          5    1    4    4  502    0 -0.61269074230E+01  0.38459501531E+02  0.39136401374E+01  0.39421806551E+02  0.47000000000E+01 0.  1.
         -5    1    4    4    0  502  0.37823976546E+02 -0.48106857655E+02  0.14690364892E+03  0.15920959463E+03  0.47000000000E+01 0.  1.
<mgrwt>
<rscale>  0 0.25962840E+03</rscale>
<asrwt>0</asrwt>
<pdfrwt beam="1">  1       21 0.59079820E-01 0.25962840E+03</pdfrwt>
<pdfrwt beam="2">  1       21 0.67511618E-02 0.25962840E+03</pdfrwt>
<totfact> 0.42492893E+05</totfact>
</mgrwt>
</event>
<event>
 8    1  0.9705063E-006  0.2950330E+03  0.7546771E-02  0.1087750E+00
         21   -1    0    0  504  503  0.00000000000E+00  0.00000000000E+00  0.86898823211E+02  0.86898823211E+02  0.00000000000E+00 0.  1.
         21   -1    0    0  503  504 -0.00000000000E+00 -0.00000000000E+00 -0.25041895684E+03  0.25041895684E+03  0.00000000000E+00 0.  1.
         25    2    1    2    0    0 -0.51507460763E+02 -0.59003435514E+02 -0.83440198303E+02  0.16947957827E+03  0.12500654719E+03 0.  0.
         25    2    1    2    0    0  0.51507460763E+02  0.59003435514E+02 -0.80079935330E+02  0.16783820178E+03  0.12498976766E+03 0.  0.
          5    1    3    3  501    0  0.13274753055E+02 -0.56165406549E+02  0.67530802810E+01  0.58296363993E+02  0.47000000000E+01 0. -1.
         -5    1    3    3    0  501 -0.64782213819E+02 -0.28380289648E+01 -0.90193278584E+02  0.11118321428E+03  0.47000000000E+01 0. -1.
          5    1    4    4  502    0 -0.28464701261E+02 -0.18373301824E+02 -0.78583947761E+01  0.35095039625E+02  0.47000000000E+01 0. -1.
         -5    1    4    4    0  502  0.79972162025E+02  0.77376737337E+02 -0.72221540554E+02  0.13274316216E+03  0.47000000000E+01 0. -1.
<mgrwt>
<rscale>  0 0.29503297E+03</rscale>
<asrwt>0</asrwt>
<pdfrwt beam="1">  1       21 0.13369050E-01 0.29503297E+03</pdfrwt>
<pdfrwt beam="2">  1       21 0.38525993E-01 0.29503297E+03</pdfrwt>
<totfact> 0.30663701E+05</totfact>
</mgrwt>
</event>
<event>
 8    1  0.9705063E-006  0.2662450E+03  0.7546771E-02  0.1103448E+00
         21   -1    0    0  504  503  0.00000000000E+00  0.00000000000E+00  0.94844876484E+02  0.94844876484E+02  0.00000000000E+00 0.  1.
         21   -1    0    0  503  504 -0.00000000000E+00 -0.00000000000E+00 -0.18684819305E+03  0.18684819305E+03  0.00000000000E+00 0.  1.
         25    2    1    2    0    0  0.15846989099E+02 -0.29477266824E+02 -0.12951416996E+02  0.13005444393E+03  0.12500553132E+03 0.  0.
         25    2    1    2    0    0 -0.15846989099E+02  0.29477266824E+02 -0.79051899570E+02  0.15163862560E+03  0.12500013450E+03 0.  0.
          5    1    3    3  501    0  0.55090360108E+02 -0.58264392377E+02 -0.46391176267E+01  0.80456812069E+02  0.47000000000E+01 0. -1.
         -5    1    3    3    0  501 -0.39243371008E+02  0.28787125554E+02 -0.83122993692E+01  0.49597631864E+02  0.47000000000E+01 0. -1.
          5    1    4    4  502    0 -0.66725027555E+02  0.37996016759E+02 -0.39579394020E+02  0.86513265011E+02  0.47000000000E+01 0.  1.
         -5    1    4    4    0  502  0.50878038456E+02 -0.85187499354E+01 -0.39472505550E+02  0.65125360590E+02  0.47000000000E+01 0.  1.
<mgrwt>
<rscale>  0 0.26624495E+03</rscale>
<asrwt>0</asrwt>
<pdfrwt beam="1">  1       21 0.14591520E-01 0.26624495E+03</pdfrwt>
<pdfrwt beam="2">  1       21 0.28745876E-01 0.26624495E+03</pdfrwt>
<totfact> 0.47071777E+05</totfact>
</mgrwt>
</event>
<event>
 8    1  0.9705063E-006  0.3289847E+03  0.7546771E-02  0.1071587E+00
         21   -1    0    0  504  503  0.00000000000E+00  0.00000000000E+00  0.21469449224E+03  0.21469449224E+03  0.00000000000E+00 0. -1.
         21   -1    0    0  503  504 -0.00000000000E+00 -0.00000000000E+00 -0.12602900512E+03  0.12602900512E+03  0.00000000000E+00 0. -1.
         25    2    1    2    0    0  0.74166371569E+02 -0.40542616638E+02 -0.23486764337E+02  0.15271132708E+03  0.12499906754E+03 0.  0.
         25    2    1    2    0    0 -0.74166371569E+02  0.40542616638E+02  0.11215225145E+03  0.18801217028E+03  0.12500437684E+03 0.  0.
          5    1    3    3  501    0  0.66008009772E+02 -0.23759457750E+02 -0.71929756564E+02  0.10058602818E+03  0.47000000000E+01 0. -1.
         -5    1    3    3    0  501  0.81583617970E+01 -0.16783158887E+02  0.48442992226E+02  0.52125298899E+02  0.47000000000E+01 0. -1.
          5    1    4    4  502    0 -0.76678788273E+02 -0.65377595019E+01  0.11728115447E+03  0.14035433041E+03  0.47000000000E+01 0.  1.
         -5    1    4    4    0  502  0.25124167043E+01  0.47080376140E+02 -0.51289030120E+01  0.47657839872E+02  0.47000000000E+01 0.  1.
<mgrwt>
<rscale>  0 0.32898470E+03</rscale>
<asrwt>0</asrwt>
<pdfrwt beam="1">  1       21 0.33029922E-01 0.32898470E+03</pdfrwt>
<pdfrwt beam="2">  1       21 0.19389078E-01 0.32898470E+03</pdfrwt>
<totfact> 0.20853313E+05</totfact>
</mgrwt>
</event>
<event>
 8    1  0.9705063E-006  0.3995852E+03  0.7546771E-02  0.1043923E+00
         21   -1    0    0  504  503  0.00000000000E+00  0.00000000000E+00  0.20702984081E+03  0.20702984081E+03  0.00000000000E+00 0. -1.
         21   -1    0    0  503  504 -0.00000000000E+00 -0.00000000000E+00 -0.19280831959E+03  0.19280831959E+03  0.00000000000E+00 0. -1.
         25    2    1    2    0    0 -0.35130126949E+02 -0.21476226708E+01  0.15903921978E+03  0.20532308206E+03  0.12500142598E+03 0.  0.
         25    2    1    2    0    0  0.35130126949E+02  0.21476226708E+01 -0.14481769855E+03  0.19451507834E+03  0.12500084714E+03 0.  0.
          5    1    3    3  501    0  0.13861888150E+02 -0.55140309339E+02  0.61359680224E+02  0.83783685848E+02  0.47000000000E+01 0. -1.
         -5    1    3    3    0  501 -0.48992015099E+02  0.52992686668E+02  0.97679539552E+02  0.12153939621E+03  0.47000000000E+01 0. -1.
          5    1    4    4  502    0  0.54774335994E+02  0.37855991578E+02 -0.31128735702E+02  0.73650472968E+02  0.47000000000E+01 0.  1.
         -5    1    4    4    0  502 -0.19644209045E+02 -0.35708368907E+02 -0.11368896285E+03  0.12086460538E+03  0.47000000000E+01 0.  1.
<mgrwt>
<rscale>  0 0.39958516E+03</rscale>
<asrwt>0</asrwt>
<pdfrwt beam="1">  1       21 0.31850745E-01 0.39958516E+03</pdfrwt>
<pdfrwt beam="2">  1       21 0.29662818E-01 0.39958516E+03</pdfrwt>
<totfact> 0.97272566E+04</totfact>
</mgrwt>
</event>
<event>
 8    1  0.9705063E-006  0.2558932E+03  0.7546771E-02  0.1109636E+00
         21   -1    0    0  504  503  0.00000000000E+00  0.00000000000E+00  0.31256273915E+02  0.31256273915E+02  0.00000000000E+00 0. -1.
         21   -1    0    0  503  504 -0.00000000000E+00 -0.00000000000E+00 -0.52374556039E+03  0.52374556039E+03  0.00000000000E+00 0. -1.
         25    2    1    2    0    0 -0.14006987451E+02 -0.20528101112E+02 -0.27075825608E+03  0.29925151443E+03  0.12499534800E+03 0.  0.
         25    2    1    2    0    0  0.14006987451E+02  0.20528101112E+02 -0.22173103039E+03  0.25575031987E+03  0.12500391051E+03 0.  0.
          5    1    3    3  501    0 -0.55235501928E+01  0.51777793928E+02 -0.86454249190E+02  0.10103403760E+03  0.47000000000E+01 0.  1.
         -5    1    3    3    0  501 -0.84834372582E+01 -0.72305895041E+02 -0.18430400689E+03  0.19821747683E+03  0.47000000000E+01 0.  1.
          5    1    4    4  502    0 -0.42070377699E+02 -0.17874367213E+02 -0.14974510919E+03  0.15663683286E+03  0.47000000000E+01 0. -1.
         -5    1    4    4    0  502  0.56077365150E+02  0.38402468325E+02 -0.71985921201E+02  0.99113487008E+02  0.47000000000E+01 0. -1.
<mgrwt>
<rscale>  0 0.25589322E+03</rscale>
<asrwt>0</asrwt>
<pdfrwt beam="1">  1       21 0.48086578E-02 0.25589322E+03</pdfrwt>
<pdfrwt beam="2">  1       21 0.80576235E-01 0.25589322E+03</pdfrwt>
<totfact> 0.38287187E+05</totfact>
</mgrwt>
</event>
<event>
 8    1  0.9705063E-006  0.2780910E+03  0.7546771E-02  0.1096736E+00
         21   -1    0    0  504  503  0.00000000000E+00  0.00000000000E+00  0.38981510356E+03  0.38981510356E+03  0.00000000000E+00 0.  1.
         21   -1    0    0  503  504 -0.00000000000E+00 -0.00000000000E+00 -0.49596972981E+02  0.49596972981E+02  0.00000000000E+00 0.  1.
         25    2    1    2    0    0 -0.24399426769E+02  0.15072538070E+02  0.85226688354E+02  0.15398508244E+03  0.12500121510E+03 0.  0.
         25    2    1    2    0    0  0.24399426769E+02 -0.15072538070E+02  0.25499144222E+03  0.28542699410E+03  0.12500167968E+03 0.  0.
          5    1    3    3  501    0  0.33359668947E+02  0.29758158711E+01 -0.15458663148E+02  0.37185793775E+02  0.47000000000E+01 0. -1.
         -5    1    3    3    0  501 -0.57759095716E+02  0.12096722199E+02  0.10068535150E+03  0.11679928867E+03  0.47000000000E+01 0. -1.
          5    1    4    4  502    0 -0.14823090190E+02 -0.63661608661E+02  0.13588388911E+03  0.15086101465E+03  0.47000000000E+01 0.  1.
         -5    1    4    4    0  502  0.39222516959E+02  0.48589070591E+02  0.11910755311E+03  0.13456597945E+03  0.47000000000E+01 0.  1.
<mgrwt>
<rscale>  0 0.27809099E+03</rscale>
<asrwt>0</asrwt>
<pdfrwt beam="1">  1       21 0.59971552E-01 0.27809099E+03</pdfrwt>
<pdfrwt beam="2">  1       21 0.76303038E-02 0.27809099E+03</pdfrwt>
<totfact> 0.33112493E+05</totfact>
</mgrwt>
</event>
<event>
 8    1  0.9705063E-006  0.3038727E+03  0.7546771E-02  0.1083321E+00
         21   -1    0    0  504  503  0.00000000000E+00  0.00000000000E+00  0.39398889627E+02  0.39398889627E+02  0.00000000000E+00 0. -1.
         21   -1    0    0  503  504 -0.00000000000E+00 -0.00000000000E+00 -0.58592134693E+03  0.58592134693E+03  0.00000000000E+00 0. -1.
         25    2    1    2    0    0  0.20044058397E+02 -0.59822776127E+02 -0.15190349709E+03  0.20659393504E+03  0.12500341094E+03 0.  0.
         25    2    1    2    0    0 -0.20044058397E+02  0.59822776127E+02 -0.39461896022E+03  0.41872630152E+03  0.12500825174E+03 0.  0.
          5    1    3    3  501    0 -0.13179092659E+01  0.38658902356E+02 -0.37772079602E+02  0.54268477164E+02  0.47000000000E+01 0.  1.
         -5    1    3    3    0  501  0.21361967663E+02 -0.98481678483E+02 -0.11413141749E+03  0.15232545787E+03  0.47000000000E+01 0.  1.
          5    1    4    4  502    0  0.30635001595E+02  0.76356023647E+02 -0.28607238088E+03  0.29770495927E+03  0.47000000000E+01 0.  1.
         -5    1    4    4    0  502 -0.50679059991E+02 -0.16533247520E+02 -0.10854657934E+03  0.12102134225E+03  0.47000000000E+01 0.  1.
<mgrwt>
<rscale>  0 0.30387267E+03</rscale>
<asrwt>0</asrwt>
<pdfrwt beam="1">  1       21 0.60613673E-02 0.30387267E+03</pdfrwt>
<pdfrwt beam="2">  1       21 0.90141751E-01 0.30387267E+03</pdfrwt>
<totfact> 0.19635543E+05</totfact>
</mgrwt>
</event>
<event>
 8    1  0.9705063E-006  0.2790968E+03  0.7546771E-02  0.1096183E+00
         21   -1    0    0  504  503  0.00000000000E+00  0.00000000000E+00  0.19855299630E+02  0.19855299630E+02  0.00000000000E+00 0.  1.
         21   -1    0    0  503  504 -0.00000000000E+00 -0.00000000000E+00 -0.98078396238E+03  0.98078396238E+03  0.00000000000E+00 0.  1.
         25    2    1    2    0    0 -0.36311187386E+02 -0.21544120077E+02 -0.31769059700E+03  0.34400620128E+03  0.12502119683E+03 0.  0.
         25    2    1    2    0    0  0.36311187386E+02  0.21544120077E+02 -0.64323806575E+03  0.65663306073E+03  0.12501646202E+03 0.  0.
          5    1    3    3  501    0  0.59318723523E+01  0.11163563944E+02  0.68062443189E+01  0.15107191376E+02  0.47000000000E+01 0. -1.
         -5    1    3    3    0  501 -0.42243059738E+02 -0.32707684020E+02 -0.32449684132E+03  0.32889900990E+03  0.47000000000E+01 0. -1.
          5    1    4    4  502    0  0.52670115508E+02  0.56758539506E+02 -0.25787695526E+03  0.26929219619E+03  0.47000000000E+01 0. -1.
         -5    1    4    4    0  502 -0.16358928122E+02 -0.35214419430E+02 -0.38536111049E+03  0.38734086454E+03  0.47000000000E+01 0. -1.
<mgrwt>
<rscale>  0 0.27909683E+03</rscale>
<asrwt>0</asrwt>
<pdfrwt beam="1">  1       21 0.30546610E-02 0.27909683E+03</pdfrwt>
<pdfrwt beam="2">  1       21 0.15088987E+00 0.27909683E+03</pdfrwt>
<totfact> 0.17494352E+05</totfact>
</mgrwt>
</event>
<event>
 8    1  0.9705063E-006  0.3140222E+03  0.7546771E-02  0.1078434E+00
         21   -1    0    0  504  503  0.00000000000E+00  0.00000000000E+00  0.28792337967E+03  0.28792337967E+03  0.00000000000E+00 0. -1.
         21   -1    0    0  503  504 -0.00000000000E+00 -0.00000000000E+00 -0.85621674349E+02  0.85621674349E+02  0.00000000000E+00 0. -1.
         25    2    1    2    0    0 -0.76399287877E+02 -0.50210754741E+02  0.13190582964E+03  0.20343123855E+03  0.12500859909E+03 0.  0.
         25    2    1    2    0    0  0.76399287877E+02  0.50210754741E+02  0.70395875691E+02  0.17011381547E+03  0.12500063928E+03 0.  0.
          5    1    3    3  501    0 -0.10204653201E+01 -0.25395491346E+02 -0.19530944786E+02  0.32396298159E+02  0.47000000000E+01 0.  1.
         -5    1    3    3    0  501 -0.75378822557E+02 -0.24815263395E+02  0.15143677442E+03  0.17103494039E+03  0.47000000000E+01 0.  1.
          5    1    4    4  502    0  0.10534729809E+03  0.61943793950E+02  0.63421465410E+02  0.13776595769E+03  0.47000000000E+01 0. -1.
         -5    1    4    4    0  502 -0.28948010213E+02 -0.11733039210E+02  0.69744102809E+01  0.32347857783E+02  0.47000000000E+01 0. -1.
<mgrwt>
<rscale>  0 0.31402218E+03</rscale>
<asrwt>0</asrwt>
<pdfrwt beam="1">  1       21 0.44295904E-01 0.31402218E+03</pdfrwt>
<pdfrwt beam="2">  1       21 0.13172565E-01 0.31402218E+03</pdfrwt>
<totfact> 0.23568816E+05</totfact>
</mgrwt>
</event>
<event>
 8    1  0.9705063E-006  0.7902779E+03  0.7546771E-02  0.9574197E-01
         21   -1    0    0  504  503  0.00000000000E+00  0.00000000000E+00  0.80141001398E+03  0.80141001398E+03  0.00000000000E+00 0. -1.
         21   -1    0    0  503  504 -0.00000000000E+00 -0.00000000000E+00 -0.19482509609E+03  0.19482509609E+03  0.00000000000E+00 0. -1.
         25    2    1    2    0    0 -0.28949486634E+03  0.21514617516E+03  0.17465332001E+03  0.41979101386E+03  0.12500223520E+03 0.  0.
         25    2    1    2    0    0  0.28949486634E+03 -0.21514617516E+03  0.43193159787E+03  0.57644409621E+03  0.12501094550E+03 0.  0.
          5    1    3    3  501    0 -0.16197145618E+03  0.19320186774E+03  0.11100873766E+03  0.27551178587E+03  0.47000000000E+01 0. -1.
         -5    1    3    3    0  501 -0.12752341016E+03  0.21944307416E+02  0.63644582348E+02  0.14427922799E+03  0.47000000000E+01 0. -1.
          5    1    4    4  502    0  0.26365639573E+03 -0.14252841865E+03  0.37717298544E+03  0.48177857578E+03  0.47000000000E+01 0. -1.
         -5    1    4    4    0  502  0.25838470608E+02 -0.72617756505E+02  0.54758612431E+02  0.94665520432E+02  0.47000000000E+01 0. -1.
<mgrwt>
<rscale>  0 0.79027788E+03</rscale>
<asrwt>0</asrwt>
<pdfrwt beam="1">  1       21 0.12329385E+00 0.79027788E+03</pdfrwt>
<pdfrwt beam="2">  1       21 0.29973092E-01 0.79027788E+03</pdfrwt>
<totfact> 0.42265254E+03</totfact>
</mgrwt>
</event>
<event>
 8    1  0.9705063E-006  0.3557735E+03  0.7546771E-02  0.1060270E+00
         21   -1    0    0  504  503  0.00000000000E+00  0.00000000000E+00  0.79895378615E+02  0.79895378615E+02  0.00000000000E+00 0. -1.
         21   -1    0    0  503  504 -0.00000000000E+00 -0.00000000000E+00 -0.39606426403E+03  0.39606426403E+03  0.00000000000E+00 0. -1.
         25    2    1    2    0    0  0.91119550790E+02  0.58249457269E+02 -0.24603905135E+03  0.29640509535E+03  0.12499997581E+03 0.  0.
         25    2    1    2    0    0 -0.91119550790E+02 -0.58249457269E+02 -0.70129834065E+02  0.17955454729E+03  0.12500348003E+03 0.  0.
          5    1    3    3  501    0 -0.17715256336E+02  0.46526588799E+02 -0.44176599943E+02  0.66724926039E+02  0.47000000000E+01 0. -1.
         -5    1    3    3    0  501  0.10883480713E+03  0.11722868470E+02 -0.20186245140E+03  0.22968016931E+03  0.47000000000E+01 0. -1.
          5    1    4    4  502    0 -0.87670471907E+02  0.20806942430E+01 -0.12850624687E+01  0.87830417957E+02  0.47000000000E+01 0.  1.
         -5    1    4    4    0  502 -0.34490788829E+01 -0.60330151512E+02 -0.68844771596E+02  0.91724129338E+02  0.47000000000E+01 0.  1.
<mgrwt>
<rscale>  0 0.35577355E+03</rscale>
<asrwt>0</asrwt>
<pdfrwt beam="1">  1       21 0.12291596E-01 0.35577355E+03</pdfrwt>
<pdfrwt beam="2">  1       21 0.60932966E-01 0.35577355E+03</pdfrwt>
<totfact> 0.13448024E+05</totfact>
</mgrwt>
</event>
<event>
 8    1  0.9705063E-006  0.3553696E+03  0.7546771E-02  0.1060432E+00
         21   -1    0    0  504  503  0.00000000000E+00  0.00000000000E+00  0.12055937258E+03  0.12055937258E+03  0.00000000000E+00 0. -1.
         21   -1    0    0  503  504 -0.00000000000E+00 -0.00000000000E+00 -0.26187839684E+03  0.26187839684E+03  0.00000000000E+00 0. -1.
         25    2    1    2    0    0  0.21428088669E+01 -0.10067916763E+01 -0.20652639790E+03  0.24141821097E+03  0.12499597714E+03 0.  0.
         25    2    1    2    0    0 -0.21428088669E+01  0.10067916763E+01  0.65207373635E+02  0.14101955844E+03  0.12501563513E+03 0.  0.
          5    1    3    3  501    0  0.45346550719E+02  0.42810081235E+02 -0.11728183606E+03  0.13291400147E+03  0.47000000000E+01 0.  1.
         -5    1    3    3    0  501 -0.43203741852E+02 -0.43816872912E+02 -0.89244561837E+02  0.10850420950E+03  0.47000000000E+01 0.  1.
          5    1    4    4  502    0  0.36797387448E+02 -0.33047409839E+02  0.73197212458E+02  0.88465252680E+02  0.47000000000E+01 0. -1.
         -5    1    4    4    0  502 -0.38940196315E+02  0.34054201515E+02 -0.79898388229E+01  0.52554305764E+02  0.47000000000E+01 0. -1.
<mgrwt>
<rscale>  0 0.35536964E+03</rscale>
<asrwt>0</asrwt>
<pdfrwt beam="1">  1       21 0.18547596E-01 0.35536964E+03</pdfrwt>
<pdfrwt beam="2">  1       21 0.40288984E-01 0.35536964E+03</pdfrwt>
<totfact> 0.15086932E+05</totfact>
</mgrwt>
</event>
<event>
 8    1  0.9705063E-006  0.3849074E+03  0.7546771E-02  0.1049135E+00
         21   -1    0    0  504  503  0.00000000000E+00  0.00000000000E+00  0.83900783693E+02  0.83900783693E+02  0.00000000000E+00 0. -1.
         21   -1    0    0  503  504 -0.00000000000E+00 -0.00000000000E+00 -0.44145504829E+03  0.44145504829E+03  0.00000000000E+00 0. -1.
         25    2    1    2    0    0 -0.68919129836E+02  0.44942094318E+02 -0.13622604241E+02  0.15027719818E+03  0.12501209000E+03 0.  0.
         25    2    1    2    0    0  0.68919129836E+02 -0.44942094318E+02 -0.34393166036E+03  0.37507863381E+03  0.12500142497E+03 0.  0.
          5    1    3    3  501    0 -0.73974516555E+02  0.56194774633E+02  0.35386923299E+02  0.99520882915E+02  0.47000000000E+01 0. -1.
         -5    1    3    3    0  501  0.50553867193E+01 -0.11252680315E+02 -0.49009527540E+02  0.50756315260E+02  0.47000000000E+01 0. -1.
          5    1    4    4  502    0 -0.37044469641E+01 -0.42867341224E+02 -0.29626472405E+02  0.52451403585E+02  0.47000000000E+01 0.  1.
         -5    1    4    4    0  502  0.72623576800E+02 -0.20747530943E+01 -0.31430518795E+03  0.32262723022E+03  0.47000000000E+01 0.  1.
<mgrwt>
<rscale>  0 0.38490739E+03</rscale>
<asrwt>0</asrwt>
<pdfrwt beam="1">  1       21 0.12907813E-01 0.38490739E+03</pdfrwt>
<pdfrwt beam="2">  1       21 0.67916160E-01 0.38490739E+03</pdfrwt>
<totfact> 0.96187615E+04</totfact>
</mgrwt>
</event>
<event>
 8    1  0.9705063E-006  0.2886598E+03  0.7546771E-02  0.1091051E+00
         21   -1    0    0  504  503  0.00000000000E+00  0.00000000000E+00  0.45845559487E+03  0.45845559487E+03  0.00000000000E+00 0. -1.
         21   -1    0    0  503  504 -0.00000000000E+00 -0.00000000000E+00 -0.45437599044E+02  0.45437599044E+02  0.00000000000E+00 0. -1.
         25    2    1    2    0    0  0.13546478034E+02  0.27036256745E+02  0.92158394865E+02  0.15821913120E+03  0.12500262992E+03 0.  0.
         25    2    1    2    0    0 -0.13546478034E+02 -0.27036256745E+02  0.32085960096E+03  0.34567406272E+03  0.12500083144E+03 0.  0.
          5    1    3    3  501    0 -0.24579947930E+02  0.66770318803E+02  0.37827273955E+02  0.80718287693E+02  0.47000000000E+01 0. -1.
         -5    1    3    3    0  501  0.38126425964E+02 -0.39734062058E+02  0.54331120910E+02  0.77500843503E+02  0.47000000000E+01 0. -1.
          5    1    4    4  502    0  0.55037966236E+01 -0.49020359610E+02  0.41132597871E+02  0.64399286030E+02  0.47000000000E+01 0.  1.
         -5    1    4    4    0  502 -0.19050274658E+02  0.21984102865E+02  0.27972700309E+03  0.28127477669E+03  0.47000000000E+01 0.  1.
<mgrwt>
<rscale>  0 0.28865981E+03</rscale>
<asrwt>0</asrwt>
<pdfrwt beam="1">  1       21 0.70531627E-01 0.28865981E+03</pdfrwt>
<pdfrwt beam="2">  1       21 0.69904002E-02 0.28865981E+03</pdfrwt>
<totfact> 0.26951398E+05</totfact>
</mgrwt>
</event>
<event>
 8    1  0.9705063E-006  0.3116331E+03  0.7546771E-02  0.1079566E+00
         21   -1    0    0  504  503  0.00000000000E+00  0.00000000000E+00  0.41158196005E+02  0.41158196005E+02  0.00000000000E+00 0. -1.
         21   -1    0    0  503  504 -0.00000000000E+00 -0.00000000000E+00 -0.58988958703E+03  0.58988958703E+03  0.00000000000E+00 0. -1.
         25    2    1    2    0    0 -0.74745488729E+02  0.49227929092E+02 -0.22305860749E+03  0.27090645991E+03  0.12499956222E+03 0.  0.
         25    2    1    2    0    0  0.74745488729E+02 -0.49227929092E+02 -0.32567278354E+03  0.36014132313E+03  0.12501493351E+03 0.  0.
          5    1    3    3  501    0 -0.11414958903E+02 -0.37873479795E+02 -0.98097253879E+02  0.10587664038E+03  0.47000000000E+01 0. -1.
         -5    1    3    3    0  501 -0.63330529826E+02  0.87101408888E+02 -0.12496135361E+03  0.16502981953E+03  0.47000000000E+01 0. -1.
          5    1    4    4  502    0  0.13977237574E+02 -0.82063335818E+02 -0.19950545233E+03  0.21622735666E+03  0.47000000000E+01 0. -1.
         -5    1    4    4    0  502  0.60768251155E+02  0.32835406726E+02 -0.12616733121E+03  0.14391396648E+03  0.47000000000E+01 0. -1.
<mgrwt>
<rscale>  0 0.31163306E+03</rscale>
<asrwt>0</asrwt>
<pdfrwt beam="1">  1       21 0.63320300E-02 0.31163306E+03</pdfrwt>
<pdfrwt beam="2">  1       21 0.90752246E-01 0.31163306E+03</pdfrwt>
<totfact> 0.17884621E+05</totfact>
</mgrwt>
</event>
<event>
 8    1  0.9705063E-006  0.3490730E+03  0.7546771E-02  0.1062996E+00
         21   -1    0    0  504  503  0.00000000000E+00  0.00000000000E+00  0.11017351619E+03  0.11017351619E+03  0.00000000000E+00 0.  1.
         21   -1    0    0  503  504 -0.00000000000E+00 -0.00000000000E+00 -0.27650011322E+03  0.27650011322E+03  0.00000000000E+00 0.  1.
         25    2    1    2    0    0  0.99792863082E+01 -0.90019290325E+02 -0.17339431561E+03  0.23214868405E+03  0.12499745611E+03 0.  0.
         25    2    1    2    0    0 -0.99792863082E+01  0.90019290325E+02  0.70677185807E+01  0.15452494535E+03  0.12499978922E+03 0.  0.
          5    1    3    3  501    0  0.91596668185E+01 -0.10589855968E+03 -0.18394210040E+03  0.21249750761E+03  0.47000000000E+01 0.  1.
         -5    1    3    3    0  501  0.81961948969E+00  0.15879269358E+02  0.10547784795E+02  0.19651176441E+02  0.47000000000E+01 0.  1.
          5    1    4    4  502    0  0.47321722302E+02  0.53611173314E+01 -0.14373331723E+02  0.49967686013E+02  0.47000000000E+01 0. -1.
         -5    1    4    4    0  502 -0.57301008610E+02  0.84658172994E+02  0.21441050304E+02  0.10455725934E+03  0.47000000000E+01 0. -1.
<mgrwt>
<rscale>  0 0.34907300E+03</rscale>
<asrwt>0</asrwt>
<pdfrwt beam="1">  1       21 0.16949772E-01 0.34907300E+03</pdfrwt>
<pdfrwt beam="2">  1       21 0.42538479E-01 0.34907300E+03</pdfrwt>
<totfact> 0.15988518E+05</totfact>
</mgrwt>
</event>
<event>
 8    1  0.9705063E-006  0.2821967E+03  0.7546771E-02  0.1094495E+00
         21   -1    0    0  504  503  0.00000000000E+00  0.00000000000E+00  0.13023677565E+03  0.13023677565E+03  0.00000000000E+00 0. -1.
         21   -1    0    0  503  504 -0.00000000000E+00 -0.00000000000E+00 -0.15286572373E+03  0.15286572373E+03  0.00000000000E+00 0. -1.
         25    2    1    2    0    0 -0.12304745832E+02 -0.63590507048E+02 -0.19225986397E+01  0.14080164906E+03  0.12500499444E+03 0.  0.
         25    2    1    2    0    0  0.12304745832E+02  0.63590507048E+02 -0.20706349436E+02  0.14230085032E+03  0.12500247893E+03 0.  0.
          5    1    3    3  501    0 -0.27117611619E+02 -0.88507349394E+02 -0.32676658835E+02  0.98279040437E+02  0.47000000000E+01 0.  1.
         -5    1    3    3    0  501  0.14812865787E+02  0.24916842346E+02  0.30754060195E+02  0.42522608619E+02  0.47000000000E+01 0.  1.
          5    1    4    4  502    0  0.43647048172E+02 -0.20004803699E+02 -0.21689526475E+02  0.52894069080E+02  0.47000000000E+01 0. -1.
         -5    1    4    4    0  502 -0.31342302340E+02  0.83595310748E+02  0.98317703869E+00  0.89406781242E+02  0.47000000000E+01 0. -1.
<mgrwt>
<rscale>  0 0.28219666E+03</rscale>
<asrwt>0</asrwt>
<pdfrwt beam="1">  1       21 0.20036427E-01 0.28219666E+03</pdfrwt>
<pdfrwt beam="2">  1       21 0.23517804E-01 0.28219666E+03</pdfrwt>
<totfact> 0.38408936E+05</totfact>
</mgrwt>
</event>
<event>
 8    1  0.9705063E-006  0.3005265E+03  0.7546771E-02  0.1084978E+00
         21   -1    0    0  504  503  0.00000000000E+00  0.00000000000E+00  0.26092656361E+03  0.26092656361E+03  0.00000000000E+00 0.  1.
         21   -1    0    0  503  504 -0.00000000000E+00 -0.00000000000E+00 -0.86534090247E+02  0.86534090247E+02  0.00000000000E+00 0.  1.
         25    2    1    2    0    0 -0.22620662031E+01 -0.60536095109E+02  0.15347561913E+03  0.20699797535E+03  0.12499464139E+03 0.  0.
         25    2    1    2    0    0  0.22620662031E+01  0.60536095109E+02  0.20916854233E+02  0.14046267851E+03  0.12499005364E+03 0.  0.
          5    1    3    3  501    0  0.14651426416E+02 -0.46230965247E+02 -0.30719816228E+01  0.48821035577E+02  0.47000000000E+01 0. -1.
         -5    1    3    3    0  501 -0.16913492619E+02 -0.14305129861E+02  0.15654760075E+03  0.15817693977E+03  0.47000000000E+01 0. -1.
          5    1    4    4  502    0 -0.51685469160E+02  0.66533843468E+02  0.11235521336E+02  0.85126182744E+02  0.47000000000E+01 0. -1.
         -5    1    4    4    0  502  0.53947535363E+02 -0.59977483590E+01  0.96813328970E+01  0.55336495767E+02  0.47000000000E+01 0. -1.
<mgrwt>
<rscale>  0 0.30052649E+03</rscale>
<asrwt>0</asrwt>
<pdfrwt beam="1">  1       21 0.40142548E-01 0.30052649E+03</pdfrwt>
<pdfrwt beam="2">  1       21 0.13312937E-01 0.30052649E+03</pdfrwt>
<totfact> 0.28387897E+05</totfact>
</mgrwt>
</event>
<event>
 8    1  0.9705063E-006  0.2675045E+03  0.7546771E-02  0.1102716E+00
         21   -1    0    0  504  503  0.00000000000E+00  0.00000000000E+00  0.40865587970E+02  0.40865587970E+02  0.00000000000E+00 0. -1.
         21   -1    0    0  503  504 -0.00000000000E+00 -0.00000000000E+00 -0.43776843368E+03  0.43776843368E+03  0.00000000000E+00 0. -1.
         25    2    1    2    0    0  0.26233679414E+02 -0.15683016733E+02 -0.26372242180E+03  0.29344276492E+03  0.12499991030E+03 0.  0.
         25    2    1    2    0    0 -0.26233679414E+02  0.15683016733E+02 -0.13318042390E+03  0.18519125672E+03  0.12499845321E+03 0.  0.
          5    1    3    3  501    0 -0.14587613724E+02  0.38552331414E+01 -0.24288517058E+03  0.24339876209E+03  0.47000000000E+01 0.  1.
         -5    1    3    3    0  501  0.40821293138E+02 -0.19538249874E+02 -0.20837251222E+02  0.50044002839E+02  0.47000000000E+01 0.  1.
          5    1    4    4  502    0  0.31591968279E+02 -0.24267399116E+02 -0.70555256291E+01  0.40728731401E+02  0.47000000000E+01 0.  1.
         -5    1    4    4    0  502 -0.57825647693E+02  0.39950415849E+02 -0.12612489827E+03  0.14446252532E+03  0.47000000000E+01 0.  1.
<mgrwt>
<rscale>  0 0.26750450E+03</rscale>
<asrwt>0</asrwt>
<pdfrwt beam="1">  1       21 0.62870137E-02 0.26750450E+03</pdfrwt>
<pdfrwt beam="2">  1       21 0.67348989E-01 0.26750450E+03</pdfrwt>
<totfact> 0.36058823E+05</totfact>
</mgrwt>
</event>
<event>
 8    1  0.9705063E-006  0.2767905E+03  0.7546771E-02  0.1097455E+00
         21   -1    0    0  504  503  0.00000000000E+00  0.00000000000E+00  0.12570070043E+03  0.12570070043E+03  0.00000000000E+00 0. -1.
         21   -1    0    0  503  504 -0.00000000000E+00 -0.00000000000E+00 -0.15237185528E+03  0.15237185528E+03  0.00000000000E+00 0. -1.
         25    2    1    2    0    0  0.12974674829E+02  0.19795845083E+01 -0.71549205315E+02  0.14462739641E+03  0.12500213625E+03 0.  0.
         25    2    1    2    0    0 -0.12974674829E+02 -0.19795845083E+01  0.44878050466E+02  0.13344515930E+03  0.12498523986E+03 0.  0.
          5    1    3    3  501    0  0.29182567990E+02 -0.54267840101E+02 -0.16093936117E+02  0.63857071053E+02  0.47000000000E+01 0.  1.
         -5    1    3    3    0  501 -0.16207893161E+02  0.56247424609E+02 -0.55455269198E+02  0.80770325353E+02  0.47000000000E+01 0.  1.
          5    1    4    4  502    0 -0.58759075796E+02 -0.32975256054E+02  0.11003947506E+02  0.68433715089E+02  0.47000000000E+01 0.  1.
         -5    1    4    4    0  502  0.45784400967E+02  0.30995671546E+02  0.33874102960E+02  0.65011444207E+02  0.47000000000E+01 0.  1.
<mgrwt>
<rscale>  0 0.27679053E+03</rscale>
<asrwt>0</asrwt>
<pdfrwt beam="1">  1       21 0.19338569E-01 0.27679053E+03</pdfrwt>
<pdfrwt beam="2">  1       21 0.23441824E-01 0.27679053E+03</pdfrwt>
<totfact> 0.41353267E+05</totfact>
</mgrwt>
</event>
<event>
 8    1  0.9705063E-006  0.2529052E+03  0.7546771E-02  0.1111482E+00
         21   -1    0    0  504  503  0.00000000000E+00  0.00000000000E+00  0.15377500298E+04  0.15377500298E+04  0.00000000000E+00 0.  1.
         21   -1    0    0  503  504 -0.00000000000E+00 -0.00000000000E+00 -0.10398477538E+02  0.10398477538E+02  0.00000000000E+00 0.  1.
         25    2    1    2    0    0 -0.40595295771E+01 -0.14978433188E+02  0.69585957166E+03  0.70716824442E+03  0.12500219677E+03 0.  0.
         25    2    1    2    0    0  0.40595295771E+01  0.14978433188E+02  0.83149198065E+03  0.84098026297E+03  0.12501222172E+03 0.  0.
          5    1    3    3  501    0 -0.57790069658E+02 -0.33527550128E+02  0.43672711758E+03  0.44183306123E+03  0.47000000000E+01 0. -1.
         -5    1    3    3    0  501  0.53730540081E+02  0.18549116940E+02  0.25913245408E+03  0.26533518318E+03  0.47000000000E+01 0. -1.
          5    1    4    4  502    0  0.25823587218E+02 -0.26070665452E+02  0.81132209272E+02  0.89168731264E+02  0.47000000000E+01 0. -1.
         -5    1    4    4    0  502 -0.21764057641E+02  0.41049098640E+02  0.75035977137E+03  0.75181153170E+03  0.47000000000E+01 0. -1.
<mgrwt>
<rscale>  0 0.25290519E+03</rscale>
<asrwt>0</asrwt>
<pdfrwt beam="1">  1       21 0.23657675E+00 0.25290519E+03</pdfrwt>
<pdfrwt beam="2">  1       21 0.15997670E-02 0.25290519E+03</pdfrwt>
<totfact> 0.13641080E+05</totfact>
</mgrwt>
</event>
<event>
 8    1  0.9705063E-006  0.2640384E+03  0.7546771E-02  0.1104741E+00
         21   -1    0    0  504  503  0.00000000000E+00  0.00000000000E+00  0.19903044420E+03  0.19903044420E+03  0.00000000000E+00 0. -1.
         21   -1    0    0  503  504 -0.00000000000E+00 -0.00000000000E+00 -0.87569866756E+02  0.87569866756E+02  0.00000000000E+00 0. -1.
         25    2    1    2    0    0  0.36199285546E+02  0.13286524885E+01  0.79782774730E+02  0.15266271097E+03  0.12501383358E+03 0.  0.
         25    2    1    2    0    0 -0.36199285546E+02 -0.13286524885E+01  0.31677802710E+02  0.13393759998E+03  0.12499457553E+03 0.  0.
          5    1    3    3  501    0  0.60847425305E+02  0.47193779529E+02  0.39555713131E+02  0.86697211223E+02  0.47000000000E+01 0. -1.
         -5    1    3    3    0  501 -0.24648139759E+02 -0.45865127041E+02  0.40227061599E+02  0.65965499748E+02  0.47000000000E+01 0. -1.
          5    1    4    4  502    0 -0.40139742173E+02 -0.59268787954E+02  0.14414760194E+02  0.73170099349E+02  0.47000000000E+01 0.  1.
         -5    1    4    4    0  502  0.39404566270E+01  0.57940135466E+02  0.17263042516E+02  0.60767500632E+02  0.47000000000E+01 0.  1.
<mgrwt>
<rscale>  0 0.26403840E+03</rscale>
<asrwt>0</asrwt>
<pdfrwt beam="1">  1       21 0.30620068E-01 0.26403840E+03</pdfrwt>
<pdfrwt beam="2">  1       21 0.13472287E-01 0.26403840E+03</pdfrwt>
<totfact> 0.48124073E+05</totfact>
</mgrwt>
</event>
<event>
 8    1  0.9705063E-006  0.2964838E+03  0.7546771E-02  0.1087012E+00
         21   -1    0    0  504  503  0.00000000000E+00  0.00000000000E+00  0.21248511903E+03  0.21248511903E+03  0.00000000000E+00 0. -1.
         21   -1    0    0  503  504 -0.00000000000E+00 -0.00000000000E+00 -0.10342213519E+03  0.10342213519E+03  0.00000000000E+00 0. -1.
         25    2    1    2    0    0  0.53453693059E+02  0.50924165813E+02  0.86609804296E+02  0.16904462945E+03  0.12499704229E+03 0.  0.
         25    2    1    2    0    0 -0.53453693059E+02 -0.50924165813E+02  0.22453179541E+02  0.14686262476E+03  0.12495566140E+03 0.  0.
          5    1    3    3  501    0  0.54949301269E+02  0.83081452209E+01  0.10766708896E+03  0.12125486808E+03  0.47000000000E+01 0.  1.
         -5    1    3    3    0  501 -0.14956082099E+01  0.42616020592E+02 -0.21057284663E+02  0.47789761376E+02  0.47000000000E+01 0.  1.
          5    1    4    4  502    0 -0.92655992286E+01 -0.49624113589E+02  0.66938231291E+02  0.83971547484E+02  0.47000000000E+01 0. -1.
         -5    1    4    4    0  502 -0.44188093830E+02 -0.13000522240E+01 -0.44485051750E+02  0.62891077279E+02  0.47000000000E+01 0. -1.
<mgrwt>
<rscale>  0 0.29648383E+03</rscale>
<asrwt>0</asrwt>
<pdfrwt beam="1">  1       21 0.32690018E-01 0.29648383E+03</pdfrwt>
<pdfrwt beam="2">  1       21 0.15911098E-01 0.29648383E+03</pdfrwt>
<totfact> 0.30981385E+05</totfact>
</mgrwt>
</event>
<event>
 8    1  0.9705063E-006  0.2863972E+03  0.7546771E-02  0.1092245E+00
         21   -1    0    0  504  503  0.00000000000E+00  0.00000000000E+00  0.21845289899E+02  0.21845289899E+02  0.00000000000E+00 0. -1.
         21   -1    0    0  503  504 -0.00000000000E+00 -0.00000000000E+00 -0.93868454323E+03  0.93868454323E+03  0.00000000000E+00 0. -1.
         25    2    1    2    0    0 -0.30218608634E+02 -0.38644929318E+02 -0.29158336598E+03  0.32101726085E+03  0.12499851031E+03 0.  0.
         25    2    1    2    0    0  0.30218608634E+02  0.38644929318E+02 -0.62525588735E+03  0.63951257228E+03  0.12499924225E+03 0.  0.
          5    1    3    3  501    0  0.19227459345E+02  0.24986305344E+02 -0.18278640375E+03  0.18554506203E+03  0.47000000000E+01 0. -1.
         -5    1    3    3    0  501 -0.49446067979E+02 -0.63631234662E+02 -0.10879696223E+03  0.13547219882E+03  0.47000000000E+01 0. -1.
          5    1    4    4  502    0  0.38621232609E+02 -0.26851977483E+02 -0.10612402894E+03  0.11617670946E+03  0.47000000000E+01 0.  1.
         -5    1    4    4    0  502 -0.84026239746E+01  0.65496906801E+02 -0.51913185842E+03  0.52333586282E+03  0.47000000000E+01 0.  1.
<mgrwt>
<rscale>  0 0.28639718E+03</rscale>
<asrwt>0</asrwt>
<pdfrwt beam="1">  1       21 0.33608137E-02 0.28639718E+03</pdfrwt>
<pdfrwt beam="2">  1       21 0.14441301E+00 0.28639718E+03</pdfrwt>
<totfact> 0.16717190E+05</totfact>
</mgrwt>
</event>
<event>
 8    1  0.9705063E-006  0.2790900E+03  0.7546771E-02  0.1096187E+00
         21   -1    0    0  504  503  0.00000000000E+00  0.00000000000E+00  0.13297014080E+04  0.13297014080E+04  0.00000000000E+00 0. -1.
         21   -1    0    0  503  504 -0.00000000000E+00 -0.00000000000E+00 -0.14644491395E+02  0.14644491395E+02  0.00000000000E+00 0. -1.
         25    2    1    2    0    0 -0.33474381268E+02  0.51640537966E+02  0.69493498836E+03  0.70876390890E+03  0.12499744458E+03 0.  0.
         25    2    1    2    0    0  0.33474381268E+02 -0.51640537966E+02  0.62012192830E+03  0.63558199055E+03  0.12500392550E+03 0.  0.
          5    1    3    3  501    0  0.44692570522E+02  0.38881518721E+02  0.26657492465E+03  0.27311806753E+03  0.47000000000E+01 0. -1.
         -5    1    3    3    0  501 -0.78166951790E+02  0.12759019245E+02  0.42836006371E+03  0.43564584137E+03  0.47000000000E+01 0. -1.
          5    1    4    4  502    0  0.92684302052E+01 -0.83531620756E+02  0.26179947150E+03  0.27499907044E+03  0.47000000000E+01 0.  1.
         -5    1    4    4    0  502  0.24205951063E+02  0.31891082790E+02  0.35832245679E+03  0.36058292010E+03  0.47000000000E+01 0.  1.
<mgrwt>
<rscale>  0 0.27908996E+03</rscale>
<asrwt>0</asrwt>
<pdfrwt beam="1">  1       21 0.20456935E+00 0.27908996E+03</pdfrwt>
<pdfrwt beam="2">  1       21 0.22529997E-02 0.27908996E+03</pdfrwt>
<totfact> 0.12195876E+05</totfact>
</mgrwt>
</event>
<event>
 8    1  0.9705063E-006  0.2986978E+03  0.7546771E-02  0.1085893E+00
         21   -1    0    0  504  503  0.00000000000E+00  0.00000000000E+00  0.70746870214E+02  0.70746870214E+02  0.00000000000E+00 0. -1.
         21   -1    0    0  503  504 -0.00000000000E+00 -0.00000000000E+00 -0.31528038067E+03  0.31528038067E+03  0.00000000000E+00 0. -1.
         25    2    1    2    0    0 -0.18196377043E+02  0.58269115568E+02 -0.19247514422E+03  0.23749716169E+03  0.12502728782E+03 0.  0.
         25    2    1    2    0    0  0.18196377043E+02 -0.58269115568E+02 -0.52058366232E+02  0.14853008920E+03  0.12499886374E+03 0.  0.
          5    1    3    3  501    0  0.47566969400E+02 -0.39587426883E+01 -0.57128747067E+02  0.74592707170E+02  0.47000000000E+01 0. -1.
         -5    1    3    3    0  501 -0.65763346443E+02  0.62227858256E+02 -0.13534639716E+03  0.16290445452E+03  0.47000000000E+01 0. -1.
          5    1    4    4  502    0  0.52326523600E+02 -0.18569755175E+02 -0.73095292005E+02  0.91912526854E+02  0.47000000000E+01 0. -1.
         -5    1    4    4    0  502 -0.34130146557E+02 -0.39699360392E+02  0.21036925773E+02  0.56617562342E+02  0.47000000000E+01 0. -1.
<mgrwt>
<rscale>  0 0.29869784E+03</rscale>
<asrwt>0</asrwt>
<pdfrwt beam="1">  1       21 0.10884134E-01 0.29869784E+03</pdfrwt>
<pdfrwt beam="2">  1       21 0.48504674E-01 0.29869784E+03</pdfrwt>
<totfact> 0.27624339E+05</totfact>
</mgrwt>
</event>
<event>
 8    1  0.9705063E-006  0.3538935E+03  0.7546771E-02  0.1061028E+00
         21   -1    0    0  504  503  0.00000000000E+00  0.00000000000E+00  0.91478624367E+03  0.91478624367E+03  0.00000000000E+00 0. -1.
         21   -1    0    0  503  504 -0.00000000000E+00 -0.00000000000E+00 -0.34226739457E+02  0.34226739457E+02  0.00000000000E+00 0. -1.
         25    2    1    2    0    0 -0.11997011423E+03 -0.32385012593E+02  0.48206867441E+03  0.51328061393E+03  0.12500065775E+03 0.  0.
         25    2    1    2    0    0  0.11997011423E+03  0.32385012593E+02  0.39849082980E+03  0.43573236920E+03  0.12500455504E+03 0.  0.
          5    1    3    3  501    0  0.18566844608E+02  0.49791734118E+01  0.15538194337E+02  0.25160392879E+02  0.47000000000E+01 0. -1.
         -5    1    3    3    0  501 -0.13853695884E+03 -0.37364186005E+02  0.46653048008E+03  0.48812022105E+03  0.47000000000E+01 0. -1.
          5    1    4    4  502    0  0.24720937335E+02  0.20294059837E+02  0.28575102718E+03  0.28757383946E+03  0.47000000000E+01 0. -1.
         -5    1    4    4    0  502  0.95249176900E+02  0.12090952757E+02  0.11273980262E+03  0.14815852974E+03  0.47000000000E+01 0. -1.
<mgrwt>
<rscale>  0 0.35389349E+03</rscale>
<asrwt>0</asrwt>
<pdfrwt beam="1">  1       21 0.14073633E+00 0.35389349E+03</pdfrwt>
<pdfrwt beam="2">  1       21 0.52656529E-02 0.35389349E+03</pdfrwt>
<totfact> 0.81802328E+04</totfact>
</mgrwt>
</event>
<event>
 8    1  0.9705063E-006  0.3333710E+03  0.7546771E-02  0.1069655E+00
         21   -1    0    0  504  503  0.00000000000E+00  0.00000000000E+00  0.13619357747E+03  0.13619357747E+03  0.00000000000E+00 0.  1.
         21   -1    0    0  503  504 -0.00000000000E+00 -0.00000000000E+00 -0.20400411806E+03  0.20400411806E+03  0.00000000000E+00 0.  1.
         25    2    1    2    0    0 -0.60576576461E+02  0.35992454064E+01 -0.12785919256E+03  0.18882624608E+03  0.12499960760E+03 0.  0.
         25    2    1    2    0    0  0.60576576461E+02 -0.35992454064E+01  0.60048651974E+02  0.15137144945E+03  0.12499999568E+03 0.  0.
          5    1    3    3  501    0 -0.70817608766E+02  0.52782321450E+02 -0.83709487145E+02  0.12178043935E+03  0.47000000000E+01 0.  1.
         -5    1    3    3    0  501  0.10241032305E+02 -0.49183076043E+02 -0.44149705419E+02  0.67045806732E+02  0.47000000000E+01 0.  1.
          5    1    4    4  502    0  0.63950395040E+02 -0.19115742210E+02 -0.19834871365E+02  0.69789517466E+02  0.47000000000E+01 0. -1.
         -5    1    4    4    0  502 -0.33738185786E+01  0.15516496803E+02  0.79883523338E+02  0.81581931981E+02  0.47000000000E+01 0. -1.
<mgrwt>
<rscale>  0 0.33337097E+03</rscale>
<asrwt>0</asrwt>
<pdfrwt beam="1">  1       21 0.20952858E-01 0.33337097E+03</pdfrwt>
<pdfrwt beam="2">  1       21 0.31385249E-01 0.33337097E+03</pdfrwt>
<totfact> 0.19915075E+05</totfact>
</mgrwt>
</event>
<event>
 8    1  0.9705063E-006  0.4093851E+03  0.7546771E-02  0.1040578E+00
         21   -1    0    0  504  503  0.00000000000E+00  0.00000000000E+00  0.27261396046E+03  0.27261396046E+03  0.00000000000E+00 0.  1.
         21   -1    0    0  503  504 -0.00000000000E+00 -0.00000000000E+00 -0.15369368610E+03  0.15369368610E+03  0.00000000000E+00 0.  1.
         25    2    1    2    0    0 -0.38439689558E+02  0.14115506811E+03  0.13213926552E+03  0.23342622919E+03  0.12499862398E+03 0.  0.
         25    2    1    2    0    0  0.38439689558E+02 -0.14115506811E+03 -0.13218991152E+02  0.19288141737E+03  0.12500454573E+03 0.  0.
          5    1    3    3  501    0 -0.45322809871E+02  0.14027758669E+03  0.15204420641E+03  0.21182891475E+03  0.47000000000E+01 0.  1.
         -5    1    3    3    0  501  0.68831203135E+01  0.87748141425E+00 -0.19904940894E+02  0.21597314437E+02  0.47000000000E+01 0.  1.
          5    1    4    4  502    0  0.16309246579E+02  0.21941591858E+02 -0.72203929194E+00  0.27749528248E+02  0.47000000000E+01 0.  1.
         -5    1    4    4    0  502  0.22130442979E+02 -0.16309665996E+03 -0.12496951860E+02  0.16513188912E+03  0.47000000000E+01 0.  1.
<mgrwt>
<rscale>  0 0.40938512E+03</rscale>
<asrwt>0</asrwt>
<pdfrwt beam="1">  1       21 0.41940609E-01 0.40938512E+03</pdfrwt>
<pdfrwt beam="2">  1       21 0.23645182E-01 0.40938512E+03</pdfrwt>
<totfact> 0.86455120E+04</totfact>
</mgrwt>
</event>
<event>
 8    1  0.9705063E-006  0.2822038E+03  0.7546771E-02  0.1094491E+00
         21   -1    0    0  504  503  0.00000000000E+00  0.00000000000E+00  0.10641565080E+02  0.10641565080E+02  0.00000000000E+00 0.  1.
         21   -1    0    0  503  504 -0.00000000000E+00 -0.00000000000E+00 -0.18709415057E+04  0.18709415057E+04  0.00000000000E+00 0.  1.
         25    2    1    2    0    0  0.44070939434E+00  0.28250893237E+02 -0.53638415476E+03  0.55148073969E+03  0.12499895031E+03 0.  0.
         25    2    1    2    0    0 -0.44070939434E+00 -0.28250893237E+02 -0.13239157858E+04  0.13301023311E+04  0.12498358264E+03 0.  0.
          5    1    3    3  501    0 -0.27153667766E+02 -0.24010776413E+02 -0.41276754483E+03  0.41438264337E+03  0.47000000000E+01 0.  1.
         -5    1    3    3    0  501  0.27594377160E+02  0.52261669650E+02 -0.12361660993E+03  0.13709809633E+03  0.47000000000E+01 0.  1.
          5    1    4    4  502    0 -0.53478546386E+02 -0.28640264562E+02 -0.39473113138E+03  0.39939325953E+03  0.47000000000E+01 0.  1.
         -5    1    4    4    0  502  0.53037836991E+02  0.38937132468E+00 -0.92918465446E+03  0.93070907154E+03  0.47000000000E+01 0.  1.
<mgrwt>
<rscale>  0 0.28220380E+03</rscale>
<asrwt>0</asrwt>
<pdfrwt beam="1">  1       21 0.16371641E-02 0.28220380E+03</pdfrwt>
<pdfrwt beam="2">  1       21 0.28783711E+00 0.28220380E+03</pdfrwt>
<totfact> 0.64123179E+04</totfact>
</mgrwt>
</event>
<event>
 8    1  0.9705063E-006  0.3329431E+03  0.7546771E-02  0.1069842E+00
         21   -1    0    0  504  503  0.00000000000E+00  0.00000000000E+00  0.20401541908E+03  0.20401541908E+03  0.00000000000E+00 0.  1.
         21   -1    0    0  503  504 -0.00000000000E+00 -0.00000000000E+00 -0.13583665835E+03  0.13583665835E+03  0.00000000000E+00 0.  1.
         25    2    1    2    0    0  0.11470708541E+02  0.16555737668E+02 -0.76235280010E+02  0.14779289953E+03  0.12500101451E+03 0.  0.
         25    2    1    2    0    0 -0.11470708541E+02 -0.16555737668E+02  0.14441404074E+03  0.19205917790E+03  0.12500257217E+03 0.  0.
          5    1    3    3  501    0  0.26514935475E+02  0.57789246283E+02 -0.49507225885E+01  0.63947153520E+02  0.47000000000E+01 0.  1.
         -5    1    3    3    0  501 -0.15044226934E+02 -0.41233508615E+02 -0.71284557421E+02  0.83845746007E+02  0.47000000000E+01 0.  1.
          5    1    4    4  502    0  0.51025053361E+01 -0.21410317493E+02  0.16399436489E+03  0.16553150447E+03  0.47000000000E+01 0.  1.
         -5    1    4    4    0  502 -0.16573213877E+02  0.48545798258E+01 -0.19580324155E+02  0.26527673429E+02  0.47000000000E+01 0.  1.
<mgrwt>
<rscale>  0 0.33294307E+03</rscale>
<asrwt>0</asrwt>
<pdfrwt beam="1">  1       21 0.31386988E-01 0.33294307E+03</pdfrwt>
<pdfrwt beam="2">  1       21 0.20897947E-01 0.33294307E+03</pdfrwt>
<totfact> 0.20014117E+05</totfact>
</mgrwt>
</event>
<event>
 8    1  0.9705063E-006  0.3088608E+03  0.7546771E-02  0.1080893E+00
         21   -1    0    0  504  503  0.00000000000E+00  0.00000000000E+00  0.42415477853E+02  0.42415477853E+02  0.00000000000E+00 0. -1.
         21   -1    0    0  503  504 -0.00000000000E+00 -0.00000000000E+00 -0.56226525787E+03  0.56226525787E+03  0.00000000000E+00 0. -1.
         25    2    1    2    0    0 -0.22195542708E+02 -0.14917717639E+02 -0.90268748799E+02  0.15648682019E+03  0.12499798985E+03 0.  0.
         25    2    1    2    0    0  0.22195542708E+02  0.14917717639E+02 -0.42958103122E+03  0.44819391554E+03  0.12499097218E+03 0.  0.
          5    1    3    3  501    0 -0.55200964493E+02  0.36037182332E+02 -0.55928958914E+02  0.86579232132E+02  0.47000000000E+01 0. -1.
         -5    1    3    3    0  501  0.33005421785E+02 -0.50954899972E+02 -0.34339789885E+02  0.69907588055E+02  0.47000000000E+01 0. -1.
          5    1    4    4  502    0 -0.49046759177E+02 -0.85545201008E+01 -0.12886094070E+03  0.13822444226E+03  0.47000000000E+01 0.  1.
         -5    1    4    4    0  502  0.71242301885E+02  0.23472237740E+02 -0.30072009052E+03  0.30996947328E+03  0.47000000000E+01 0.  1.
<mgrwt>
<rscale>  0 0.30886081E+03</rscale>
<asrwt>0</asrwt>
<pdfrwt beam="1">  1       21 0.65254584E-02 0.30886081E+03</pdfrwt>
<pdfrwt beam="2">  1       21 0.86502343E-01 0.30886081E+03</pdfrwt>
<totfact> 0.19000606E+05</totfact>
</mgrwt>
</event>
<event>
 8    1  0.9705063E-006  0.3602102E+03  0.7546771E-02  0.1058501E+00
         21   -1    0    0  504  503  0.00000000000E+00  0.00000000000E+00  0.33449519994E+03  0.33449519994E+03  0.00000000000E+00 0. -1.
         21   -1    0    0  503  504 -0.00000000000E+00 -0.00000000000E+00 -0.96975543823E+02  0.96975543823E+02  0.00000000000E+00 0. -1.
         25    2    1    2    0    0  0.72080611519E+02  0.86230027345E+02  0.19621735340E+03  0.25837701933E+03  0.12500480860E+03 0.  0.
         25    2    1    2    0    0 -0.72080611519E+02 -0.86230027345E+02  0.41302302717E+02  0.17309372443E+03  0.12499730019E+03 0.  0.
          5    1    3    3  501    0  0.45848685827E+02 -0.99839049665E+01  0.13073846601E+03  0.13898351285E+03  0.47000000000E+01 0. -1.
         -5    1    3    3    0  501  0.26231925692E+02  0.96213932311E+02  0.65478887393E+02  0.11939350648E+03  0.47000000000E+01 0. -1.
          5    1    4    4  502    0 -0.19310769147E+02 -0.47617666857E+02  0.81304985529E+02  0.96296098954E+02  0.47000000000E+01 0.  1.
         -5    1    4    4    0  502 -0.52769842372E+02 -0.38612360488E+02 -0.40002682812E+02  0.76797625475E+02  0.47000000000E+01 0.  1.
<mgrwt>
<rscale>  0 0.36021024E+03</rscale>
<asrwt>0</asrwt>
<pdfrwt beam="1">  1       21 0.51460799E-01 0.36021024E+03</pdfrwt>
<pdfrwt beam="2">  1       21 0.14919315E-01 0.36021024E+03</pdfrwt>
<totfact> 0.13560413E+05</totfact>
</mgrwt>
</event>
<event>
 8    1  0.9705063E-006  0.3106382E+03  0.7546771E-02  0.1080040E+00
         21   -1    0    0  504  503  0.00000000000E+00  0.00000000000E+00  0.34225326196E+03  0.34225326196E+03  0.00000000000E+00 0.  1.
         21   -1    0    0  503  504 -0.00000000000E+00 -0.00000000000E+00 -0.70485890828E+02  0.70485890828E+02  0.00000000000E+00 0.  1.
         25    2    1    2    0    0  0.87684546916E+02  0.46580147753E+00  0.98115762536E+02  0.18150138224E+03  0.12500900831E+03 0.  0.
         25    2    1    2    0    0 -0.87684546916E+02 -0.46580147753E+00  0.17365160860E+03  0.23123777055E+03  0.12500891416E+03 0.  0.
          5    1    3    3  501    0  0.25026169818E-01  0.35412247748E+02  0.76711976813E+02  0.84621777950E+02  0.47000000000E+01 0. -1.
         -5    1    3    3    0  501  0.87659520746E+02 -0.34946446271E+02  0.21403785723E+02  0.96879604292E+02  0.47000000000E+01 0. -1.
          5    1    4    4  502    0 -0.59795355213E+02  0.13847543841E+02  0.74109089359E+01  0.62002020505E+02  0.47000000000E+01 0. -1.
         -5    1    4    4    0  502 -0.27889191703E+02 -0.14313345318E+02  0.16624069966E+03  0.16923575004E+03  0.47000000000E+01 0. -1.
<mgrwt>
<rscale>  0 0.31063822E+03</rscale>
<asrwt>0</asrwt>
<pdfrwt beam="1">  1       21 0.52654347E-01 0.31063822E+03</pdfrwt>
<pdfrwt beam="2">  1       21 0.10843983E-01 0.31063822E+03</pdfrwt>
<totfact> 0.23324432E+05</totfact>
</mgrwt>
</event>
<event>
 8    1  0.9705063E-006  0.3900108E+03  0.7546771E-02  0.1047295E+00
         21   -1    0    0  504  503  0.00000000000E+00  0.00000000000E+00  0.61716915047E+02  0.61716915047E+02  0.00000000000E+00 0. -1.
         21   -1    0    0  503  504 -0.00000000000E+00 -0.00000000000E+00 -0.61615366838E+03  0.61615366838E+03  0.00000000000E+00 0. -1.
         25    2    1    2    0    0 -0.70396271558E+02 -0.10369922292E+02 -0.48318816458E+02  0.15171286883E+03  0.12497566246E+03 0.  0.
         25    2    1    2    0    0  0.70396271558E+02  0.10369922292E+02 -0.50611793688E+03  0.52615771460E+03  0.12499361689E+03 0.  0.
          5    1    3    3  501    0 -0.91102234582E+02 -0.46074870607E+02 -0.36530361430E+02  0.10853141551E+03  0.47000000000E+01 0.  1.
         -5    1    3    3    0  501  0.20705963024E+02  0.35704948315E+02 -0.11788455028E+02  0.43181453320E+02  0.47000000000E+01 0.  1.
          5    1    4    4  502    0 -0.32413328088E+02 -0.17327482804E+02 -0.11887933680E+03  0.12452008760E+03  0.47000000000E+01 0. -1.
         -5    1    4    4    0  502  0.10280959965E+03  0.27697405096E+02 -0.38723860008E+03  0.40163762700E+03  0.47000000000E+01 0. -1.
<mgrwt>
<rscale>  0 0.39001079E+03</rscale>
<asrwt>0</asrwt>
<pdfrwt beam="1">  1       21 0.94949098E-02 0.39001079E+03</pdfrwt>
<pdfrwt beam="2">  1       21 0.94792874E-01 0.39001079E+03</pdfrwt>
<totfact> 0.77573539E+04</totfact>
</mgrwt>
</event>
<event>
 8    1  0.9705063E-006  0.4523991E+03  0.7546771E-02  0.1027009E+00
         21   -1    0    0  504  503  0.00000000000E+00  0.00000000000E+00  0.29763511927E+03  0.29763511927E+03  0.00000000000E+00 0. -1.
         21   -1    0    0  503  504 -0.00000000000E+00 -0.00000000000E+00 -0.17190923739E+03  0.17190923739E+03  0.00000000000E+00 0. -1.
         25    2    1    2    0    0 -0.83601462473E+02 -0.16812087291E+03  0.80488086069E+02  0.23949380755E+03  0.12500047768E+03 0.  0.
         25    2    1    2    0    0  0.83601462473E+02  0.16812087291E+03  0.45237795809E+02  0.23005054912E+03  0.12499185791E+03 0.  0.
          5    1    3    3  501    0  0.11690001193E+02 -0.90587567431E+01 -0.22504735437E+02  0.27336245513E+02  0.47000000000E+01 0.  1.
         -5    1    3    3    0  501 -0.95291463666E+02 -0.15906211617E+03  0.10299282151E+03  0.21215756203E+03  0.47000000000E+01 0.  1.
          5    1    4    4  502    0 -0.65894860136E+00 -0.11492205743E+02  0.28260503339E+02  0.30874764049E+02  0.47000000000E+01 0.  1.
         -5    1    4    4    0  502  0.84260411075E+02  0.17961307865E+03  0.16977292470E+02  0.19917578507E+03  0.47000000000E+01 0.  1.
<mgrwt>
<rscale>  0 0.45239906E+03</rscale>
<asrwt>0</asrwt>
<pdfrwt beam="1">  1       21 0.45790018E-01 0.45239906E+03</pdfrwt>
<pdfrwt beam="2">  1       21 0.26447575E-01 0.45239906E+03</pdfrwt>
<totfact> 0.57385363E+04</totfact>
</mgrwt>
</event>
<event>
 8    1  0.9705063E-006  0.4586933E+03  0.7546771E-02  0.1025161E+00
         21   -1    0    0  504  503  0.00000000000E+00  0.00000000000E+00  0.49725065085E+03  0.49725065085E+03  0.00000000000E+00 0. -1.
         21   -1    0    0  503  504 -0.00000000000E+00 -0.00000000000E+00 -0.10578144099E+03  0.10578144099E+03  0.00000000000E+00 0. -1.
         25    2    1    2    0    0  0.20156432519E+02  0.82143725195E+02 -0.31293654561E+02  0.15413664257E+03  0.12499975362E+03 0.  0.
         25    2    1    2    0    0 -0.20156432519E+02 -0.82143725195E+02  0.42276286442E+03  0.44889544927E+03  0.12499924595E+03 0.  0.
          5    1    3    3  501    0  0.35340580892E+01  0.10478668137E+03 -0.53706869257E+02  0.11789510577E+03  0.47000000000E+01 0. -1.
         -5    1    3    3    0  501  0.16622374430E+02 -0.22642956177E+02  0.22413214696E+02  0.36241536793E+02  0.47000000000E+01 0. -1.
          5    1    4    4  502    0 -0.22659216860E+02 -0.97532060556E+02  0.18362363807E+03  0.20920246988E+03  0.47000000000E+01 0.  1.
         -5    1    4    4    0  502  0.25027843406E+01  0.15388335361E+02  0.23913922634E+03  0.23969297939E+03  0.47000000000E+01 0.  1.
<mgrwt>
<rscale>  0 0.45869332E+03</rscale>
<asrwt>0</asrwt>
<pdfrwt beam="1">  1       21 0.76500099E-01 0.45869332E+03</pdfrwt>
<pdfrwt beam="2">  1       21 0.16274068E-01 0.45869332E+03</pdfrwt>
<totfact> 0.47122637E+04</totfact>
</mgrwt>
</event>
<event>
 8    1  0.9705063E-006  0.2920117E+03  0.7546771E-02  0.1089303E+00
         21   -1    0    0  504  503  0.00000000000E+00  0.00000000000E+00  0.45271117225E+02  0.45271117225E+02  0.00000000000E+00 0.  1.
         21   -1    0    0  503  504 -0.00000000000E+00 -0.00000000000E+00 -0.47088985685E+03  0.47088985685E+03  0.00000000000E+00 0.  1.
         25    2    1    2    0    0 -0.34294046510E+02  0.48123712211E+02 -0.12990698620E+03  0.18972722053E+03  0.12501447854E+03 0.  0.
         25    2    1    2    0    0  0.34294046510E+02 -0.48123712211E+02 -0.29571175343E+03  0.32643375355E+03  0.12498632340E+03 0.  0.
          5    1    3    3  501    0 -0.76567820860E+02  0.20027596143E+02 -0.46320002467E+02  0.91822483233E+02  0.47000000000E+01 0.  1.
         -5    1    3    3    0  501  0.42273774350E+02  0.28096116067E+02 -0.83586983732E+02  0.97904737298E+02  0.47000000000E+01 0.  1.
          5    1    4    4  502    0  0.10684572636E+02 -0.73316553587E+02 -0.27721473039E+03  0.28698357770E+03  0.47000000000E+01 0.  1.
         -5    1    4    4    0  502  0.23609473874E+02  0.25192841377E+02 -0.18497023035E+02  0.39450175847E+02  0.47000000000E+01 0.  1.
<mgrwt>
<rscale>  0 0.29201171E+03</rscale>
<asrwt>0</asrwt>
<pdfrwt beam="1">  1       21 0.69647875E-02 0.29201171E+03</pdfrwt>
<pdfrwt beam="2">  1       21 0.72444590E-01 0.29201171E+03</pdfrwt>
<totfact> 0.25529457E+05</totfact>
</mgrwt>
</event>
<event>
 8    1  0.9705063E-006  0.2650579E+03  0.7546771E-02  0.1104142E+00
         21   -1    0    0  504  503  0.00000000000E+00  0.00000000000E+00  0.18444656585E+03  0.18444656585E+03  0.00000000000E+00 0. -1.
         21   -1    0    0  503  504 -0.00000000000E+00 -0.00000000000E+00 -0.95225015195E+02  0.95225015195E+02  0.00000000000E+00 0. -1.
         25    2    1    2    0    0 -0.18998212743E+02 -0.20417955294E+02  0.80536257682E+02  0.15129741843E+03  0.12500797990E+03 0.  0.
         25    2    1    2    0    0  0.18998212743E+02  0.20417955294E+02  0.86852929746E+01  0.12837416261E+03  0.12500666513E+03 0.  0.
          5    1    3    3  501    0 -0.49362646415E+02  0.31241442869E+02  0.68228253279E+02  0.89943777768E+02  0.47000000000E+01 0.  1.
         -5    1    3    3    0  501  0.30364433671E+02 -0.51659398163E+02  0.12308004403E+02  0.61353640667E+02  0.47000000000E+01 0.  1.
          5    1    4    4  502    0 -0.36592544816E+02  0.28269315119E+02  0.42235634974E+02  0.62802128746E+02  0.47000000000E+01 0.  1.
         -5    1    4    4    0  502  0.55590757559E+02 -0.78513598255E+01 -0.33550341999E+02  0.65572033866E+02  0.47000000000E+01 0.  1.
<mgrwt>
<rscale>  0 0.26505793E+03</rscale>
<asrwt>0</asrwt>
<pdfrwt beam="1">  1       21 0.28376395E-01 0.26505793E+03</pdfrwt>
<pdfrwt beam="2">  1       21 0.14650002E-01 0.26505793E+03</pdfrwt>
<totfact> 0.47933925E+05</totfact>
</mgrwt>
</event>
<event>
 8    1  0.9705063E-006  0.2905617E+03  0.7546771E-02  0.1090056E+00
         21   -1    0    0  504  503  0.00000000000E+00  0.00000000000E+00  0.42136082379E+02  0.42136082379E+02  0.00000000000E+00 0. -1.
         21   -1    0    0  503  504 -0.00000000000E+00 -0.00000000000E+00 -0.50091323452E+03  0.50091323452E+03  0.00000000000E+00 0. -1.
         25    2    1    2    0    0 -0.40505921917E+02  0.15990528023E+01 -0.11361667637E+03  0.17371714283E+03  0.12500243951E+03 0.  0.
         25    2    1    2    0    0  0.40505921917E+02 -0.15990528023E+01 -0.34516047577E+03  0.36933217407E+03  0.12500885604E+03 0.  0.
          5    1    3    3  501    0  0.15348824447E+02 -0.35151985480E+02 -0.97358675549E+02  0.10474755462E+03  0.47000000000E+01 0. -1.
         -5    1    3    3    0  501 -0.55854746363E+02  0.36751038283E+02 -0.16258000819E+02  0.68969588202E+02  0.47000000000E+01 0. -1.
          5    1    4    4  502    0  0.49404310614E+02 -0.51516971834E+02 -0.26399958653E+03  0.27351902308E+03  0.47000000000E+01 0.  1.
         -5    1    4    4    0  502 -0.88983886975E+01  0.49917919032E+02 -0.81160889238E+02  0.95813150996E+02  0.47000000000E+01 0.  1.
<mgrwt>
<rscale>  0 0.29056167E+03</rscale>
<asrwt>0</asrwt>
<pdfrwt beam="1">  1       21 0.64824741E-02 0.29056167E+03</pdfrwt>
<pdfrwt beam="2">  1       21 0.77063575E-01 0.29056167E+03</pdfrwt>
<totfact> 0.25166972E+05</totfact>
</mgrwt>
</event>
<event>
 8    1  0.9705063E-006  0.3106212E+03  0.7546771E-02  0.1080049E+00
         21   -1    0    0  504  503  0.00000000000E+00  0.00000000000E+00  0.21180177289E+03  0.21180177289E+03  0.00000000000E+00 0. -1.
         21   -1    0    0  503  504 -0.00000000000E+00 -0.00000000000E+00 -0.11388655960E+03  0.11388655960E+03  0.00000000000E+00 0. -1.
         25    2    1    2    0    0  0.23481937054E+00  0.25415769021E+02  0.14186025653E+03  0.19077541686E+03  0.12499964336E+03 0.  0.
         25    2    1    2    0    0 -0.23481937054E+00 -0.25415769021E+02 -0.43945043235E+02  0.13491291564E+03  0.12499724607E+03 0.  0.
          5    1    3    3  501    0  0.57426402797E+02 -0.11151031980E+02  0.76563776312E+02  0.96468850390E+02  0.47000000000E+01 0. -1.
         -5    1    3    3    0  501 -0.57191583426E+02  0.36566801000E+02  0.65296480214E+02  0.94306566466E+02  0.47000000000E+01 0. -1.
          5    1    4    4  502    0 -0.28273027939E+02  0.35617843107E+02 -0.49465848075E+02  0.67356922304E+02  0.47000000000E+01 0.  1.
         -5    1    4    4    0  502  0.28038208568E+02 -0.61033612128E+02  0.55208048403E+01  0.67555993333E+02  0.47000000000E+01 0.  1.
<mgrwt>
<rscale>  0 0.31062115E+03</rscale>
<asrwt>0</asrwt>
<pdfrwt beam="1">  1       21 0.32584888E-01 0.31062115E+03</pdfrwt>
<pdfrwt beam="2">  1       21 0.17521009E-01 0.31062115E+03</pdfrwt>
<totfact> 0.26000949E+05</totfact>
</mgrwt>
</event>
<event>
 8    1  0.9705063E-006  0.6219161E+03  0.7546771E-02  0.9860952E-01
         21   -1    0    0  504  503  0.00000000000E+00  0.00000000000E+00  0.57588674816E+02  0.57588674816E+02  0.00000000000E+00 0. -1.
         21   -1    0    0  503  504 -0.00000000000E+00 -0.00000000000E+00 -0.16790613883E+04  0.16790613883E+04  0.00000000000E+00 0. -1.
         25    2    1    2    0    0 -0.72269198528E+02 -0.26102072864E+03 -0.56545035519E+03  0.63930698517E+03  0.12499863707E+03 0.  0.
         25    2    1    2    0    0  0.72269198528E+02  0.26102072864E+03 -0.10560223583E+04  0.10973430779E+04  0.12499580653E+03 0.  0.
          5    1    3    3  501    0 -0.82991442495E+02 -0.11668867693E+03 -0.36426944299E+03  0.39143089294E+03  0.47000000000E+01 0. -1.
         -5    1    3    3    0  501  0.10722243967E+02 -0.14433205172E+03 -0.20118091220E+03  0.24787609223E+03  0.47000000000E+01 0. -1.
          5    1    4    4  502    0  0.57020722870E+02  0.66997695530E+02 -0.18606922570E+03  0.20587350678E+03  0.47000000000E+01 0.  1.
         -5    1    4    4    0  502  0.15248475658E+02  0.19402303311E+03 -0.86995313259E+03  0.89146957116E+03  0.47000000000E+01 0.  1.
<mgrwt>
<rscale>  0 0.62191614E+03</rscale>
<asrwt>0</asrwt>
<pdfrwt beam="1">  1       21 0.88597988E-02 0.62191614E+03</pdfrwt>
<pdfrwt beam="2">  1       21 0.25831706E+00 0.62191614E+03</pdfrwt>
<totfact> 0.47313195E+03</totfact>
</mgrwt>
</event>
<event>
 8    1  0.9705063E-006  0.3045667E+03  0.7546771E-02  0.1082980E+00
         21   -1    0    0  504  503  0.00000000000E+00  0.00000000000E+00  0.18279589185E+03  0.18279589185E+03  0.00000000000E+00 0. -1.
         21   -1    0    0  503  504 -0.00000000000E+00 -0.00000000000E+00 -0.12686401537E+03  0.12686401537E+03  0.00000000000E+00 0. -1.
         25    2    1    2    0    0  0.44147572550E+02  0.72958001359E+02  0.10483986704E+02  0.15166942827E+03  0.12498729283E+03 0.  0.
         25    2    1    2    0    0 -0.44147572550E+02 -0.72958001359E+02  0.45447889777E+02  0.15799047895E+03  0.12499441039E+03 0.  0.
          5    1    3    3  501    0  0.64800452087E+02 -0.91664724365E+01  0.12684578188E+02  0.66828970749E+02  0.47000000000E+01 0.  1.
         -5    1    3    3    0  501 -0.20652879537E+02  0.82124473796E+02 -0.22005914838E+01  0.84840457520E+02  0.47000000000E+01 0.  1.
          5    1    4    4  502    0 -0.69982005855E+02  0.33010063644E+01  0.27180455859E+02  0.75294388683E+02  0.47000000000E+01 0. -1.
         -5    1    4    4    0  502  0.25834433305E+02 -0.76259007724E+02  0.18267433918E+02  0.82696090265E+02  0.47000000000E+01 0. -1.
<mgrwt>
<rscale>  0 0.30456671E+03</rscale>
<asrwt>0</asrwt>
<pdfrwt beam="1">  1       21 0.28122445E-01 0.30456671E+03</pdfrwt>
<pdfrwt beam="2">  1       21 0.19517541E-01 0.30456671E+03</pdfrwt>
<totfact> 0.28435732E+05</totfact>
</mgrwt>
</event>
<event>
 8    1  0.9705063E-006  0.2790460E+03  0.7546771E-02  0.1096211E+00
         21   -1    0    0  504  503  0.00000000000E+00  0.00000000000E+00  0.25777968085E+02  0.25777968085E+02  0.00000000000E+00 0.  1.
         21   -1    0    0  503  504 -0.00000000000E+00 -0.00000000000E+00 -0.75516666919E+03  0.75516666919E+03  0.00000000000E+00 0.  1.
         25    2    1    2    0    0  0.93817980837E+01  0.60412259241E+02 -0.39327734880E+03  0.41716797793E+03  0.12499755809E+03 0.  0.
         25    2    1    2    0    0 -0.93817980837E+01 -0.60412259241E+02 -0.33611135231E+03  0.36377665935E+03  0.12499983014E+03 0.  0.
          5    1    3    3  501    0 -0.27292017969E+02  0.76231840152E+02 -0.34465305054E+03  0.35406773779E+03  0.47000000000E+01 0.  1.
         -5    1    3    3    0  501  0.36673816053E+02 -0.15819580910E+02 -0.48624298257E+02  0.63100240135E+02  0.47000000000E+01 0.  1.
          5    1    4    4  502    0 -0.42344897904E+02 -0.86042653759E+02 -0.25394812941E+03  0.27149248806E+03  0.47000000000E+01 0. -1.
         -5    1    4    4    0  502  0.32963099820E+02  0.25630394517E+02 -0.82163222903E+02  0.92284171290E+02  0.47000000000E+01 0. -1.
<mgrwt>
<rscale>  0 0.27904596E+03</rscale>
<asrwt>0</asrwt>
<pdfrwt beam="1">  1       21 0.39658417E-02 0.27904596E+03</pdfrwt>
<pdfrwt beam="2">  1       21 0.11617947E+00 0.27904596E+03</pdfrwt>
<totfact> 0.22121243E+05</totfact>
</mgrwt>
</event>
<event>
 8    1  0.9705063E-006  0.3917501E+03  0.7546771E-02  0.1046674E+00
         21   -1    0    0  504  503  0.00000000000E+00  0.00000000000E+00  0.56429039287E+02  0.56429039287E+02  0.00000000000E+00 0.  1.
         21   -1    0    0  503  504 -0.00000000000E+00 -0.00000000000E+00 -0.67991662227E+03  0.67991662227E+03  0.00000000000E+00 0.  1.
         25    2    1    2    0    0  0.96793622724E+01  0.11256659079E+03 -0.12399300694E+03  0.20919833626E+03  0.12499900283E+03 0.  0.
         25    2    1    2    0    0 -0.96793622724E+01 -0.11256659079E+03 -0.49949457605E+03  0.52714732530E+03  0.12499817459E+03 0.  0.
          5    1    3    3  501    0 -0.55116325973E+02  0.35246633145E+02 -0.64478577224E+02  0.91976689752E+02  0.47000000000E+01 0.  1.
         -5    1    3    3    0  501  0.64795688246E+02  0.77319957649E+02 -0.59514429713E+02  0.11722164651E+03  0.47000000000E+01 0.  1.
          5    1    4    4  502    0 -0.41327758083E+02 -0.36235192438E+02 -0.66918705466E+02  0.86724713320E+02  0.47000000000E+01 0. -1.
         -5    1    4    4    0  502  0.31648395811E+02 -0.76331398356E+02 -0.43257587058E+03  0.44042261198E+03  0.47000000000E+01 0. -1.
<mgrwt>
<rscale>  0 0.39175013E+03</rscale>
<asrwt>0</asrwt>
<pdfrwt beam="1">  1       21 0.86813907E-02 0.39175013E+03</pdfrwt>
<pdfrwt beam="2">  1       21 0.10460256E+00 0.39175013E+03</pdfrwt>
<totfact> 0.71685524E+04</totfact>
</mgrwt>
</event>
<event>
 8    1  0.9705063E-006  0.3525770E+03  0.7546771E-02  0.1061562E+00
         21   -1    0    0  504  503  0.00000000000E+00  0.00000000000E+00  0.12167890319E+04  0.12167890319E+04  0.00000000000E+00 0.  1.
         21   -1    0    0  503  504 -0.00000000000E+00 -0.00000000000E+00 -0.25540696926E+02  0.25540696926E+02  0.00000000000E+00 0.  1.
         25    2    1    2    0    0 -0.64765290635E+02 -0.29585245042E+01  0.22191431801E+03  0.26282115149E+03  0.12500278954E+03 0.  0.
         25    2    1    2    0    0  0.64765290635E+02  0.29585245042E+01  0.96933401701E+03  0.97950857738E+03  0.12500128360E+03 0.  0.
          5    1    3    3  501    0 -0.70870681026E+02 -0.22577662801E+01  0.41604574996E+02  0.82345501385E+02  0.47000000000E+01 0.  1.
         -5    1    3    3    0  501  0.61053903913E+01 -0.70075822407E+00  0.18030974301E+03  0.18047565010E+03  0.47000000000E+01 0.  1.
          5    1    4    4  502    0  0.83052187324E+02 -0.82003436153E+01  0.35213349805E+03  0.36191850174E+03  0.47000000000E+01 0. -1.
         -5    1    4    4    0  502 -0.18286896689E+02  0.11158868120E+02  0.61720051896E+03  0.61759007564E+03  0.47000000000E+01 0. -1.
<mgrwt>
<rscale>  0 0.35257703E+03</rscale>
<asrwt>0</asrwt>
<pdfrwt beam="1">  1       21 0.18719827E+00 0.35257703E+03</pdfrwt>
<pdfrwt beam="2">  1       21 0.39293389E-02 0.35257703E+03</pdfrwt>
<totfact> 0.61066311E+04</totfact>
</mgrwt>
</event>
<event>
 8    1  0.9705063E-006  0.3460797E+03  0.7546771E-02  0.1064236E+00
         21   -1    0    0  504  503  0.00000000000E+00  0.00000000000E+00  0.35364830507E+03  0.35364830507E+03  0.00000000000E+00 0.  1.
         21   -1    0    0  503  504 -0.00000000000E+00 -0.00000000000E+00 -0.84668261086E+02  0.84668261086E+02  0.00000000000E+00 0.  1.
         25    2    1    2    0    0  0.31659184564E+02 -0.11184847631E+03  0.98537274008E+02  0.19709598777E+03  0.12499939362E+03 0.  0.
         25    2    1    2    0    0 -0.31659184564E+02  0.11184847631E+03  0.17044276997E+03  0.24122057838E+03  0.12499697588E+03 0.  0.
          5    1    3    3  501    0  0.58710666622E+02 -0.87894293929E+02  0.16174154106E+02  0.10703290401E+03  0.47000000000E+01 0. -1.
         -5    1    3    3    0  501 -0.27051482058E+02 -0.23954182384E+02  0.82363119902E+02  0.90063083754E+02  0.47000000000E+01 0. -1.
          5    1    4    4  502    0 -0.60039071531E+02  0.12469669276E+03  0.14697940702E+03  0.20193808800E+03  0.47000000000E+01 0. -1.
         -5    1    4    4    0  502  0.28379886967E+02 -0.12848216445E+02  0.23463362949E+02  0.39282490387E+02  0.47000000000E+01 0. -1.
<mgrwt>
<rscale>  0 0.34607968E+03</rscale>
<asrwt>0</asrwt>
<pdfrwt beam="1">  1       21 0.54407431E-01 0.34607968E+03</pdfrwt>
<pdfrwt beam="2">  1       21 0.13025887E-01 0.34607968E+03</pdfrwt>
<totfact> 0.15493331E+05</totfact>
</mgrwt>
</event>
<event>
 8    1  0.9705063E-006  0.4426872E+03  0.7546771E-02  0.1029926E+00
         21   -1    0    0  504  503  0.00000000000E+00  0.00000000000E+00  0.13023433663E+04  0.13023433663E+04  0.00000000000E+00 0.  1.
         21   -1    0    0  503  504 -0.00000000000E+00 -0.00000000000E+00 -0.37619101806E+02  0.37619101806E+02  0.00000000000E+00 0.  1.
         25    2    1    2    0    0 -0.16429764929E+03  0.38674008837E+02  0.42094907227E+03  0.47043826928E+03  0.12499858894E+03 0.  0.
         25    2    1    2    0    0  0.16429764929E+03 -0.38674008837E+02  0.84377519221E+03  0.86952419881E+03  0.12500544313E+03 0.  0.
          5    1    3    3  501    0 -0.96353579072E+01  0.18792696847E+02  0.13348284153E+00  0.21635928324E+02  0.47000000000E+01 0.  1.
         -5    1    3    3    0  501 -0.15466229138E+03  0.19881311990E+02  0.42081558943E+03  0.44880234096E+03  0.47000000000E+01 0.  1.
          5    1    4    4  502    0  0.19051572089E+02  0.15263421271E+02  0.37421994495E+03  0.37504478616E+03  0.47000000000E+01 0.  1.
         -5    1    4    4    0  502  0.14524607720E+03 -0.53937430107E+02  0.46955524726E+03  0.49447941266E+03  0.47000000000E+01 0.  1.
<mgrwt>
<rscale>  0 0.44268719E+03</rscale>
<asrwt>0</asrwt>
<pdfrwt beam="1">  1       21 0.20036048E+00 0.44268719E+03</pdfrwt>
<pdfrwt beam="2">  1       21 0.57875551E-02 0.44268719E+03</pdfrwt>
<totfact> 0.24848140E+04</totfact>
</mgrwt>
</event>
<event>
 8    1  0.9705063E-006  0.3106224E+03  0.7546771E-02  0.1080048E+00
         21   -1    0    0  504  503  0.00000000000E+00  0.00000000000E+00  0.18232178045E+03  0.18232178045E+03  0.00000000000E+00 0.  1.
         21   -1    0    0  503  504 -0.00000000000E+00 -0.00000000000E+00 -0.13230219105E+03  0.13230219105E+03  0.00000000000E+00 0.  1.
         25    2    1    2    0    0 -0.39390547488E+02  0.51739362604E+02 -0.41160711034E+02  0.14679039108E+03  0.12499855161E+03 0.  0.
         25    2    1    2    0    0  0.39390547488E+02 -0.51739362604E+02  0.91180300429E+02  0.16783358043E+03  0.12500274660E+03 0.  0.
          5    1    3    3  501    0 -0.59252501820E+02  0.80824898645E+02 -0.46983740510E+02  0.11078395680E+03  0.47000000000E+01 0.  1.
         -5    1    3    3    0  501  0.19861954332E+02 -0.29085536041E+02  0.58230294760E+01  0.36006434272E+02  0.47000000000E+01 0.  1.
          5    1    4    4  502    0 -0.37809857542E+02 -0.47355581961E+02  0.56399776015E+02  0.82916591854E+02  0.47000000000E+01 0.  1.
         -5    1    4    4    0  502  0.77200405030E+02 -0.43837806439E+01  0.34780524414E+02  0.84916988571E+02  0.47000000000E+01 0.  1.
<mgrwt>
<rscale>  0 0.31062241E+03</rscale>
<asrwt>0</asrwt>
<pdfrwt beam="1">  1       21 0.28049505E-01 0.31062241E+03</pdfrwt>
<pdfrwt beam="2">  1       21 0.20354183E-01 0.31062241E+03</pdfrwt>
<totfact> 0.26372496E+05</totfact>
</mgrwt>
</event>
<event>
 8    1  0.9705063E-006  0.2902653E+03  0.7546771E-02  0.1090211E+00
         21   -1    0    0  504  503  0.00000000000E+00  0.00000000000E+00  0.73560847654E+01  0.73560847654E+01  0.00000000000E+00 0.  1.
         21   -1    0    0  503  504 -0.00000000000E+00 -0.00000000000E+00 -0.28634090334E+04  0.28634090334E+04  0.00000000000E+00 0.  1.
         25    2    1    2    0    0  0.27061781222E+02 -0.67394961620E+02 -0.15550158049E+04  0.15617204489E+04  0.12498874453E+03 0.  0.
         25    2    1    2    0    0 -0.27061781222E+02  0.67394961620E+02 -0.13010371437E+04  0.13090446692E+04  0.12500350324E+03 0.  0.
          5    1    3    3  501    0 -0.29458556240E+02 -0.69255875654E+02 -0.11830774880E+04  0.11854782223E+04  0.47000000000E+01 0.  1.
         -5    1    3    3    0  501  0.56520337462E+02  0.18609140335E+01 -0.37193831687E+03  0.37624222664E+03  0.47000000000E+01 0.  1.
          5    1    4    4  502    0 -0.36090454683E+02  0.15721289410E+02 -0.11143649599E+03  0.11827874914E+03  0.47000000000E+01 0. -1.
         -5    1    4    4    0  502  0.90286734617E+01  0.51673672211E+02 -0.11896006477E+04  0.11907659200E+04  0.47000000000E+01 0. -1.
<mgrwt>
<rscale>  0 0.29026526E+03</rscale>
<asrwt>0</asrwt>
<pdfrwt beam="1">  1       21 0.11317053E-02 0.29026526E+03</pdfrwt>
<pdfrwt beam="2">  1       21 0.44052448E+00 0.29026526E+03</pdfrwt>
<totfact> 0.13365210E+04</totfact>
</mgrwt>
</event>
<event>
 8    1  0.9705063E-006  0.4474554E+03  0.7546771E-02  0.1028484E+00
         21   -1    0    0  504  503  0.00000000000E+00  0.00000000000E+00  0.21036662369E+03  0.21036662369E+03  0.00000000000E+00 0. -1.
         21   -1    0    0  503  504 -0.00000000000E+00 -0.00000000000E+00 -0.23793737931E+03  0.23793737931E+03  0.00000000000E+00 0. -1.
         25    2    1    2    0    0  0.14625968590E+03 -0.24720816615E+02  0.97908965874E+02  0.21727011073E+03  0.12496847972E+03 0.  0.
         25    2    1    2    0    0 -0.14625968590E+03  0.24720816615E+02 -0.12547972149E+03  0.23103389227E+03  0.12501393672E+03 0.  0.
          5    1    3    3  501    0  0.15489284953E+03 -0.43887746220E+02  0.56658750334E+02  0.17073439341E+03  0.47000000000E+01 0. -1.
         -5    1    3    3    0  501 -0.86331636249E+01  0.19166929605E+02  0.41250215541E+02  0.46535717324E+02  0.47000000000E+01 0. -1.
          5    1    4    4  502    0  0.18216673563E+02 -0.53307318957E+01 -0.36901781979E+02  0.41762368366E+02  0.47000000000E+01 0. -1.
         -5    1    4    4    0  502 -0.16447635947E+03  0.30051548511E+02 -0.88577939513E+02  0.18927152390E+03  0.47000000000E+01 0. -1.
<mgrwt>
<rscale>  0 0.44745540E+03</rscale>
<asrwt>0</asrwt>
<pdfrwt beam="1">  1       21 0.32364096E-01 0.44745540E+03</pdfrwt>
<pdfrwt beam="2">  1       21 0.36605751E-01 0.44745540E+03</pdfrwt>
<totfact> 0.61165173E+04</totfact>
</mgrwt>
</event>
<event>
 8    1  0.9705063E-006  0.4155078E+03  0.7546771E-02  0.1038538E+00
         21   -1    0    0  504  503  0.00000000000E+00  0.00000000000E+00  0.37247461252E+02  0.37247461252E+02  0.00000000000E+00 0. -1.
         21   -1    0    0  503  504 -0.00000000000E+00 -0.00000000000E+00 -0.11587817095E+04  0.11587817095E+04  0.00000000000E+00 0. -1.
         25    2    1    2    0    0  0.11444062268E+03  0.22004674758E+02 -0.90081995264E+03  0.91688724424E+03  0.12499907900E+03 0.  0.
         25    2    1    2    0    0 -0.11444062268E+03 -0.22004674758E+02 -0.22071429565E+03  0.27914192655E+03  0.12499821209E+03 0.  0.
          5    1    3    3  501    0  0.14149744130E+03  0.17134101695E+02 -0.77521555362E+03  0.78822353930E+03  0.47000000000E+01 0. -1.
         -5    1    3    3    0  501 -0.27056818621E+02  0.48705730624E+01 -0.12560439902E+03  0.12866370494E+03  0.47000000000E+01 0. -1.
          5    1    4    4  502    0 -0.31039714227E+02  0.31978905119E+02 -0.15145142684E+03  0.15794220121E+03  0.47000000000E+01 0. -1.
         -5    1    4    4    0  502 -0.83400908452E+02 -0.53983579877E+02 -0.69262868812E+02  0.12119972534E+03  0.47000000000E+01 0. -1.
<mgrwt>
<rscale>  0 0.41550777E+03</rscale>
<asrwt>0</asrwt>
<pdfrwt beam="1">  1       21 0.57303783E-02 0.41550777E+03</pdfrwt>
<pdfrwt beam="2">  1       21 0.17827412E+00 0.41550777E+03</pdfrwt>
<totfact> 0.36120706E+04</totfact>
</mgrwt>
</event>
<event>
 8    1  0.9705063E-006  0.4576135E+03  0.7546771E-02  0.1025476E+00
         21   -1    0    0  504  503  0.00000000000E+00  0.00000000000E+00  0.33419063723E+03  0.33419063723E+03  0.00000000000E+00 0.  1.
         21   -1    0    0  503  504 -0.00000000000E+00 -0.00000000000E+00 -0.15665466750E+03  0.15665466750E+03  0.00000000000E+00 0.  1.
         25    2    1    2    0    0 -0.83591768157E+02 -0.55317094495E+02  0.26398501907E+03  0.30878035847E+03  0.12493860428E+03 0.  0.
         25    2    1    2    0    0  0.83591768157E+02  0.55317094495E+02 -0.86449049347E+02  0.18206494625E+03  0.12500656732E+03 0.  0.
          5    1    3    3  501    0 -0.29283977706E+02 -0.83298699374E+02  0.20704293832E+03  0.22513350034E+03  0.47000000000E+01 0.  1.
         -5    1    3    3    0  501 -0.54307790451E+02  0.27981604879E+02  0.56942080751E+02  0.83646858133E+02  0.47000000000E+01 0.  1.
          5    1    4    4  502    0 -0.13122892198E+02  0.14976508179E+01 -0.68402047159E+02  0.69823945127E+02  0.47000000000E+01 0.  1.
         -5    1    4    4    0  502  0.96714660355E+02  0.53819443677E+02 -0.18047002188E+02  0.11224100112E+03  0.47000000000E+01 0.  1.
<mgrwt>
<rscale>  0 0.45761348E+03</rscale>
<asrwt>0</asrwt>
<pdfrwt beam="1">  1       21 0.51413944E-01 0.45761348E+03</pdfrwt>
<pdfrwt beam="2">  1       21 0.24100718E-01 0.45761348E+03</pdfrwt>
<totfact> 0.53749639E+04</totfact>
</mgrwt>
</event>
<event>
 8    1  0.9705063E-006  0.3475324E+03  0.7546771E-02  0.1063632E+00
         21   -1    0    0  504  503  0.00000000000E+00  0.00000000000E+00  0.54014782959E+03  0.54014782959E+03  0.00000000000E+00 0.  1.
         21   -1    0    0  503  504 -0.00000000000E+00 -0.00000000000E+00 -0.55900803608E+02  0.55900803608E+02  0.00000000000E+00 0.  1.
         25    2    1    2    0    0 -0.11324965908E+03 -0.26025477103E+02  0.29813374143E+03  0.34352818328E+03  0.12500029674E+03 0.  0.
         25    2    1    2    0    0  0.11324965908E+03  0.26025477103E+02  0.18611328455E+03  0.25252044992E+03  0.12500244878E+03 0.  0.
          5    1    3    3  501    0 -0.11044434940E+03  0.10751241153E+02  0.12840616048E+03  0.16977566242E+03  0.47000000000E+01 0.  1.
         -5    1    3    3    0  501 -0.28053096803E+01 -0.36776718256E+02  0.16972758096E+03  0.17375252086E+03  0.47000000000E+01 0.  1.
          5    1    4    4  502    0  0.13241597421E+03  0.47519565678E+02  0.16245356278E+03  0.21495429609E+03  0.47000000000E+01 0. -1.
         -5    1    4    4    0  502 -0.19166315129E+02 -0.21494088575E+02  0.23659721768E+02  0.37566153828E+02  0.47000000000E+01 0. -1.
<mgrwt>
<rscale>  0 0.34753243E+03</rscale>
<asrwt>0</asrwt>
<pdfrwt beam="1">  1       21 0.83099662E-01 0.34753243E+03</pdfrwt>
<pdfrwt beam="2">  1       21 0.86001240E-02 0.34753243E+03</pdfrwt>
<totfact> 0.12732558E+05</totfact>
</mgrwt>
</event>
<event>
 8    1  0.9705063E-006  0.2689493E+03  0.7546771E-02  0.1101882E+00
         21   -1    0    0  504  503  0.00000000000E+00  0.00000000000E+00  0.31067448245E+03  0.31067448245E+03  0.00000000000E+00 0.  1.
         21   -1    0    0  503  504 -0.00000000000E+00 -0.00000000000E+00 -0.58207017806E+02  0.58207017806E+02  0.00000000000E+00 0.  1.
         25    2    1    2    0    0 -0.58716117709E+01  0.24242105186E+02  0.67459837848E+02  0.14421277804E+03  0.12499736053E+03 0.  0.
         25    2    1    2    0    0  0.58716117709E+01 -0.24242105186E+02  0.18500762680E+03  0.22466872222E+03  0.12500422906E+03 0.  0.
          5    1    3    3  501    0 -0.17364466876E+02 -0.11480004236E+02 -0.31627460118E+02  0.38153655666E+02  0.47000000000E+01 0. -1.
         -5    1    3    3    0  501  0.11492855105E+02  0.35722109422E+02  0.99087297967E+02  0.10605912237E+03  0.47000000000E+01 0. -1.
          5    1    4    4  502    0 -0.54365793998E+02 -0.35974006983E+02  0.10577118511E+03  0.12433584494E+03  0.47000000000E+01 0.  1.
         -5    1    4    4    0  502  0.60237405769E+02  0.11731901797E+02  0.79236441685E+02  0.10033287729E+03  0.47000000000E+01 0.  1.
<mgrwt>
<rscale>  0 0.26894933E+03</rscale>
<asrwt>0</asrwt>
<pdfrwt beam="1">  1       21 0.47796073E-01 0.26894933E+03</pdfrwt>
<pdfrwt beam="2">  1       21 0.89549260E-02 0.26894933E+03</pdfrwt>
<totfact> 0.40559799E+05</totfact>
</mgrwt>
</event>
<event>
 8    1  0.9705063E-006  0.2891312E+03  0.7546771E-02  0.1090804E+00
         21   -1    0    0  504  503  0.00000000000E+00  0.00000000000E+00  0.40542819201E+03  0.40542819201E+03  0.00000000000E+00 0.  1.
         21   -1    0    0  503  504 -0.00000000000E+00 -0.00000000000E+00 -0.51548497989E+02  0.51548497989E+02  0.00000000000E+00 0.  1.
         25    2    1    2    0    0  0.29069981422E+02 -0.39578679770E+02  0.26150397022E+03  0.29397587225E+03  0.12500380519E+03 0.  0.
         25    2    1    2    0    0 -0.29069981422E+02  0.39578679770E+02  0.92375723802E+02  0.16300081775E+03  0.12499782609E+03 0.  0.
          5    1    3    3  501    0  0.55467339482E+02 -0.62904365910E+02  0.23523558378E+03  0.24978281541E+03  0.47000000000E+01 0.  1.
         -5    1    3    3    0  501 -0.26397358059E+02  0.23325686140E+02  0.26268386442E+02  0.44193056838E+02  0.47000000000E+01 0.  1.
          5    1    4    4  502    0 -0.69845689706E+02  0.82180782980E+01  0.18525662266E+02  0.72878305028E+02  0.47000000000E+01 0. -1.
         -5    1    4    4    0  502  0.40775708283E+02  0.31360601472E+02  0.73850061536E+02  0.90122512723E+02  0.47000000000E+01 0. -1.
<mgrwt>
<rscale>  0 0.28913121E+03</rscale>
<asrwt>0</asrwt>
<pdfrwt beam="1">  1       21 0.62373566E-01 0.28913121E+03</pdfrwt>
<pdfrwt beam="2">  1       21 0.79305384E-02 0.28913121E+03</pdfrwt>
<totfact> 0.28347208E+05</totfact>
</mgrwt>
</event>
<event>
 8    1  0.9705063E-006  0.3156598E+03  0.7546771E-02  0.1077664E+00
         21   -1    0    0  504  503  0.00000000000E+00  0.00000000000E+00  0.35923173361E+02  0.35923173361E+02  0.00000000000E+00 0. -1.
         21   -1    0    0  503  504 -0.00000000000E+00 -0.00000000000E+00 -0.69343202255E+03  0.69343202255E+03  0.00000000000E+00 0. -1.
         25    2    1    2    0    0 -0.13884005573E+02 -0.93533659486E+02 -0.28620376198E+03  0.32632277141E+03  0.12503058306E+03 0.  0.
         25    2    1    2    0    0  0.13884005573E+02  0.93533659486E+02 -0.37130508721E+03  0.40303242450E+03  0.12500542527E+03 0.  0.
          5    1    3    3  501    0  0.19293664254E+02  0.25697792018E+02 -0.69776649178E+02  0.76964230429E+02  0.47000000000E+01 0. -1.
         -5    1    3    3    0  501 -0.33177669827E+02 -0.11923145150E+03 -0.21642711281E+03  0.24935854098E+03  0.47000000000E+01 0. -1.
          5    1    4    4  502    0  0.54427978132E+02  0.74198223690E+02 -0.32712168872E+03  0.33985065902E+03  0.47000000000E+01 0.  1.
         -5    1    4    4    0  502 -0.40543972559E+02  0.19335435796E+02 -0.44183398486E+02  0.63181765487E+02  0.47000000000E+01 0.  1.
<mgrwt>
<rscale>  0 0.31565981E+03</rscale>
<asrwt>0</asrwt>
<pdfrwt beam="1">  1       21 0.55266421E-02 0.31565981E+03</pdfrwt>
<pdfrwt beam="2">  1       21 0.10668185E+00 0.31565981E+03</pdfrwt>
<totfact> 0.15340473E+05</totfact>
</mgrwt>
</event>
<event>
 8    1  0.9705063E-006  0.2592466E+03  0.7546771E-02  0.1107597E+00
         21   -1    0    0  504  503  0.00000000000E+00  0.00000000000E+00  0.14230370269E+03  0.14230370269E+03  0.00000000000E+00 0. -1.
         21   -1    0    0  503  504 -0.00000000000E+00 -0.00000000000E+00 -0.11807283932E+03  0.11807283932E+03  0.00000000000E+00 0. -1.
         25    2    1    2    0    0  0.13046161326E+02 -0.31617186127E+02  0.92865318379E+01  0.12992397696E+03  0.12499660528E+03 0.  0.
         25    2    1    2    0    0 -0.13046161326E+02  0.31617186127E+02  0.14944331529E+02  0.13045256505E+03  0.12499875959E+03 0.  0.
          5    1    3    3  501    0 -0.33812669073E+02  0.32059301399E+02  0.18159819896E+02  0.50229119589E+02  0.47000000000E+01 0. -1.
         -5    1    3    3    0  501  0.46858830399E+02 -0.63676487527E+02 -0.88732880585E+01  0.79694857369E+02  0.47000000000E+01 0. -1.
          5    1    4    4  502    0  0.41165720989E+02  0.29388241928E+02 -0.30734281865E+02  0.59371469831E+02  0.47000000000E+01 0. -1.
         -5    1    4    4    0  502 -0.54211882315E+02  0.22289441997E+01  0.45678613393E+02  0.71081095222E+02  0.47000000000E+01 0. -1.
<mgrwt>
<rscale>  0 0.25924662E+03</rscale>
<asrwt>0</asrwt>
<pdfrwt beam="1">  1       21 0.21892877E-01 0.25924662E+03</pdfrwt>
<pdfrwt beam="2">  1       21 0.18165052E-01 0.25924662E+03</pdfrwt>
<totfact> 0.53117366E+05</totfact>
</mgrwt>
</event>
<event>
 8    1  0.9705063E-006  0.2631696E+03  0.7546771E-02  0.1105254E+00
         21   -1    0    0  504  503  0.00000000000E+00  0.00000000000E+00  0.10683639044E+03  0.10683639044E+03  0.00000000000E+00 0.  1.
         21   -1    0    0  503  504 -0.00000000000E+00 -0.00000000000E+00 -0.16206618118E+03  0.16206618118E+03  0.00000000000E+00 0.  1.
         25    2    1    2    0    0  0.20680150023E+02  0.98997843288E+01  0.72323152954E+01  0.12729647049E+03  0.12500564260E+03 0.  0.
         25    2    1    2    0    0 -0.20680150023E+02 -0.98997843288E+01 -0.62462106029E+02  0.14160610112E+03  0.12500039540E+03 0.  0.
          5    1    3    3  501    0 -0.10457614539E+02  0.35607974632E+02  0.53770838725E+02  0.65503302638E+02  0.47000000000E+01 0.  1.
         -5    1    3    3    0  501  0.31137764563E+02 -0.25708190304E+02 -0.46538523430E+02  0.61793167856E+02  0.47000000000E+01 0.  1.
          5    1    4    4  502    0 -0.69505922467E+02 -0.26328629250E+02 -0.44975231979E+02  0.87000755559E+02  0.47000000000E+01 0. -1.
         -5    1    4    4    0  502  0.48825772444E+02  0.16428844922E+02 -0.17486874049E+02  0.54605345564E+02  0.47000000000E+01 0. -1.
<mgrwt>
<rscale>  0 0.26316965E+03</rscale>
<asrwt>0</asrwt>
<pdfrwt beam="1">  1       21 0.16436368E-01 0.26316965E+03</pdfrwt>
<pdfrwt beam="2">  1       21 0.24933258E-01 0.26316965E+03</pdfrwt>
<totfact> 0.49851044E+05</totfact>
</mgrwt>
</event>
<event>
 8    1  0.9705063E-006  0.2747616E+03  0.7546771E-02  0.1098585E+00
         21   -1    0    0  504  503  0.00000000000E+00  0.00000000000E+00  0.86821679287E+02  0.86821679287E+02  0.00000000000E+00 0. -1.
         21   -1    0    0  503  504 -0.00000000000E+00 -0.00000000000E+00 -0.21738211113E+03  0.21738211113E+03  0.00000000000E+00 0. -1.
         25    2    1    2    0    0  0.47386747606E+02 -0.75492704698E+01 -0.31216261497E+02  0.13748064430E+03  0.12499590890E+03 0.  0.
         25    2    1    2    0    0 -0.47386747606E+02  0.75492704698E+01 -0.99344170351E+02  0.16672314612E+03  0.12499939175E+03 0.  0.
          5    1    3    3  501    0  0.11478851710E+02 -0.49777057592E+02 -0.56552497149E+02  0.76353090526E+02  0.47000000000E+01 0.  1.
         -5    1    3    3    0  501  0.35907895896E+02  0.42227787122E+02  0.25336235652E+02  0.61127553770E+02  0.47000000000E+01 0.  1.
          5    1    4    4  502    0 -0.21478966120E+02  0.45578789320E+01  0.28431014833E+02  0.36228895241E+02  0.47000000000E+01 0. -1.
         -5    1    4    4    0  502 -0.25907781486E+02  0.29913915378E+01 -0.12777518518E+03  0.13049425088E+03  0.47000000000E+01 0. -1.
<mgrwt>
<rscale>  0 0.27476157E+03</rscale>
<asrwt>0</asrwt>
<pdfrwt beam="1">  1       21 0.13357182E-01 0.27476157E+03</pdfrwt>
<pdfrwt beam="2">  1       21 0.33443401E-01 0.27476157E+03</pdfrwt>
<totfact> 0.40972320E+05</totfact>
</mgrwt>
</event>
<event>
 8    1  0.9705063E-006  0.3167552E+03  0.7546771E-02  0.1077152E+00
         21   -1    0    0  504  503  0.00000000000E+00  0.00000000000E+00  0.20037032371E+03  0.20037032371E+03  0.00000000000E+00 0.  1.
         21   -1    0    0  503  504 -0.00000000000E+00 -0.00000000000E+00 -0.12518549496E+03  0.12518549496E+03  0.00000000000E+00 0.  1.
         25    2    1    2    0    0 -0.28385944563E+02 -0.49959783153E+02 -0.43055779175E+02  0.14415015142E+03  0.12499489690E+03 0.  0.
         25    2    1    2    0    0  0.28385944563E+02  0.49959783153E+02  0.11824060792E+03  0.18140566725E+03  0.12500173186E+03 0.  0.
          5    1    3    3  501    0 -0.19318234930E+02  0.82506617045E+01 -0.74261095197E+02  0.77317966084E+02  0.47000000000E+01 0.  1.
         -5    1    3    3    0  501 -0.90677096328E+01 -0.58210444857E+02  0.31205316022E+02  0.66832185334E+02  0.47000000000E+01 0.  1.
          5    1    4    4  502    0  0.75865573098E+01  0.89620688296E+02  0.94330668453E+02  0.13042158040E+03  0.47000000000E+01 0. -1.
         -5    1    4    4    0  502  0.20799387253E+02 -0.39660905144E+02  0.23909939466E+02  0.50984086853E+02  0.47000000000E+01 0. -1.
<mgrwt>
<rscale>  0 0.31675516E+03</rscale>
<asrwt>0</asrwt>
<pdfrwt beam="1">  1       21 0.30826204E-01 0.31675516E+03</pdfrwt>
<pdfrwt beam="2">  1       21 0.19259307E-01 0.31675516E+03</pdfrwt>
<totfact> 0.24283475E+05</totfact>
</mgrwt>
</event>
<event>
 8    1  0.9705063E-006  0.2936378E+03  0.7546771E-02  0.1088465E+00
         21   -1    0    0  504  503  0.00000000000E+00  0.00000000000E+00  0.32453640582E+02  0.32453640582E+02  0.00000000000E+00 0. -1.
         21   -1    0    0  503  504 -0.00000000000E+00 -0.00000000000E+00 -0.66420245120E+03  0.66420245120E+03  0.00000000000E+00 0. -1.
         25    2    1    2    0    0  0.32162295492E+02 -0.63878620522E+02 -0.24811413155E+03  0.28688272636E+03  0.12500473990E+03 0.  0.
         25    2    1    2    0    0 -0.32162295492E+02  0.63878620522E+02 -0.38363467906E+03  0.40977336542E+03  0.12499501036E+03 0.  0.
          5    1    3    3  501    0  0.30306473126E+02  0.30281725345E+01 -0.20460606236E+03  0.20691395046E+03  0.47000000000E+01 0.  1.
         -5    1    3    3    0  501  0.18558223657E+01 -0.66906793056E+02 -0.43508069197E+02  0.79968775900E+02  0.47000000000E+01 0.  1.
          5    1    4    4  502    0 -0.45624172396E+02  0.63790990491E+02 -0.38718732117E+03  0.39507843177E+03  0.47000000000E+01 0. -1.
         -5    1    4    4    0  502  0.13461876905E+02  0.87630030390E-01  0.35526421124E+01  0.14694933644E+02  0.47000000000E+01 0. -1.
<mgrwt>
<rscale>  0 0.29363779E+03</rscale>
<asrwt>0</asrwt>
<pdfrwt beam="1">  1       21 0.49928681E-02 0.29363779E+03</pdfrwt>
<pdfrwt beam="2">  1       21 0.10218499E+00 0.29363779E+03</pdfrwt>
<totfact> 0.20392368E+05</totfact>
</mgrwt>
</event>
<event>
 8    1  0.9705063E-006  0.3349567E+03  0.7546771E-02  0.1068965E+00
         21   -1    0    0  504  503  0.00000000000E+00  0.00000000000E+00  0.31830040990E+02  0.31830040990E+02  0.00000000000E+00 0.  1.
         21   -1    0    0  503  504 -0.00000000000E+00 -0.00000000000E+00 -0.88121122680E+03  0.88121122680E+03  0.00000000000E+00 0.  1.
         25    2    1    2    0    0 -0.71779843464E+02 -0.79576923962E+02 -0.50822145359E+03  0.53422713598E+03  0.12499901668E+03 0.  0.
         25    2    1    2    0    0  0.71779843464E+02  0.79576923962E+02 -0.34115973222E+03  0.37881413181E+03  0.12500140326E+03 0.  0.
          5    1    3    3  501    0 -0.81754830723E+02 -0.71848706122E+02 -0.50920277286E+03  0.52072607271E+03  0.47000000000E+01 0.  1.
         -5    1    3    3    0  501  0.99749872589E+01 -0.77282178403E+01  0.98131926695E+00  0.13501063266E+02  0.47000000000E+01 0.  1.
          5    1    4    4  502    0  0.81669556404E+02  0.53027513794E+02 -0.33571563450E+03  0.34958391111E+03  0.47000000000E+01 0.  1.
         -5    1    4    4    0  502 -0.98897129400E+01  0.26549410168E+02 -0.54440977258E+01  0.29230220703E+02  0.47000000000E+01 0.  1.
<mgrwt>
<rscale>  0 0.33495665E+03</rscale>
<asrwt>0</asrwt>
<pdfrwt beam="1">  1       21 0.48969286E-02 0.33495665E+03</pdfrwt>
<pdfrwt beam="2">  1       21 0.13557098E+00 0.33495665E+03</pdfrwt>
<totfact> 0.10277624E+05</totfact>
</mgrwt>
</event>
<event>
 8    1  0.9705063E-006  0.3458759E+03  0.7546771E-02  0.1064321E+00
         21   -1    0    0  504  503  0.00000000000E+00  0.00000000000E+00  0.75347910051E+02  0.75347910051E+02  0.00000000000E+00 0.  1.
         21   -1    0    0  503  504 -0.00000000000E+00 -0.00000000000E+00 -0.39692592615E+03  0.39692592615E+03  0.00000000000E+00 0.  1.
         25    2    1    2    0    0  0.81870796674E+02 -0.82856554235E+02 -0.19729648098E+03  0.26099425888E+03  0.12499626328E+03 0.  0.
         25    2    1    2    0    0 -0.81870796674E+02  0.82856554235E+02 -0.12428153512E+03  0.21127957733E+03  0.12500049558E+03 0.  0.
          5    1    3    3  501    0  0.28135990568E+02 -0.23906685657E+02  0.10244385811E+02  0.38603121959E+02  0.47000000000E+01 0.  1.
         -5    1    3    3    0  501  0.53734806106E+02 -0.58949868578E+02 -0.20754086679E+03  0.22239113692E+03  0.47000000000E+01 0.  1.
          5    1    4    4  502    0 -0.48126989135E+02  0.11138573443E+03 -0.66690481369E+02  0.13853771769E+03  0.47000000000E+01 0.  1.
         -5    1    4    4    0  502 -0.33743807539E+02 -0.28529180199E+02 -0.57591053754E+02  0.72741859631E+02  0.47000000000E+01 0.  1.
<mgrwt>
<rscale>  0 0.34587593E+03</rscale>
<asrwt>0</asrwt>
<pdfrwt beam="1">  1       21 0.11591986E-01 0.34587593E+03</pdfrwt>
<pdfrwt beam="2">  1       21 0.61065527E-01 0.34587593E+03</pdfrwt>
<totfact> 0.14916119E+05</totfact>
</mgrwt>
</event>
<event>
 8    1  0.9705063E-006  0.3568385E+03  0.7546771E-02  0.1059843E+00
         21   -1    0    0  504  503  0.00000000000E+00  0.00000000000E+00  0.18151733635E+03  0.18151733635E+03  0.00000000000E+00 0.  1.
         21   -1    0    0  503  504 -0.00000000000E+00 -0.00000000000E+00 -0.17537402868E+03  0.17537402868E+03  0.00000000000E+00 0.  1.
         25    2    1    2    0    0 -0.13676061965E+02 -0.93319938613E+02 -0.82456456941E+02  0.17697200517E+03  0.12499751081E+03 0.  0.
         25    2    1    2    0    0  0.13676061965E+02  0.93319938613E+02  0.88599764613E+02  0.17991935985E+03  0.12500164858E+03 0.  0.
          5    1    3    3  501    0  0.31463598185E+02  0.17837134246E+02 -0.21150238390E+02  0.42160929221E+02  0.47000000000E+01 0.  1.
         -5    1    3    3    0  501 -0.45139660150E+02 -0.11115707286E+03 -0.61306218552E+02  0.13481107595E+03  0.47000000000E+01 0.  1.
          5    1    4    4  502    0  0.37482393643E+02  0.10147508933E+03  0.24668051551E+02  0.11105280886E+03  0.47000000000E+01 0.  1.
         -5    1    4    4    0  502 -0.23806331677E+02 -0.81551507156E+01  0.63931713062E+02  0.68866550996E+02  0.47000000000E+01 0.  1.
<mgrwt>
<rscale>  0 0.35683849E+03</rscale>
<asrwt>0</asrwt>
<pdfrwt beam="1">  1       21 0.27925744E-01 0.35683849E+03</pdfrwt>
<pdfrwt beam="2">  1       21 0.26980620E-01 0.35683849E+03</pdfrwt>
<totfact> 0.15337405E+05</totfact>
</mgrwt>
</event>
<event>
 8    1  0.9705063E-006  0.3349081E+03  0.7546771E-02  0.1068986E+00
         21   -1    0    0  504  503  0.00000000000E+00  0.00000000000E+00  0.10222257820E+03  0.10222257820E+03  0.00000000000E+00 0. -1.
         21   -1    0    0  503  504 -0.00000000000E+00 -0.00000000000E+00 -0.27431186516E+03  0.27431186516E+03  0.00000000000E+00 0. -1.
         25    2    1    2    0    0  0.84137477891E+02  0.63952844573E+02 -0.46287305387E+02  0.17010727026E+03  0.12499954896E+03 0.  0.
         25    2    1    2    0    0 -0.84137477891E+02 -0.63952844573E+02 -0.12580198158E+03  0.20642717311E+03  0.12496782671E+03 0.  0.
          5    1    3    3  501    0 -0.27606991289E+01 -0.45451489464E+01  0.33094609571E+02  0.33847053362E+02  0.47000000000E+01 0.  1.
         -5    1    3    3    0  501  0.86898177020E+02  0.68497993519E+02 -0.79381914958E+02  0.13626021689E+03  0.47000000000E+01 0.  1.
          5    1    4    4  502    0 -0.28502337210E+02  0.22401415195E+02  0.82516360320E+01  0.37475140112E+02  0.47000000000E+01 0. -1.
         -5    1    4    4    0  502 -0.55635140681E+02 -0.86354259768E+02 -0.13405361761E+03  0.16895203299E+03  0.47000000000E+01 0. -1.
<mgrwt>
<rscale>  0 0.33490814E+03</rscale>
<asrwt>0</asrwt>
<pdfrwt beam="1">  1       21 0.15726550E-01 0.33490814E+03</pdfrwt>
<pdfrwt beam="2">  1       21 0.42201826E-01 0.33490814E+03</pdfrwt>
<totfact> 0.18734043E+05</totfact>
</mgrwt>
</event>
<event>
 8    1  0.9705063E-006  0.2568405E+03  0.7546771E-02  0.1109056E+00
         21   -1    0    0  504  503  0.00000000000E+00  0.00000000000E+00  0.11526166804E+03  0.11526166804E+03  0.00000000000E+00 0.  1.
         21   -1    0    0  503  504 -0.00000000000E+00 -0.00000000000E+00 -0.14308109163E+03  0.14308109163E+03  0.00000000000E+00 0.  1.
         25    2    1    2    0    0 -0.13666040213E+02  0.21046760396E+02  0.15531564723E+01  0.12750690444E+03  0.12500348638E+03 0.  0.
         25    2    1    2    0    0  0.13666040213E+02 -0.21046760396E+02 -0.29372580061E+02  0.13083585522E+03  0.12500218307E+03 0.  0.
          5    1    3    3  501    0 -0.60225301545E+02 -0.16018153674E+02  0.18987373988E+02  0.65316755616E+02  0.47000000000E+01 0.  1.
         -5    1    3    3    0  501  0.46559261332E+02  0.37064914070E+02 -0.17434217516E+02  0.62190148827E+02  0.47000000000E+01 0.  1.
          5    1    4    4  502    0  0.81216572349E+01  0.51766747662E+02 -0.22888966890E+02  0.57373794410E+02  0.47000000000E+01 0.  1.
         -5    1    4    4    0  502  0.55443829782E+01 -0.72813508058E+02 -0.64836131706E+01  0.73462060808E+02  0.47000000000E+01 0.  1.
<mgrwt>
<rscale>  0 0.25684054E+03</rscale>
<asrwt>0</asrwt>
<pdfrwt beam="1">  1       21 0.17732565E-01 0.25684054E+03</pdfrwt>
<pdfrwt beam="2">  1       21 0.22012475E-01 0.25684054E+03</pdfrwt>
<totfact> 0.55004319E+05</totfact>
</mgrwt>
</event>
<event>
 8    1  0.9705063E-006  0.4528018E+03  0.7546771E-02  0.1026890E+00
         21   -1    0    0  504  503  0.00000000000E+00  0.00000000000E+00  0.83320802396E+02  0.83320802396E+02  0.00000000000E+00 0. -1.
         21   -1    0    0  503  504 -0.00000000000E+00 -0.00000000000E+00 -0.61518084217E+03  0.61518084217E+03  0.00000000000E+00 0. -1.
         25    2    1    2    0    0 -0.14392736059E+03  0.61732572925E+02 -0.42849780780E+03  0.47303488093E+03  0.12500252638E+03 0.  0.
         25    2    1    2    0    0  0.14392736059E+03 -0.61732572925E+02 -0.10336223198E+03  0.22546676364E+03  0.12500205926E+03 0.  0.
          5    1    3    3  501    0 -0.11191201398E+03  0.95406862627E+02 -0.26626106015E+03  0.30421014195E+03  0.47000000000E+01 0.  1.
         -5    1    3    3    0  501 -0.32015346611E+02 -0.33674289702E+02 -0.16223674765E+03  0.16882473898E+03  0.47000000000E+01 0.  1.
          5    1    4    4  502    0  0.37290028025E+02 -0.66801584978E+02  0.21044211034E+00  0.76649411163E+02  0.47000000000E+01 0. -1.
         -5    1    4    4    0  502  0.10663733257E+03  0.50690120532E+01 -0.10357267409E+03  0.14881735248E+03  0.47000000000E+01 0. -1.
<mgrwt>
<rscale>  0 0.45280177E+03</rscale>
<asrwt>0</asrwt>
<pdfrwt beam="1">  1       21 0.12818585E-01 0.45280177E+03</pdfrwt>
<pdfrwt beam="2">  1       21 0.94643206E-01 0.45280177E+03</pdfrwt>
<totfact> 0.44580970E+04</totfact>
</mgrwt>
</event>
<event>
 8    1  0.9705063E-006  0.2841166E+03  0.7546771E-02  0.1093462E+00
         21   -1    0    0  504  503  0.00000000000E+00  0.00000000000E+00  0.36481680726E+03  0.36481680726E+03  0.00000000000E+00 0. -1.
         21   -1    0    0  503  504 -0.00000000000E+00 -0.00000000000E+00 -0.55316959364E+02  0.55316959364E+02  0.00000000000E+00 0. -1.
         25    2    1    2    0    0 -0.55959088212E+01  0.60510165083E+02  0.19825651797E+03  0.24209978285E+03  0.12495544672E+03 0.  0.
         25    2    1    2    0    0  0.55959088212E+01 -0.60510165083E+02  0.11124332993E+03  0.17803398377E+03  0.12501290594E+03 0.  0.
          5    1    3    3  501    0  0.36277038033E+02  0.45472332187E+00  0.69881529696E+01  0.37244523674E+02  0.47000000000E+01 0. -1.
         -5    1    3    3    0  501 -0.41872946854E+02  0.60055441761E+02  0.19126836500E+03  0.20485525918E+03  0.47000000000E+01 0. -1.
          5    1    4    4  502    0  0.95557820954E+01 -0.26412585906E+02  0.13373047450E+03  0.13672917566E+03  0.47000000000E+01 0. -1.
         -5    1    4    4    0  502 -0.39598732742E+01 -0.34097579177E+02 -0.22487144575E+02  0.41304808113E+02  0.47000000000E+01 0. -1.
<mgrwt>
<rscale>  0 0.28411657E+03</rscale>
<asrwt>0</asrwt>
<pdfrwt beam="1">  1       21 0.56125661E-01 0.28411657E+03</pdfrwt>
<pdfrwt beam="2">  1       21 0.85103017E-02 0.28411657E+03</pdfrwt>
<totfact> 0.31495049E+05</totfact>
</mgrwt>
</event>
<event>
 8    1  0.9705063E-006  0.3146029E+03  0.7546771E-02  0.1078160E+00
         21   -1    0    0  504  503  0.00000000000E+00  0.00000000000E+00  0.55649794262E+03  0.55649794262E+03  0.00000000000E+00 0. -1.
         21   -1    0    0  503  504 -0.00000000000E+00 -0.00000000000E+00 -0.44463329441E+02  0.44463329441E+02  0.00000000000E+00 0. -1.
         25    2    1    2    0    0 -0.27789457356E+02 -0.88033742334E+02  0.30272463368E+03  0.34027860882E+03  0.12500053623E+03 0.  0.
         25    2    1    2    0    0  0.27789457356E+02  0.88033742334E+02  0.20930997950E+03  0.26068266324E+03  0.12499035829E+03 0.  0.
          5    1    3    3  501    0 -0.26865396520E+02  0.16181510069E+02  0.16214731449E+03  0.16521934631E+03  0.47000000000E+01 0.  1.
         -5    1    3    3    0  501 -0.92406083600E+00 -0.10421525240E+03  0.14057731918E+03  0.17505926251E+03  0.47000000000E+01 0.  1.
          5    1    4    4  502    0 -0.40563821395E+02  0.60687011894E+02  0.14669966184E+03  0.16392442711E+03  0.47000000000E+01 0. -1.
         -5    1    4    4    0  502  0.68353278751E+02  0.27346730440E+02  0.62610317666E+02  0.96758236135E+02  0.47000000000E+01 0. -1.
<mgrwt>
<rscale>  0 0.31460293E+03</rscale>
<asrwt>0</asrwt>
<pdfrwt beam="1">  1       21 0.85615063E-01 0.31460293E+03</pdfrwt>
<pdfrwt beam="2">  1       21 0.68405126E-02 0.31460293E+03</pdfrwt>
<totfact> 0.17903502E+05</totfact>
</mgrwt>
</event>
<event>
 8    1  0.9705063E-006  0.3298626E+03  0.7546771E-02  0.1071198E+00
         21   -1    0    0  504  503  0.00000000000E+00  0.00000000000E+00  0.18246750629E+04  0.18246750629E+04  0.00000000000E+00 0.  1.
         21   -1    0    0  503  504 -0.00000000000E+00 -0.00000000000E+00 -0.14908039881E+02  0.14908039881E+02  0.00000000000E+00 0.  1.
         25    2    1    2    0    0 -0.82203729641E+02  0.58460874427E+02  0.69600682404E+03  0.71430025747E+03  0.12499692679E+03 0.  0.
         25    2    1    2    0    0  0.82203729641E+02 -0.58460874427E+02  0.11137601990E+04  0.11252828453E+04  0.12499829646E+03 0.  0.
          5    1    3    3  501    0  0.15934598189E+02  0.25622857016E+02  0.40842341795E+02  0.50996363639E+02  0.47000000000E+01 0.  1.
         -5    1    3    3    0  501 -0.98138327830E+02  0.32838017411E+02  0.65516448224E+03  0.66330389383E+03  0.47000000000E+01 0.  1.
          5    1    4    4  502    0 -0.10014505710E+02 -0.55345140742E+02  0.23515436685E+03  0.24183267185E+03  0.47000000000E+01 0.  1.
         -5    1    4    4    0  502  0.92218235351E+02 -0.31157336847E+01  0.87860583214E+03  0.88345017347E+03  0.47000000000E+01 0.  1.
<mgrwt>
<rscale>  0 0.32986257E+03</rscale>
<asrwt>0</asrwt>
<pdfrwt beam="1">  1       21 0.28071906E+00 0.32986257E+03</pdfrwt>
<pdfrwt beam="2">  1       21 0.22935460E-02 0.32986257E+03</pdfrwt>
<totfact> 0.39588453E+04</totfact>
</mgrwt>
</event>
