<event>
 8    1  0.9123825E-006  0.2607760E+03  0.7546771E-02  0.1106678E+00
         21   -1    0    0  504  503  0.00000000000E+00  0.00000000000E+00  0.75635292606E+01  0.75635292606E+01  0.00000000000E+00 0.  1.
         21   -1    0    0  503  504 -0.00000000000E+00 -0.00000000000E+00 -0.22477641690E+04  0.22477641690E+04  0.00000000000E+00 0.  1.
         25    2    1    2    0    0  0.30257861016E+02  0.10973706725E+02 -0.96056679061E+03  0.96920044099E+03  0.12499990086E+03 0.  0.
         25    2    1    2    0    0 -0.30257861016E+02 -0.10973706725E+02 -0.12796338491E+04  0.12861272573E+04  0.12499829457E+03 0.  0.
          5    1    3    3  501    0  0.52801593988E+02 -0.99076274999E+01 -0.89515292561E+03  0.89677590269E+03  0.47000000000E+01 0.  1.
         -5    1    3    3    0  501 -0.22543732972E+02  0.20881334225E+02 -0.65413864997E+02  0.72424538308E+02  0.47000000000E+01 0.  1.
          5    1    4    4  502    0 -0.50055657239E+02 -0.54255077723E+02 -0.97061425682E+03  0.97342863520E+03  0.47000000000E+01 0. -1.
         -5    1    4    4    0  502  0.19797796222E+02  0.43281370998E+02 -0.30901959230E+03  0.31269862205E+03  0.47000000000E+01 0. -1.
<mgrwt>
<rscale>  0 0.26077600E+03</rscale>
<asrwt>0</asrwt>
<pdfrwt beam="1">  1       21 0.11636191E-02 0.26077600E+03</pdfrwt>
<pdfrwt beam="2">  1       21 0.34581012E+00 0.26077600E+03</pdfrwt>
<totfact> 0.51416919E+04</totfact>
</mgrwt>
</event>
<event>
 8    1  0.9123825E-006  0.3608958E+03  0.7546771E-02  0.1058230E+00
         21   -1    0    0  504  503  0.00000000000E+00  0.00000000000E+00  0.92005334205E+02  0.92005334205E+02  0.00000000000E+00 0.  1.
         21   -1    0    0  503  504 -0.00000000000E+00 -0.00000000000E+00 -0.35390819383E+03  0.35390819383E+03  0.00000000000E+00 0.  1.
         25    2    1    2    0    0  0.10805490869E+03 -0.63471154920E+02 -0.87591137776E+02  0.19748858443E+03  0.12500033106E+03 0.  0.
         25    2    1    2    0    0 -0.10805490869E+03  0.63471154920E+02 -0.17431172185E+03  0.24842494360E+03  0.12500370166E+03 0.  0.
          5    1    3    3  501    0  0.94560733639E+02 -0.20659854962E+01 -0.67086135685E+01  0.94937327424E+02  0.47000000000E+01 0.  1.
         -5    1    3    3    0  501  0.13494175052E+02 -0.61405169424E+02 -0.80882524208E+02  0.10255125701E+03  0.47000000000E+01 0.  1.
          5    1    4    4  502    0 -0.63852875059E+02  0.26491295162E+02 -0.49520015621E+01  0.69466471712E+02  0.47000000000E+01 0. -1.
         -5    1    4    4    0  502 -0.44202033631E+02  0.36979859758E+02 -0.16935972029E+03  0.17895847189E+03  0.47000000000E+01 0. -1.
<mgrwt>
<rscale>  0 0.36089578E+03</rscale>
<asrwt>0</asrwt>
<pdfrwt beam="1">  1       21 0.14154666E-01 0.36089578E+03</pdfrwt>
<pdfrwt beam="2">  1       21 0.54447416E-01 0.36089578E+03</pdfrwt>
<totfact> 0.13242900E+05</totfact>
</mgrwt>
</event>
<event>
 8    1  0.9123825E-006  0.2755077E+03  0.7546771E-02  0.1098168E+00
         21   -1    0    0  504  503  0.00000000000E+00  0.00000000000E+00  0.21607378322E+02  0.21607378322E+02  0.00000000000E+00 0. -1.
         21   -1    0    0  503  504 -0.00000000000E+00 -0.00000000000E+00 -0.87822441777E+03  0.87822441777E+03  0.00000000000E+00 0. -1.
         25    2    1    2    0    0  0.57404703105E+00  0.55023253097E+02 -0.36955006512E+03  0.39397884418E+03  0.12499676445E+03 0.  0.
         25    2    1    2    0    0 -0.57404703105E+00 -0.55023253097E+02 -0.48706697433E+03  0.50585295191E+03  0.12500033425E+03 0.  0.
          5    1    3    3  501    0  0.54133165670E+02  0.41866247165E+02 -0.11870137087E+03  0.13709590702E+03  0.47000000000E+01 0. -1.
         -5    1    3    3    0  501 -0.53559118639E+02  0.13157005932E+02 -0.25084869426E+03  0.25688293716E+03  0.47000000000E+01 0. -1.
          5    1    4    4  502    0 -0.22647012818E+02 -0.83918422242E+02 -0.42451615643E+03  0.43334887314E+03  0.47000000000E+01 0.  1.
         -5    1    4    4    0  502  0.22072965787E+02  0.28895169145E+02 -0.62550817904E+02  0.72504078775E+02  0.47000000000E+01 0.  1.
<mgrwt>
<rscale>  0 0.27550773E+03</rscale>
<asrwt>0</asrwt>
<pdfrwt beam="1">  1       21 0.33242112E-02 0.27550773E+03</pdfrwt>
<pdfrwt beam="2">  1       21 0.13511148E+00 0.27550773E+03</pdfrwt>
<totfact> 0.20332346E+05</totfact>
</mgrwt>
</event>
<event>
 8    1  0.9123825E-006  0.3170802E+03  0.7546771E-02  0.1077001E+00
         21   -1    0    0  504  503  0.00000000000E+00  0.00000000000E+00  0.84621657277E+02  0.84621657277E+02  0.00000000000E+00 0.  1.
         21   -1    0    0  503  504 -0.00000000000E+00 -0.00000000000E+00 -0.29702750057E+03  0.29702750057E+03  0.00000000000E+00 0.  1.
         25    2    1    2    0    0  0.43323612866E+02 -0.58662765445E+02 -0.18412099533E+03  0.23419002877E+03  0.12500469259E+03 0.  0.
         25    2    1    2    0    0 -0.43323612866E+02  0.58662765445E+02 -0.28284847961E+02  0.14745912908E+03  0.12500362653E+03 0.  0.
          5    1    3    3  501    0 -0.92373627976E+00 -0.87111786143E+01 -0.16404571902E+03  0.16434666364E+03  0.47000000000E+01 0.  1.
         -5    1    3    3    0  501  0.44247349145E+02 -0.49951586830E+02 -0.20075276320E+02  0.69843365129E+02  0.47000000000E+01 0.  1.
          5    1    4    4  502    0 -0.87459854857E+02  0.41572533016E+02 -0.15255003496E+02  0.98144316416E+02  0.47000000000E+01 0. -1.
         -5    1    4    4    0  502  0.44136241992E+02  0.17090232428E+02 -0.13029844465E+02  0.49314812667E+02  0.47000000000E+01 0. -1.
<mgrwt>
<rscale>  0 0.31708018E+03</rscale>
<asrwt>0</asrwt>
<pdfrwt beam="1">  1       21 0.13018716E-01 0.31708018E+03</pdfrwt>
<pdfrwt beam="2">  1       21 0.45696539E-01 0.31708018E+03</pdfrwt>
<totfact> 0.22556181E+05</totfact>
</mgrwt>
</event>
<event>
 8    1  0.9123825E-006  0.2942267E+03  0.7546771E-02  0.1088163E+00
         21   -1    0    0  504  503  0.00000000000E+00  0.00000000000E+00  0.72390919152E+01  0.72390919152E+01  0.00000000000E+00 0. -1.
         21   -1    0    0  503  504 -0.00000000000E+00 -0.00000000000E+00 -0.29896473329E+04  0.29896473329E+04  0.00000000000E+00 0. -1.
         25    2    1    2    0    0 -0.74024888936E+02 -0.12998293126E+02 -0.12975709860E+04  0.13057436974E+04  0.12500999934E+03 0.  0.
         25    2    1    2    0    0  0.74024888936E+02  0.12998293126E+02 -0.16848372550E+04  0.16911427273E+04  0.12505402314E+03 0.  0.
          5    1    3    3  501    0  0.24241446530E+01 -0.55476845247E+02 -0.62820569854E+03  0.63067269364E+03  0.47000000000E+01 0. -1.
         -5    1    3    3    0  501 -0.76449033589E+02  0.42478552122E+02 -0.66936528745E+03  0.67507100380E+03  0.47000000000E+01 0. -1.
          5    1    4    4  502    0  0.94608179996E+02 -0.22050993750E+01 -0.15894287350E+04  0.15922504087E+04  0.47000000000E+01 0. -1.
         -5    1    4    4    0  502 -0.20583291060E+02  0.15203392501E+02 -0.95408519928E+02  0.98892318656E+02  0.47000000000E+01 0. -1.
<mgrwt>
<rscale>  0 0.29422666E+03</rscale>
<asrwt>0</asrwt>
<pdfrwt beam="1">  1       21 0.11137058E-02 0.29422666E+03</pdfrwt>
<pdfrwt beam="2">  1       21 0.45994602E+00 0.29422666E+03</pdfrwt>
<totfact> 0.10128849E+04</totfact>
</mgrwt>
</event>
<event>
 8    1  0.9123825E-006  0.3137255E+03  0.7546771E-02  0.1078574E+00
         21   -1    0    0  504  503  0.00000000000E+00  0.00000000000E+00  0.37344255437E+03  0.37344255437E+03  0.00000000000E+00 0. -1.
         21   -1    0    0  503  504 -0.00000000000E+00 -0.00000000000E+00 -0.65889449864E+02  0.65889449864E+02  0.00000000000E+00 0. -1.
         25    2    1    2    0    0 -0.18970648270E+02 -0.82016570899E+01  0.24259448984E+02  0.12899741052E+03  0.12499863352E+03 0.  0.
         25    2    1    2    0    0  0.18970648270E+02  0.82016570899E+01  0.28329365552E+03  0.31033459371E+03  0.12500044847E+03 0.  0.
          5    1    3    3  501    0  0.44460901426E+02 -0.16952189584E+02  0.40622050009E+02  0.62740652166E+02  0.47000000000E+01 0. -1.
         -5    1    3    3    0  501 -0.63431549696E+02  0.87505324942E+01 -0.16362601025E+02  0.66256758358E+02  0.47000000000E+01 0. -1.
          5    1    4    4  502    0  0.58962125722E+02 -0.33974334063E+02  0.16080723479E+03  0.17467639911E+03  0.47000000000E+01 0. -1.
         -5    1    4    4    0  502 -0.39991477452E+02  0.42175991153E+02  0.12248642073E+03  0.13565819460E+03  0.47000000000E+01 0. -1.
<mgrwt>
<rscale>  0 0.31372551E+03</rscale>
<asrwt>0</asrwt>
<pdfrwt beam="1">  1       21 0.57452699E-01 0.31372551E+03</pdfrwt>
<pdfrwt beam="2">  1       21 0.10136839E-01 0.31372551E+03</pdfrwt>
<totfact> 0.21822332E+05</totfact>
</mgrwt>
</event>
<event>
 8    1  0.9123825E-006  0.2724807E+03  0.7546771E-02  0.1099868E+00
         21   -1    0    0  504  503  0.00000000000E+00  0.00000000000E+00  0.11795227134E+03  0.11795227134E+03  0.00000000000E+00 0. -1.
         21   -1    0    0  503  504 -0.00000000000E+00 -0.00000000000E+00 -0.15736396107E+03  0.15736396107E+03  0.00000000000E+00 0. -1.
         25    2    1    2    0    0  0.43389583873E+02  0.30849983035E+02 -0.93774486848E+01  0.13617378283E+03  0.12498393955E+03 0.  0.
         25    2    1    2    0    0 -0.43389583873E+02 -0.30849983035E+02 -0.30034241039E+02  0.13914244958E+03  0.12499675275E+03 0.  0.
          5    1    3    3  501    0  0.42694087330E+02  0.74075053824E+02 -0.26203304164E+02  0.89546646174E+02  0.47000000000E+01 0. -1.
         -5    1    3    3    0  501  0.69549654331E+00 -0.43225070788E+02  0.16825855479E+02  0.46627136656E+02  0.47000000000E+01 0. -1.
          5    1    4    4  502    0  0.35422112404E+02  0.13418078662E+02  0.11054789113E+02  0.39737504256E+02  0.47000000000E+01 0. -1.
         -5    1    4    4    0  502 -0.78811696277E+02 -0.44268061698E+02 -0.41089030152E+02  0.99404945327E+02  0.47000000000E+01 0. -1.
<mgrwt>
<rscale>  0 0.27248073E+03</rscale>
<asrwt>0</asrwt>
<pdfrwt beam="1">  1       21 0.18146503E-01 0.27248073E+03</pdfrwt>
<pdfrwt beam="2">  1       21 0.24209840E-01 0.27248073E+03</pdfrwt>
<totfact> 0.43825912E+05</totfact>
</mgrwt>
</event>
<event>
 8    1  0.9123825E-006  0.2655649E+03  0.7546771E-02  0.1103845E+00
         21   -1    0    0  504  503  0.00000000000E+00  0.00000000000E+00  0.82176289481E+02  0.82176289481E+02  0.00000000000E+00 0.  1.
         21   -1    0    0  503  504 -0.00000000000E+00 -0.00000000000E+00 -0.21455317259E+03  0.21455317259E+03  0.00000000000E+00 0.  1.
         25    2    1    2    0    0  0.42013866120E+01 -0.21508763963E+01 -0.16429281824E+02  0.12616483298E+03  0.12500146343E+03 0.  0.
         25    2    1    2    0    0 -0.42013866120E+01  0.21508763963E+01 -0.11594760128E+03  0.17056462909E+03  0.12500467405E+03 0.  0.
          5    1    3    3  501    0  0.26971120932E+02  0.30644324844E+02 -0.56196777814E+02  0.69618128718E+02  0.47000000000E+01 0.  1.
         -5    1    3    3    0  501 -0.22769734320E+02 -0.32795201240E+02  0.39767495990E+02  0.56546704260E+02  0.47000000000E+01 0.  1.
          5    1    4    4  502    0 -0.39453005352E+02 -0.47020247762E+02 -0.76471457305E+02  0.98170347423E+02  0.47000000000E+01 0. -1.
         -5    1    4    4    0  502  0.35251618740E+02  0.49171124158E+02 -0.39476143980E+02  0.72394281668E+02  0.47000000000E+01 0. -1.
<mgrwt>
<rscale>  0 0.26556493E+03</rscale>
<asrwt>0</asrwt>
<pdfrwt beam="1">  1       21 0.12642506E-01 0.26556493E+03</pdfrwt>
<pdfrwt beam="2">  1       21 0.33008181E-01 0.26556493E+03</pdfrwt>
<totfact> 0.46541826E+05</totfact>
</mgrwt>
</event>
<event>
 8    1  0.9123825E-006  0.3314233E+03  0.7546771E-02  0.1070509E+00
         21   -1    0    0  504  503  0.00000000000E+00  0.00000000000E+00  0.10213024744E+03  0.10213024744E+03  0.00000000000E+00 0.  1.
         21   -1    0    0  503  504 -0.00000000000E+00 -0.00000000000E+00 -0.26887576776E+03  0.26887576776E+03  0.00000000000E+00 0.  1.
         25    2    1    2    0    0 -0.26084556124E+02  0.90311341646E+02 -0.14461872622E+03  0.21304664055E+03  0.12505099992E+03 0.  0.
         25    2    1    2    0    0  0.26084556124E+02 -0.90311341646E+02 -0.22126794102E+02  0.15795937465E+03  0.12500010610E+03 0.  0.
          5    1    3    3  501    0 -0.70675675287E+02  0.21339447514E+02 -0.63094093607E+02  0.97228482173E+02  0.47000000000E+01 0. -1.
         -5    1    3    3    0  501  0.44591119163E+02  0.68971894131E+02 -0.81524632610E+02  0.11581815838E+03  0.47000000000E+01 0. -1.
          5    1    4    4  502    0  0.53386346687E+02 -0.11001437289E+03 -0.15980954106E+02  0.12341290512E+03  0.47000000000E+01 0. -1.
         -5    1    4    4    0  502 -0.27301790563E+02  0.19703031246E+02 -0.61458399958E+01  0.34546469537E+02  0.47000000000E+01 0. -1.
<mgrwt>
<rscale>  0 0.33142329E+03</rscale>
<asrwt>0</asrwt>
<pdfrwt beam="1">  1       21 0.15712346E-01 0.33142329E+03</pdfrwt>
<pdfrwt beam="2">  1       21 0.41365502E-01 0.33142329E+03</pdfrwt>
<totfact> 0.19569099E+05</totfact>
</mgrwt>
</event>
<event>
 8    1  0.9123825E-006  0.3230075E+03  0.7546771E-02  0.1074273E+00
         21   -1    0    0  504  503  0.00000000000E+00  0.00000000000E+00  0.13046192528E+03  0.13046192528E+03  0.00000000000E+00 0. -1.
         21   -1    0    0  503  504 -0.00000000000E+00 -0.00000000000E+00 -0.19993160116E+03  0.19993160116E+03  0.00000000000E+00 0. -1.
         25    2    1    2    0    0 -0.39985910028E+02 -0.52804566160E+02  0.44958935009E+02  0.14843564816E+03  0.12499856239E+03 0.  0.
         25    2    1    2    0    0  0.39985910028E+02  0.52804566160E+02 -0.11442861089E+03  0.18195787827E+03  0.12501026864E+03 0.  0.
          5    1    3    3  501    0 -0.52389733163E+02 -0.31893615027E+02  0.82838256064E+02  0.10318019911E+03  0.47000000000E+01 0. -1.
         -5    1    3    3    0  501  0.12403823136E+02 -0.20910951134E+02 -0.37879321054E+02  0.45255449056E+02  0.47000000000E+01 0. -1.
          5    1    4    4  502    0  0.59227523592E+02  0.18084641054E+02 -0.14560734965E+01  0.62122169496E+02  0.47000000000E+01 0.  1.
         -5    1    4    4    0  502 -0.19241613564E+02  0.34719925106E+02 -0.11297253740E+03  0.11983570878E+03  0.47000000000E+01 0.  1.
<mgrwt>
<rscale>  0 0.32300750E+03</rscale>
<asrwt>0</asrwt>
<pdfrwt beam="1">  1       21 0.20071066E-01 0.32300750E+03</pdfrwt>
<pdfrwt beam="2">  1       21 0.30758708E-01 0.32300750E+03</pdfrwt>
<totfact> 0.22533358E+05</totfact>
</mgrwt>
</event>
<event>
 8    1  0.9123825E-006  0.2540288E+03  0.7546771E-02  0.1110785E+00
         21   -1    0    0  504  503  0.00000000000E+00  0.00000000000E+00  0.30034155334E+03  0.30034155334E+03  0.00000000000E+00 0. -1.
         21   -1    0    0  503  504 -0.00000000000E+00 -0.00000000000E+00 -0.53714371652E+02  0.53714371652E+02  0.00000000000E+00 0. -1.
         25    2    1    2    0    0 -0.15820345694E+02 -0.15728063760E+02  0.11788750502E+03  0.17323816123E+03  0.12496536055E+03 0.  0.
         25    2    1    2    0    0  0.15820345694E+02  0.15728063760E+02  0.12873967667E+03  0.18081776377E+03  0.12499401593E+03 0.  0.
          5    1    3    3  501    0  0.51437484992E+02 -0.19781697227E+02  0.31744932420E+02  0.63772730394E+02  0.47000000000E+01 0.  1.
         -5    1    3    3    0  501 -0.67257830686E+02  0.40536334669E+01  0.86142572601E+02  0.10946543083E+03  0.47000000000E+01 0.  1.
          5    1    4    4  502    0  0.13855469092E+02 -0.53825084771E+02  0.70921563466E+02  0.90227888919E+02  0.47000000000E+01 0.  1.
         -5    1    4    4    0  502  0.19648766013E+01  0.69553148531E+02  0.57818113201E+02  0.90589874847E+02  0.47000000000E+01 0.  1.
<mgrwt>
<rscale>  0 0.25402880E+03</rscale>
<asrwt>0</asrwt>
<pdfrwt beam="1">  1       21 0.46206392E-01 0.25402880E+03</pdfrwt>
<pdfrwt beam="2">  1       21 0.82637497E-02 0.25402880E+03</pdfrwt>
<totfact> 0.50269754E+05</totfact>
</mgrwt>
</event>
<event>
 8    1  0.9123825E-006  0.3415621E+03  0.7546771E-02  0.1066133E+00
         21   -1    0    0  504  503  0.00000000000E+00  0.00000000000E+00  0.32005542140E+03  0.32005542140E+03  0.00000000000E+00 0.  1.
         21   -1    0    0  503  504 -0.00000000000E+00 -0.00000000000E+00 -0.91128477945E+02  0.91128477945E+02  0.00000000000E+00 0.  1.
         25    2    1    2    0    0  0.70813674494E+02 -0.77496574139E+02  0.17502020864E+03  0.23932964556E+03  0.12500524114E+03 0.  0.
         25    2    1    2    0    0 -0.70813674494E+02  0.77496574139E+02  0.53906734823E+02  0.17185425379E+03  0.12493059268E+03 0.  0.
          5    1    3    3  501    0  0.29089510485E+02 -0.66876007312E+02  0.16392922220E+02  0.74896047113E+02  0.47000000000E+01 0. -1.
         -5    1    3    3    0  501  0.41724164008E+02 -0.10620566826E+02  0.15862728642E+03  0.16443359845E+03  0.47000000000E+01 0. -1.
          5    1    4    4  502    0 -0.47829266740E+02  0.62622586478E+02  0.94207359234E+02  0.12290786642E+03  0.47000000000E+01 0. -1.
         -5    1    4    4    0  502 -0.22984407754E+02  0.14873987660E+02 -0.40300624411E+02  0.48946387371E+02  0.47000000000E+01 0. -1.
<mgrwt>
<rscale>  0 0.34156208E+03</rscale>
<asrwt>0</asrwt>
<pdfrwt beam="1">  1       21 0.49239295E-01 0.34156208E+03</pdfrwt>
<pdfrwt beam="2">  1       21 0.14019766E-01 0.34156208E+03</pdfrwt>
<totfact> 0.16759974E+05</totfact>
</mgrwt>
</event>
<event>
 8    1  0.9123825E-006  0.3279346E+03  0.7546771E-02  0.1072054E+00
         21   -1    0    0  504  503  0.00000000000E+00  0.00000000000E+00  0.68801442511E+02  0.68801442511E+02  0.00000000000E+00 0. -1.
         21   -1    0    0  503  504 -0.00000000000E+00 -0.00000000000E+00 -0.39076608070E+03  0.39076608070E+03  0.00000000000E+00 0. -1.
         25    2    1    2    0    0 -0.52512398083E+02  0.66468353362E+02 -0.71402483295E+02  0.16702407298E+03  0.12499252931E+03 0.  0.
         25    2    1    2    0    0  0.52512398083E+02 -0.66468353362E+02 -0.25056215489E+03  0.29254345022E+03  0.12499873141E+03 0.  0.
          5    1    3    3  501    0  0.13478344698E+02  0.81700649698E+02 -0.35367132931E+02  0.90164217008E+02  0.47000000000E+01 0.  1.
         -5    1    3    3    0  501 -0.65990742781E+02 -0.15232296337E+02 -0.36035350364E+02  0.76859855974E+02  0.47000000000E+01 0.  1.
          5    1    4    4  502    0  0.27667433451E+02 -0.29365855477E+02 -0.27671244364E+01  0.40713478349E+02  0.47000000000E+01 0. -1.
         -5    1    4    4    0  502  0.24844964633E+02 -0.37102497885E+02 -0.24779503045E+03  0.25182997188E+03  0.47000000000E+01 0. -1.
<mgrwt>
<rscale>  0 0.32793457E+03</rscale>
<asrwt>0</asrwt>
<pdfrwt beam="1">  1       21 0.10584837E-01 0.32793457E+03</pdfrwt>
<pdfrwt beam="2">  1       21 0.60117859E-01 0.32793457E+03</pdfrwt>
<totfact> 0.18249892E+05</totfact>
</mgrwt>
</event>
<event>
 8    1  0.9123825E-006  0.2923773E+03  0.7546771E-02  0.1089114E+00
         21   -1    0    0  504  503  0.00000000000E+00  0.00000000000E+00  0.13752362003E+02  0.13752362003E+02  0.00000000000E+00 0.  1.
         21   -1    0    0  503  504 -0.00000000000E+00 -0.00000000000E+00 -0.15539960298E+04  0.15539960298E+04  0.00000000000E+00 0.  1.
         25    2    1    2    0    0 -0.58877219527E+02 -0.30646225058E+02 -0.57392375695E+03  0.59111915881E+03  0.12501065168E+03 0.  0.
         25    2    1    2    0    0  0.58877219527E+02  0.30646225058E+02 -0.96631991087E+03  0.97662923301E+03  0.12499908217E+03 0.  0.
          5    1    3    3  501    0  0.32701649312E+02  0.16485863362E+02 -0.19233005757E+03  0.19584208589E+03  0.47000000000E+01 0. -1.
         -5    1    3    3    0  501 -0.91578868839E+02 -0.47132088420E+02 -0.38159369938E+03  0.39527707293E+03  0.47000000000E+01 0. -1.
          5    1    4    4  502    0 -0.11018377630E+02  0.49324260827E+02 -0.18138360803E+03  0.18835177359E+03  0.47000000000E+01 0. -1.
         -5    1    4    4    0  502  0.69895597157E+02 -0.18678035770E+02 -0.78493630283E+03  0.78827745942E+03  0.47000000000E+01 0. -1.
<mgrwt>
<rscale>  0 0.29237726E+03</rscale>
<asrwt>0</asrwt>
<pdfrwt beam="1">  1       21 0.21157476E-02 0.29237726E+03</pdfrwt>
<pdfrwt beam="2">  1       21 0.23907636E+00 0.29237726E+03</pdfrwt>
<totfact> 0.81831017E+04</totfact>
</mgrwt>
</event>
<event>
 8    1  0.9123825E-006  0.2732860E+03  0.7546771E-02  0.1099414E+00
         21   -1    0    0  504  503  0.00000000000E+00  0.00000000000E+00  0.38755266976E+02  0.38755266976E+02  0.00000000000E+00 0.  1.
         21   -1    0    0  503  504 -0.00000000000E+00 -0.00000000000E+00 -0.48177473434E+03  0.48177473434E+03  0.00000000000E+00 0.  1.
         25    2    1    2    0    0  0.52078045401E+02  0.21777838129E+01 -0.25607204307E+03  0.28967862844E+03  0.12499580385E+03 0.  0.
         25    2    1    2    0    0 -0.52078045401E+02 -0.21777838129E+01 -0.18694742429E+03  0.23085137287E+03  0.12500460532E+03 0.  0.
          5    1    3    3  501    0  0.81675725814E+02 -0.18106768878E+02 -0.10501127486E+03  0.13434372748E+03  0.47000000000E+01 0.  1.
         -5    1    3    3    0  501 -0.29597680413E+02  0.20284552691E+02 -0.15106076821E+03  0.15533490096E+03  0.47000000000E+01 0.  1.
          5    1    4    4  502    0 -0.18396156933E+02  0.54559685215E+02 -0.13467353645E+03  0.14654087914E+03  0.47000000000E+01 0. -1.
         -5    1    4    4    0  502 -0.33681888468E+02 -0.56737469028E+02 -0.52273887843E+02  0.84310493728E+02  0.47000000000E+01 0. -1.
<mgrwt>
<rscale>  0 0.27328599E+03</rscale>
<asrwt>0</asrwt>
<pdfrwt beam="1">  1       21 0.59623487E-02 0.27328599E+03</pdfrwt>
<pdfrwt beam="2">  1       21 0.74119190E-01 0.27328599E+03</pdfrwt>
<totfact> 0.31881509E+05</totfact>
</mgrwt>
</event>
<event>
 8    1  0.9123825E-006  0.2613960E+03  0.7546771E-02  0.1106307E+00
         21   -1    0    0  504  503  0.00000000000E+00  0.00000000000E+00  0.66171831658E+03  0.66171831658E+03  0.00000000000E+00 0. -1.
         21   -1    0    0  503  504 -0.00000000000E+00 -0.00000000000E+00 -0.25814560785E+02  0.25814560785E+02  0.00000000000E+00 0. -1.
         25    2    1    2    0    0 -0.26096740105E+02 -0.18323755061E+02  0.26260150813E+03  0.29257186454E+03  0.12498777542E+03 0.  0.
         25    2    1    2    0    0  0.26096740105E+02  0.18323755061E+02  0.37330224767E+03  0.39496101283E+03  0.12499133449E+03 0.  0.
          5    1    3    3  501    0  0.40888399287E+02  0.22203160527E+02  0.65870386004E+02  0.80782666990E+02  0.47000000000E+01 0. -1.
         -5    1    3    3    0  501 -0.66985139392E+02 -0.40526915588E+02  0.19673112213E+03  0.21178919755E+03  0.47000000000E+01 0. -1.
          5    1    4    4  502    0  0.19531483750E+02 -0.25696605685E+02  0.18805079144E+02  0.37649905748E+02  0.47000000000E+01 0. -1.
         -5    1    4    4    0  502  0.65652563547E+01  0.44020360746E+02  0.35449716852E+03  0.35731110708E+03  0.47000000000E+01 0. -1.
<mgrwt>
<rscale>  0 0.26139600E+03</rscale>
<asrwt>0</asrwt>
<pdfrwt beam="1">  1       21 0.10180281E+00 0.26139600E+03</pdfrwt>
<pdfrwt beam="2">  1       21 0.39714714E-02 0.26139600E+03</pdfrwt>
<totfact> 0.30603568E+05</totfact>
</mgrwt>
</event>
<event>
 8    1  0.9123825E-006  0.5083663E+03  0.7546771E-02  0.1011618E+00
         21   -1    0    0  504  503  0.00000000000E+00  0.00000000000E+00  0.44102619558E+02  0.44102619558E+02  0.00000000000E+00 0.  1.
         21   -1    0    0  503  504 -0.00000000000E+00 -0.00000000000E+00 -0.14649711100E+04  0.14649711100E+04  0.00000000000E+00 0.  1.
         25    2    1    2    0    0 -0.20679744110E+03 -0.43891542292E+02 -0.51592389835E+03  0.57139558664E+03  0.12499519358E+03 0.  0.
         25    2    1    2    0    0  0.20679744110E+03  0.43891542292E+02 -0.90494459205E+03  0.93767814287E+03  0.12499574313E+03 0.  0.
          5    1    3    3  501    0 -0.29298637658E+02  0.38524816388E+02 -0.12684797880E+03  0.13584944377E+03  0.47000000000E+01 0. -1.
         -5    1    3    3    0  501 -0.17749880345E+03 -0.82416358680E+02 -0.38907591954E+03  0.43554614287E+03  0.47000000000E+01 0. -1.
          5    1    4    4  502    0  0.45447059394E+02  0.44377447329E+02 -0.11548632384E+03  0.13188621624E+03  0.47000000000E+01 0.  1.
         -5    1    4    4    0  502  0.16135038171E+03 -0.48590503697E+00 -0.78945826821E+03  0.80579192663E+03  0.47000000000E+01 0.  1.
<mgrwt>
<rscale>  0 0.50836626E+03</rscale>
<asrwt>0</asrwt>
<pdfrwt beam="1">  1       21 0.67850197E-02 0.50836626E+03</pdfrwt>
<pdfrwt beam="2">  1       21 0.22538013E+00 0.50836626E+03</pdfrwt>
<totfact> 0.12666276E+04</totfact>
</mgrwt>
</event>
<event>
 8    1  0.9123825E-006  0.5867238E+03  0.7546771E-02  0.9933339E-01
         21   -1    0    0  504  503  0.00000000000E+00  0.00000000000E+00  0.77876609383E+03  0.77876609383E+03  0.00000000000E+00 0. -1.
         21   -1    0    0  503  504 -0.00000000000E+00 -0.00000000000E+00 -0.11050971200E+03  0.11050971200E+03  0.00000000000E+00 0. -1.
         25    2    1    2    0    0  0.15753916050E+01  0.26384349949E+03  0.37761965850E+03  0.47732446844E+03  0.12500467033E+03 0.  0.
         25    2    1    2    0    0 -0.15753916050E+01 -0.26384349949E+03  0.29063672332E+03  0.41195133739E+03  0.12497329856E+03 0.  0.
          5    1    3    3  501    0 -0.27584443608E+02  0.17077560080E+03  0.14763923826E+03  0.22747448655E+03  0.47000000000E+01 0. -1.
         -5    1    3    3    0  501  0.29159835213E+02  0.93067898693E+02  0.22998042024E+03  0.24984998189E+03  0.47000000000E+01 0. -1.
          5    1    4    4  502    0 -0.39736742852E+02 -0.24272944695E+03  0.26291830272E+03  0.36006210166E+03  0.47000000000E+01 0. -1.
         -5    1    4    4    0  502  0.38161351247E+02 -0.21114052538E+02  0.27718420607E+02  0.51889235729E+02  0.47000000000E+01 0. -1.
<mgrwt>
<rscale>  0 0.58672384E+03</rscale>
<asrwt>0</asrwt>
<pdfrwt beam="1">  1       21 0.11981016E+00 0.58672384E+03</pdfrwt>
<pdfrwt beam="2">  1       21 0.17001495E-01 0.58672384E+03</pdfrwt>
<totfact> 0.14283003E+04</totfact>
</mgrwt>
</event>
<event>
 8    1  0.9123825E-006  0.4562268E+03  0.7546771E-02  0.1025881E+00
         21   -1    0    0  504  503  0.00000000000E+00  0.00000000000E+00  0.58801210047E+02  0.58801210047E+02  0.00000000000E+00 0.  1.
         21   -1    0    0  503  504 -0.00000000000E+00 -0.00000000000E+00 -0.88494316304E+03  0.88494316304E+03  0.00000000000E+00 0.  1.
         25    2    1    2    0    0  0.48335109360E+02  0.13311905603E+03 -0.14854258839E+03  0.24030761609E+03  0.12500353559E+03 0.  0.
         25    2    1    2    0    0 -0.48335109360E+02 -0.13311905603E+03 -0.67759936459E+03  0.70343675699E+03  0.12500162523E+03 0.  0.
          5    1    3    3  501    0  0.61118769193E+02  0.14316075682E+03 -0.15721772442E+03  0.22129168334E+03  0.47000000000E+01 0. -1.
         -5    1    3    3    0  501 -0.12783659833E+02 -0.10041700791E+02  0.86751360264E+01  0.19015932756E+02  0.47000000000E+01 0. -1.
          5    1    4    4  502    0  0.13567902074E+02 -0.64133496049E+02 -0.10874855484E+03  0.12706506783E+03  0.47000000000E+01 0. -1.
         -5    1    4    4    0  502 -0.61903011435E+02 -0.68985559984E+02 -0.56885080975E+03  0.57637168916E+03  0.47000000000E+01 0. -1.
<mgrwt>
<rscale>  0 0.45622682E+03</rscale>
<asrwt>0</asrwt>
<pdfrwt beam="1">  1       21 0.90463405E-02 0.45622682E+03</pdfrwt>
<pdfrwt beam="2">  1       21 0.13614510E+00 0.45622682E+03</pdfrwt>
<totfact> 0.33626280E+04</totfact>
</mgrwt>
</event>
<event>
 8    1  0.9123825E-006  0.4748912E+03  0.7546771E-02  0.1020549E+00
         21   -1    0    0  504  503  0.00000000000E+00  0.00000000000E+00  0.60134290614E+02  0.60134290614E+02  0.00000000000E+00 0.  1.
         21   -1    0    0  503  504 -0.00000000000E+00 -0.00000000000E+00 -0.93757502619E+03  0.93757502619E+03  0.00000000000E+00 0.  1.
         25    2    1    2    0    0  0.14014156307E+03 -0.16864671310E+02 -0.13548231289E+03  0.23217154870E+03  0.12499638427E+03 0.  0.
         25    2    1    2    0    0 -0.14014156307E+03  0.16864671310E+02 -0.74195842269E+03  0.76553776811E+03  0.12498679355E+03 0.  0.
          5    1    3    3  501    0  0.42038681149E+02 -0.66233243288E+02 -0.54495240298E+02  0.95634274422E+02  0.47000000000E+01 0. -1.
         -5    1    3    3    0  501  0.98102881920E+02  0.49368571977E+02 -0.80987072589E+02  0.13653727428E+03  0.47000000000E+01 0. -1.
          5    1    4    4  502    0 -0.12765496285E+03 -0.17586071475E+02 -0.37150759827E+03  0.39324934205E+03  0.47000000000E+01 0. -1.
         -5    1    4    4    0  502 -0.12486600216E+02  0.34450742785E+02 -0.37045082442E+03  0.37228842605E+03  0.47000000000E+01 0. -1.
<mgrwt>
<rscale>  0 0.47489118E+03</rscale>
<asrwt>0</asrwt>
<pdfrwt beam="1">  1       21 0.92514289E-02 0.47489118E+03</pdfrwt>
<pdfrwt beam="2">  1       21 0.14424232E+00 0.47489118E+03</pdfrwt>
<totfact> 0.27560972E+04</totfact>
</mgrwt>
</event>
<event>
 8    1  0.9123825E-006  0.2565866E+03  0.7546771E-02  0.1109212E+00
         21   -1    0    0  504  503  0.00000000000E+00  0.00000000000E+00  0.18771227107E+04  0.18771227107E+04  0.00000000000E+00 0. -1.
         21   -1    0    0  503  504 -0.00000000000E+00 -0.00000000000E+00 -0.87682959265E+01  0.87682959265E+01  0.00000000000E+00 0. -1.
         25    2    1    2    0    0 -0.25830268540E+02 -0.83686056996E+01  0.10064872472E+04  0.10145831049E+04  0.12500024688E+03 0.  0.
         25    2    1    2    0    0  0.25830268540E+02  0.83686056996E+01  0.86186716754E+03  0.87130790165E+03  0.12500083466E+03 0.  0.
          5    1    3    3  501    0 -0.49350634732E+02  0.40202019187E+02  0.34298033858E+03  0.34886858579E+03  0.47000000000E+01 0. -1.
         -5    1    3    3    0  501  0.23520366193E+02 -0.48570624886E+02  0.66350690862E+03  0.66571451915E+03  0.47000000000E+01 0. -1.
          5    1    4    4  502    0  0.32672432762E+02 -0.16685990257E+02  0.71498644543E+02  0.80498796916E+02  0.47000000000E+01 0.  1.
         -5    1    4    4    0  502 -0.68421642229E+01  0.25054595957E+02  0.79036852300E+03  0.79080910474E+03  0.47000000000E+01 0.  1.
<mgrwt>
<rscale>  0 0.25658657E+03</rscale>
<asrwt>0</asrwt>
<pdfrwt beam="1">  1       21 0.28878779E+00 0.25658657E+03</pdfrwt>
<pdfrwt beam="2">  1       21 0.13489701E-02 0.25658657E+03</pdfrwt>
<totfact> 0.88018302E+04</totfact>
</mgrwt>
</event>
<event>
 8    1  0.9123825E-006  0.2903095E+03  0.7546771E-02  0.1090188E+00
         21   -1    0    0  504  503  0.00000000000E+00  0.00000000000E+00  0.22639197538E+02  0.22639197538E+02  0.00000000000E+00 0.  1.
         21   -1    0    0  503  504 -0.00000000000E+00 -0.00000000000E+00 -0.93068264930E+03  0.93068264930E+03  0.00000000000E+00 0.  1.
         25    2    1    2    0    0  0.17948826493E+02 -0.69583166383E+02 -0.50913404079E+03  0.52915496473E+03  0.12499411100E+03 0.  0.
         25    2    1    2    0    0 -0.17948826493E+02  0.69583166383E+02 -0.39890941097E+03  0.42416688211E+03  0.12499939321E+03 0.  0.
          5    1    3    3  501    0  0.43216338764E+02 -0.28297221677E+02 -0.68895333232E+02  0.86238284027E+02  0.47000000000E+01 0.  1.
         -5    1    3    3    0  501 -0.25267512272E+02 -0.41285944706E+02 -0.44023870756E+03  0.44291668070E+03  0.47000000000E+01 0.  1.
          5    1    4    4  502    0 -0.71697341672E+02  0.37143448508E+02 -0.23873076959E+03  0.25206073657E+03  0.47000000000E+01 0. -1.
         -5    1    4    4    0  502  0.53748515179E+02  0.32439717874E+02 -0.16017864138E+03  0.17210614554E+03  0.47000000000E+01 0. -1.
<mgrwt>
<rscale>  0 0.29030955E+03</rscale>
<asrwt>0</asrwt>
<pdfrwt beam="1">  1       21 0.34829533E-02 0.29030955E+03</pdfrwt>
<pdfrwt beam="2">  1       21 0.14318195E+00 0.29030955E+03</pdfrwt>
<totfact> 0.16085863E+05</totfact>
</mgrwt>
</event>
<event>
 8    1  0.9123825E-006  0.3398593E+03  0.7546771E-02  0.1066856E+00
         21   -1    0    0  504  503  0.00000000000E+00  0.00000000000E+00  0.33563695250E+03  0.33563695250E+03  0.00000000000E+00 0. -1.
         21   -1    0    0  503  504 -0.00000000000E+00 -0.00000000000E+00 -0.86033669250E+02  0.86033669250E+02  0.00000000000E+00 0. -1.
         25    2    1    2    0    0 -0.21083351096E+02 -0.11262985981E+03  0.11116473343E+03  0.20276280050E+03  0.12500064917E+03 0.  0.
         25    2    1    2    0    0  0.21083351096E+02  0.11262985981E+03  0.13843854982E+03  0.21890782125E+03  0.12500163645E+03 0.  0.
          5    1    3    3  501    0  0.43493114007E+02 -0.55158328185E+01  0.34513309065E+02  0.55994052187E+02  0.47000000000E+01 0.  1.
         -5    1    3    3    0  501 -0.64576465103E+02 -0.10711402699E+03  0.76651424365E+02  0.14676874831E+03  0.47000000000E+01 0.  1.
          5    1    4    4  502    0  0.50000979658E+02  0.12179773340E+03  0.83510513139E+02  0.15598359411E+03  0.47000000000E+01 0.  1.
         -5    1    4    4    0  502 -0.28917628562E+02 -0.91678735861E+01  0.54928036678E+02  0.62924227139E+02  0.47000000000E+01 0.  1.
<mgrwt>
<rscale>  0 0.33985926E+03</rscale>
<asrwt>0</asrwt>
<pdfrwt beam="1">  1       21 0.51636453E-01 0.33985926E+03</pdfrwt>
<pdfrwt beam="2">  1       21 0.13235949E-01 0.33985926E+03</pdfrwt>
<totfact> 0.16844758E+05</totfact>
</mgrwt>
</event>
<event>
 8    1  0.9123825E-006  0.4270545E+03  0.7546771E-02  0.1034794E+00
         21   -1    0    0  504  503  0.00000000000E+00  0.00000000000E+00  0.11193041371E+03  0.11193041371E+03  0.00000000000E+00 0.  1.
         21   -1    0    0  503  504 -0.00000000000E+00 -0.00000000000E+00 -0.40734135623E+03  0.40734135623E+03  0.00000000000E+00 0.  1.
         25    2    1    2    0    0 -0.16169392307E+03 -0.52727026008E+02 -0.18697604121E+03  0.28197620827E+03  0.12500191204E+03 0.  0.
         25    2    1    2    0    0  0.16169392307E+03  0.52727026008E+02 -0.10843490131E+03  0.23729556166E+03  0.12500396686E+03 0.  0.
          5    1    3    3  501    0 -0.89316581883E+02  0.12386474437E+00 -0.16788766101E+03  0.19022571819E+03  0.47000000000E+01 0. -1.
         -5    1    3    3    0  501 -0.72377341191E+02 -0.52850890752E+02 -0.19088380197E+02  0.91750490079E+02  0.47000000000E+01 0. -1.
          5    1    4    4  502    0  0.37145328825E+02 -0.38020162000E+02 -0.47757862326E+02  0.71611532493E+02  0.47000000000E+01 0.  1.
         -5    1    4    4    0  502  0.12454859425E+03  0.90747188008E+02 -0.60677038982E+02  0.16568402917E+03  0.47000000000E+01 0.  1.
<mgrwt>
<rscale>  0 0.42705450E+03</rscale>
<asrwt>0</asrwt>
<pdfrwt beam="1">  1       21 0.17220064E-01 0.42705450E+03</pdfrwt>
<pdfrwt beam="2">  1       21 0.62667900E-01 0.42705450E+03</pdfrwt>
<totfact> 0.66825062E+04</totfact>
</mgrwt>
</event>
<event>
 8    1  0.9123825E-006  0.2517105E+03  0.7546771E-02  0.1112229E+00
         21   -1    0    0  504  503  0.00000000000E+00  0.00000000000E+00  0.66719391651E+02  0.66719391651E+02  0.00000000000E+00 0. -1.
         21   -1    0    0  503  504 -0.00000000000E+00 -0.00000000000E+00 -0.23740538955E+03  0.23740538955E+03  0.00000000000E+00 0. -1.
         25    2    1    2    0    0 -0.11945757366E+02  0.83059262940E+01 -0.83378818084E+02  0.15096044392E+03  0.12500135517E+03 0.  0.
         25    2    1    2    0    0  0.11945757366E+02 -0.83059262940E+01 -0.87307179811E+02  0.15316433727E+03  0.12500032414E+03 0.  0.
          5    1    3    3  501    0  0.44109646555E+02 -0.16062893072E+02 -0.75672227260E+02  0.89174286829E+02  0.47000000000E+01 0.  1.
         -5    1    3    3    0  501 -0.56055403921E+02  0.24368819366E+02 -0.77065908235E+01  0.61786157092E+02  0.47000000000E+01 0.  1.
          5    1    4    4  502    0 -0.23815707121E+02  0.41459317373E+02 -0.20814800514E+01  0.48088308995E+02  0.47000000000E+01 0. -1.
         -5    1    4    4    0  502  0.35761464488E+02 -0.49765243667E+02 -0.85225699760E+02  0.10507602828E+03  0.47000000000E+01 0. -1.
<mgrwt>
<rscale>  0 0.25171049E+03</rscale>
<asrwt>0</asrwt>
<pdfrwt beam="1">  1       21 0.10264522E-01 0.25171049E+03</pdfrwt>
<pdfrwt beam="2">  1       21 0.36523906E-01 0.25171049E+03</pdfrwt>
<totfact> 0.55399437E+05</totfact>
</mgrwt>
</event>
<event>
 8    1  0.9123825E-006  0.2641968E+03  0.7546771E-02  0.1104648E+00
         21   -1    0    0  504  503  0.00000000000E+00  0.00000000000E+00  0.90914429506E+02  0.90914429506E+02  0.00000000000E+00 0.  1.
         21   -1    0    0  503  504 -0.00000000000E+00 -0.00000000000E+00 -0.19193856208E+03  0.19193856208E+03  0.00000000000E+00 0.  1.
         25    2    1    2    0    0 -0.32861942552E+02  0.17152097888E+02 -0.27787468849E+02  0.13331274531E+03  0.12500417156E+03 0.  0.
         25    2    1    2    0    0  0.32861942552E+02 -0.17152097888E+02 -0.73236663727E+02  0.14954024628E+03  0.12499829844E+03 0.  0.
          5    1    3    3  501    0  0.43469840566E+02 -0.10190364633E+02  0.61034904780E+01  0.45307981264E+02  0.47000000000E+01 0.  1.
         -5    1    3    3    0  501 -0.76331783118E+02  0.27342462521E+02 -0.33890959327E+02  0.88004764046E+02  0.47000000000E+01 0.  1.
          5    1    4    4  502    0  0.79926581730E+02 -0.20248722086E+02 -0.52060190145E+02  0.97624907739E+02  0.47000000000E+01 0. -1.
         -5    1    4    4    0  502 -0.47064639178E+02  0.30966241983E+01 -0.21176473582E+02  0.51915338540E+02  0.47000000000E+01 0. -1.
<mgrwt>
<rscale>  0 0.26419678E+03</rscale>
<asrwt>0</asrwt>
<pdfrwt beam="1">  1       21 0.13986835E-01 0.26419678E+03</pdfrwt>
<pdfrwt beam="2">  1       21 0.29529009E-01 0.26419678E+03</pdfrwt>
<totfact> 0.48267304E+05</totfact>
</mgrwt>
</event>
<event>
 8    1  0.9123825E-006  0.3213756E+03  0.7546771E-02  0.1075018E+00
         21   -1    0    0  504  503  0.00000000000E+00  0.00000000000E+00  0.55325731943E+02  0.55325731943E+02  0.00000000000E+00 0. -1.
         21   -1    0    0  503  504 -0.00000000000E+00 -0.00000000000E+00 -0.46670079109E+03  0.46670079109E+03  0.00000000000E+00 0. -1.
         25    2    1    2    0    0 -0.95346914262E+02 -0.27534602990E+02 -0.23594396020E+03  0.28485752536E+03  0.12500027592E+03 0.  0.
         25    2    1    2    0    0  0.95346914262E+02  0.27534602990E+02 -0.17543109895E+03  0.23716899767E+03  0.12499549815E+03 0.  0.
          5    1    3    3  501    0 -0.47080174431E+02 -0.32115191439E+01 -0.22444377771E+03  0.22939911952E+03  0.47000000000E+01 0.  1.
         -5    1    3    3    0  501 -0.48266739831E+02 -0.24323083846E+02 -0.11500182484E+02  0.55458405845E+02  0.47000000000E+01 0.  1.
          5    1    4    4  502    0 -0.12254305278E+02 -0.10855011790E+02  0.96806226928E+01  0.19590909487E+02  0.47000000000E+01 0. -1.
         -5    1    4    4    0  502  0.10760121954E+03  0.38389614780E+02 -0.18511172164E+03  0.21757808819E+03  0.47000000000E+01 0. -1.
<mgrwt>
<rscale>  0 0.32137556E+03</rscale>
<asrwt>0</asrwt>
<pdfrwt beam="1">  1       21 0.85116511E-02 0.32137556E+03</pdfrwt>
<pdfrwt beam="2">  1       21 0.71800122E-01 0.32137556E+03</pdfrwt>
<totfact> 0.18199628E+05</totfact>
</mgrwt>
</event>
<event>
 8    1  0.9123825E-006  0.2636203E+03  0.7546771E-02  0.1104987E+00
         21   -1    0    0  504  503  0.00000000000E+00  0.00000000000E+00  0.97713001322E+03  0.97713001322E+03  0.00000000000E+00 0.  1.
         21   -1    0    0  503  504 -0.00000000000E+00 -0.00000000000E+00 -0.17780551043E+02  0.17780551043E+02  0.00000000000E+00 0.  1.
         25    2    1    2    0    0  0.60037396858E+01 -0.40637178342E+02  0.45024418339E+03  0.46907555876E+03  0.12499851999E+03 0.  0.
         25    2    1    2    0    0 -0.60037396858E+01  0.40637178342E+02  0.50910527879E+03  0.52583500550E+03  0.12500737164E+03 0.  0.
          5    1    3    3  501    0  0.88064512206E+01 -0.62739060331E+02  0.43919718862E+03  0.44376796163E+03  0.47000000000E+01 0.  1.
         -5    1    3    3    0  501 -0.28027115348E+01  0.22101881989E+02  0.11046994766E+02  0.25307597135E+02  0.47000000000E+01 0.  1.
          5    1    4    4  502    0  0.25737876529E+02  0.61529940740E+02  0.45300850802E+03  0.45791611703E+03  0.47000000000E+01 0.  1.
         -5    1    4    4    0  502 -0.31741616214E+02 -0.20892762398E+02  0.56096770765E+02  0.67918888468E+02  0.47000000000E+01 0.  1.
<mgrwt>
<rscale>  0 0.26362026E+03</rscale>
<asrwt>0</asrwt>
<pdfrwt beam="1">  1       21 0.15032765E+00 0.26362026E+03</pdfrwt>
<pdfrwt beam="2">  1       21 0.27354701E-02 0.26362026E+03</pdfrwt>
<totfact> 0.21338399E+05</totfact>
</mgrwt>
</event>
<event>
 8    1  0.9123825E-006  0.2692463E+03  0.7546771E-02  0.1101712E+00
         21   -1    0    0  504  503  0.00000000000E+00  0.00000000000E+00  0.15542825643E+02  0.15542825643E+02  0.00000000000E+00 0.  1.
         21   -1    0    0  503  504 -0.00000000000E+00 -0.00000000000E+00 -0.11660295905E+04  0.11660295905E+04  0.00000000000E+00 0.  1.
         25    2    1    2    0    0 -0.33274128172E+02  0.27267862177E+02 -0.46360013823E+03  0.48207970629E+03  0.12500020452E+03 0.  0.
         25    2    1    2    0    0  0.33274128172E+02 -0.27267862177E+02 -0.68688662666E+03  0.69949270989E+03  0.12500443750E+03 0.  0.
          5    1    3    3  501    0  0.45148425810E+02 -0.43698698397E-01 -0.11362248691E+03  0.12235416542E+03  0.47000000000E+01 0.  1.
         -5    1    3    3    0  501 -0.78422553982E+02  0.27311560875E+02 -0.34997765132E+03  0.35972554087E+03  0.47000000000E+01 0.  1.
          5    1    4    4  502    0  0.52466411260E+02 -0.49375664979E+02 -0.21749593348E+03  0.22916642791E+03  0.47000000000E+01 0.  1.
         -5    1    4    4    0  502 -0.19192283088E+02  0.22107802802E+02 -0.46939069318E+03  0.47032628197E+03  0.47000000000E+01 0.  1.
<mgrwt>
<rscale>  0 0.26924632E+03</rscale>
<asrwt>0</asrwt>
<pdfrwt beam="1">  1       21 0.23912035E-02 0.26924632E+03</pdfrwt>
<pdfrwt beam="2">  1       21 0.17938920E+00 0.26924632E+03</pdfrwt>
<totfact> 0.16341527E+05</totfact>
</mgrwt>
</event>
<event>
 8    1  0.9123825E-006  0.3502116E+03  0.7546771E-02  0.1062528E+00
         21   -1    0    0  504  503  0.00000000000E+00  0.00000000000E+00  0.33471021949E+03  0.33471021949E+03  0.00000000000E+00 0. -1.
         21   -1    0    0  503  504 -0.00000000000E+00 -0.00000000000E+00 -0.91607739710E+02  0.91607739710E+02  0.00000000000E+00 0. -1.
         25    2    1    2    0    0  0.34505399098E+02 -0.83453694467E+02  0.20566024500E+02  0.15557830131E+03  0.12500601901E+03 0.  0.
         25    2    1    2    0    0 -0.34505399098E+02  0.83453694467E+02  0.22253645528E+03  0.27073965789E+03  0.12498938650E+03 0.  0.
          5    1    3    3  501    0  0.14858884993E+02  0.85478801582E+01 -0.39877556418E+02  0.43659617775E+02  0.47000000000E+01 0.  1.
         -5    1    3    3    0  501  0.19646514104E+02 -0.92001574625E+02  0.60443580918E+02  0.11191868353E+03  0.47000000000E+01 0.  1.
          5    1    4    4  502    0  0.11377316576E+01  0.62034081167E+02  0.22176791901E+02  0.66056201515E+02  0.47000000000E+01 0.  1.
         -5    1    4    4    0  502 -0.35643130755E+02  0.21419613299E+02  0.20035966338E+03  0.20468345638E+03  0.47000000000E+01 0.  1.
<mgrwt>
<rscale>  0 0.35021163E+03</rscale>
<asrwt>0</asrwt>
<pdfrwt beam="1">  1       21 0.51493879E-01 0.35021163E+03</pdfrwt>
<pdfrwt beam="2">  1       21 0.14093499E-01 0.35021163E+03</pdfrwt>
<totfact> 0.15070705E+05</totfact>
</mgrwt>
</event>
<event>
 8    1  0.9123825E-006  0.3323127E+03  0.7546771E-02  0.1070118E+00
         21   -1    0    0  504  503  0.00000000000E+00  0.00000000000E+00  0.67602183834E+02  0.67602183834E+02  0.00000000000E+00 0. -1.
         21   -1    0    0  503  504 -0.00000000000E+00 -0.00000000000E+00 -0.40838827162E+03  0.40838827162E+03  0.00000000000E+00 0. -1.
         25    2    1    2    0    0  0.97086341790E+01  0.10706865137E+03 -0.19992075005E+03  0.25913614220E+03  0.12500112084E+03 0.  0.
         25    2    1    2    0    0 -0.97086341790E+01 -0.10706865137E+03 -0.14086533774E+03  0.21685431326E+03  0.12499918447E+03 0.  0.
          5    1    3    3  501    0 -0.29943627599E+02  0.11683234391E+03 -0.12553445546E+03  0.17414765840E+03  0.47000000000E+01 0.  1.
         -5    1    3    3    0  501  0.39652261778E+02 -0.97636925481E+01 -0.74386294587E+02  0.84988483800E+02  0.47000000000E+01 0.  1.
          5    1    4    4  502    0  0.47149604214E+02 -0.77960721230E+02 -0.11731535669E+03  0.14861339828E+03  0.47000000000E+01 0.  1.
         -5    1    4    4    0  502 -0.56858238393E+02 -0.29107930136E+02 -0.23549981053E+02  0.68240914982E+02  0.47000000000E+01 0.  1.
<mgrwt>
<rscale>  0 0.33231274E+03</rscale>
<asrwt>0</asrwt>
<pdfrwt beam="1">  1       21 0.10400336E-01 0.33231274E+03</pdfrwt>
<pdfrwt beam="2">  1       21 0.62828965E-01 0.33231274E+03</pdfrwt>
<totfact> 0.17087806E+05</totfact>
</mgrwt>
</event>
<event>
 8    1  0.9123825E-006  0.2953873E+03  0.7546771E-02  0.1087569E+00
         21   -1    0    0  504  503  0.00000000000E+00  0.00000000000E+00  0.62965125292E+02  0.62965125292E+02  0.00000000000E+00 0. -1.
         21   -1    0    0  503  504 -0.00000000000E+00 -0.00000000000E+00 -0.34643641633E+03  0.34643641633E+03  0.00000000000E+00 0. -1.
         25    2    1    2    0    0 -0.60002436431E+02  0.43476482531E+02 -0.17835365123E+03  0.23005657887E+03  0.12500203063E+03 0.  0.
         25    2    1    2    0    0  0.60002436431E+02 -0.43476482531E+02 -0.10511763981E+03  0.17934496275E+03  0.12499760220E+03 0.  0.
          5    1    3    3  501    0 -0.70549398031E+01  0.18920686654E+02 -0.16958790967E+03  0.17085055945E+03  0.47000000000E+01 0. -1.
         -5    1    3    3    0  501 -0.52947496628E+02  0.24555795877E+02 -0.87657415646E+01  0.59206019419E+02  0.47000000000E+01 0. -1.
          5    1    4    4  502    0  0.78060986081E+02  0.17118109253E+02 -0.44323971091E+02  0.91505473200E+02  0.47000000000E+01 0.  1.
         -5    1    4    4    0  502 -0.18058549650E+02 -0.60594591784E+02 -0.60793668717E+02  0.87839489553E+02  0.47000000000E+01 0.  1.
<mgrwt>
<rscale>  0 0.29538729E+03</rscale>
<asrwt>0</asrwt>
<pdfrwt beam="1">  1       21 0.96869424E-02 0.29538729E+03</pdfrwt>
<pdfrwt beam="2">  1       21 0.53297910E-01 0.29538729E+03</pdfrwt>
<totfact> 0.27896952E+05</totfact>
</mgrwt>
</event>
<event>
 8    1  0.9123825E-006  0.2554275E+03  0.7546771E-02  0.1109922E+00
         21   -1    0    0  504  503  0.00000000000E+00  0.00000000000E+00  0.77312105045E+02  0.77312105045E+02  0.00000000000E+00 0.  1.
         21   -1    0    0  503  504 -0.00000000000E+00 -0.00000000000E+00 -0.21097345496E+03  0.21097345496E+03  0.00000000000E+00 0.  1.
         25    2    1    2    0    0 -0.98286739511E+01  0.24496215037E+02 -0.69319385848E+02  0.14531491192E+03  0.12495830901E+03 0.  0.
         25    2    1    2    0    0  0.98286739511E+01 -0.24496215037E+02 -0.64341964064E+02  0.14297064808E+03  0.12491617385E+03 0.  0.
          5    1    3    3  501    0 -0.40245042583E+02  0.17978318136E+02 -0.94916260159E+02  0.10475719459E+03  0.47000000000E+01 0. -1.
         -5    1    3    3    0  501  0.30416368632E+02  0.65178969008E+01  0.25596874311E+02  0.40557717333E+02  0.47000000000E+01 0. -1.
          5    1    4    4  502    0 -0.50881380741E+01  0.39353237850E+02  0.12480183914E+02  0.41861813971E+02  0.47000000000E+01 0. -1.
         -5    1    4    4    0  502  0.14916812025E+02 -0.63849452888E+02 -0.76822147979E+02  0.10110883411E+03  0.47000000000E+01 0. -1.
<mgrwt>
<rscale>  0 0.25542750E+03</rscale>
<asrwt>0</asrwt>
<pdfrwt beam="1">  1       21 0.11894170E-01 0.25542750E+03</pdfrwt>
<pdfrwt beam="2">  1       21 0.32457454E-01 0.25542750E+03</pdfrwt>
<totfact> 0.53815842E+05</totfact>
</mgrwt>
</event>
<event>
 8    1  0.9123825E-006  0.3153763E+03  0.7546771E-02  0.1077797E+00
         21   -1    0    0  504  503  0.00000000000E+00  0.00000000000E+00  0.13072210674E+03  0.13072210674E+03  0.00000000000E+00 0. -1.
         21   -1    0    0  503  504 -0.00000000000E+00 -0.00000000000E+00 -0.19021685591E+03  0.19021685591E+03  0.00000000000E+00 0. -1.
         25    2    1    2    0    0  0.27510906730E+02  0.10396561907E+02  0.63385570972E+02  0.14320434428E+03  0.12499926050E+03 0.  0.
         25    2    1    2    0    0 -0.27510906730E+02 -0.10396561907E+02 -0.12288032014E+03  0.17773461837E+03  0.12500033200E+03 0.  0.
          5    1    3    3  501    0  0.61258148261E+02  0.16192898993E+02 -0.78573218362E+01  0.64020295318E+02  0.47000000000E+01 0. -1.
         -5    1    3    3    0  501 -0.33747241532E+02 -0.57963370853E+01  0.71242892808E+02  0.79184048963E+02  0.47000000000E+01 0. -1.
          5    1    4    4  502    0 -0.57130384366E+02  0.10526771004E+02 -0.12815813499E+03  0.14078810777E+03  0.47000000000E+01 0.  1.
         -5    1    4    4    0  502  0.29619477637E+02 -0.20923332911E+02  0.52778148551E+01  0.36946510596E+02  0.47000000000E+01 0.  1.
<mgrwt>
<rscale>  0 0.31537627E+03</rscale>
<asrwt>0</asrwt>
<pdfrwt beam="1">  1       21 0.20111093E-01 0.31537627E+03</pdfrwt>
<pdfrwt beam="2">  1       21 0.29264132E-01 0.31537627E+03</pdfrwt>
<totfact> 0.24803316E+05</totfact>
</mgrwt>
</event>
<event>
 8    1  0.9123825E-006  0.3682687E+03  0.7546771E-02  0.1055357E+00
         21   -1    0    0  504  503  0.00000000000E+00  0.00000000000E+00  0.11530099388E+03  0.11530099388E+03  0.00000000000E+00 0.  1.
         21   -1    0    0  503  504 -0.00000000000E+00 -0.00000000000E+00 -0.29406043219E+03  0.29406043219E+03  0.00000000000E+00 0.  1.
         25    2    1    2    0    0  0.50443247835E+02  0.60347391840E+01 -0.22865918051E+03  0.26550165711E+03  0.12500067907E+03 0.  0.
         25    2    1    2    0    0 -0.50443247835E+02 -0.60347391840E+01  0.49899742192E+02  0.14385976896E+03  0.12499883810E+03 0.  0.
          5    1    3    3  501    0 -0.14654931593E+02 -0.79030297946E+01  0.83963720183E+01  0.19230547652E+02  0.47000000000E+01 0. -1.
         -5    1    3    3    0  501  0.65098179428E+02  0.13937768979E+02 -0.23705555253E+03  0.24627110946E+03  0.47000000000E+01 0. -1.
          5    1    4    4  502    0  0.19046117389E+02 -0.41581040625E+02 -0.78629158115E+01  0.46643895336E+02  0.47000000000E+01 0.  1.
         -5    1    4    4    0  502 -0.69489365224E+02  0.35546301441E+02  0.57762658003E+02  0.97215873627E+02  0.47000000000E+01 0.  1.
<mgrwt>
<rscale>  0 0.36826871E+03</rscale>
<asrwt>0</asrwt>
<pdfrwt beam="1">  1       21 0.17738614E-01 0.36826871E+03</pdfrwt>
<pdfrwt beam="2">  1       21 0.45240066E-01 0.36826871E+03</pdfrwt>
<totfact> 0.12870773E+05</totfact>
</mgrwt>
</event>
<event>
 8    1  0.9123825E-006  0.5126020E+03  0.7546771E-02  0.1010541E+00
         21   -1    0    0  504  503  0.00000000000E+00  0.00000000000E+00  0.17619386579E+04  0.17619386579E+04  0.00000000000E+00 0.  1.
         21   -1    0    0  503  504 -0.00000000000E+00 -0.00000000000E+00 -0.37282913813E+02  0.37282913813E+02  0.00000000000E+00 0.  1.
         25    2    1    2    0    0  0.14186063295E+03  0.54403612889E+02  0.14389315579E+04  0.14523201454E+04  0.12500233599E+03 0.  0.
         25    2    1    2    0    0 -0.14186063295E+03 -0.54403612889E+02  0.28572418615E+03  0.34690142632E+03  0.12497238398E+03 0.  0.
          5    1    3    3  501    0  0.33252379746E+02 -0.25807391529E+02  0.13698871163E+03  0.14338667766E+03  0.47000000000E+01 0.  1.
         -5    1    3    3    0  501  0.10860825321E+03  0.80211004418E+02  0.13019428463E+04  0.13089334677E+04  0.47000000000E+01 0.  1.
          5    1    4    4  502    0 -0.12058225829E+03 -0.45718742212E+02  0.10984497547E+03  0.16946472506E+03  0.47000000000E+01 0.  1.
         -5    1    4    4    0  502 -0.21278374665E+02 -0.86848706770E+01  0.17587921068E+03  0.17743670126E+03  0.47000000000E+01 0.  1.
<mgrwt>
<rscale>  0 0.51260202E+03</rscale>
<asrwt>0</asrwt>
<pdfrwt beam="1">  1       21 0.27106742E+00 0.51260202E+03</pdfrwt>
<pdfrwt beam="2">  1       21 0.57358343E-02 0.51260202E+03</pdfrwt>
<totfact> 0.88389472E+03</totfact>
</mgrwt>
</event>
<event>
 8    1  0.9123825E-006  0.3822041E+03  0.7546771E-02  0.1050122E+00
         21   -1    0    0  504  503  0.00000000000E+00  0.00000000000E+00  0.42930327068E+03  0.42930327068E+03  0.00000000000E+00 0.  1.
         21   -1    0    0  503  504 -0.00000000000E+00 -0.00000000000E+00 -0.85068070319E+02  0.85068070319E+02  0.00000000000E+00 0.  1.
         25    2    1    2    0    0  0.57009489654E+00  0.39723027108E+02 -0.14929081188E+02  0.13200765873E+03  0.12499960243E+03 0.  0.
         25    2    1    2    0    0 -0.57009489654E+00 -0.39723027108E+02  0.35916428154E+03  0.38236368227E+03  0.12499904195E+03 0.  0.
          5    1    3    3  501    0 -0.61897824536E+02  0.19946568430E+02 -0.11644389638E+02  0.66233587284E+02  0.47000000000E+01 0.  1.
         -5    1    3    3    0  501  0.62467919433E+02  0.19776458678E+02 -0.32846915496E+01  0.65774071446E+02  0.47000000000E+01 0.  1.
          5    1    4    4  502    0 -0.47976071430E+02  0.81201986179E+01  0.69727741893E+02  0.85156849666E+02  0.47000000000E+01 0.  1.
         -5    1    4    4    0  502  0.47405976533E+02 -0.47843225726E+02  0.28943653965E+03  0.29720683260E+03  0.47000000000E+01 0.  1.
<mgrwt>
<rscale>  0 0.38220414E+03</rscale>
<asrwt>0</asrwt>
<pdfrwt beam="1">  1       21 0.66046656E-01 0.38220414E+03</pdfrwt>
<pdfrwt beam="2">  1       21 0.13087396E-01 0.38220414E+03</pdfrwt>
<totfact> 0.99859615E+04</totfact>
</mgrwt>
</event>
<event>
 8    1  0.9123825E-006  0.2557279E+03  0.7546771E-02  0.1109738E+00
         21   -1    0    0  504  503  0.00000000000E+00  0.00000000000E+00  0.13425044172E+03  0.13425044172E+03  0.00000000000E+00 0.  1.
         21   -1    0    0  503  504 -0.00000000000E+00 -0.00000000000E+00 -0.12178124129E+03  0.12178124129E+03  0.00000000000E+00 0.  1.
         25    2    1    2    0    0 -0.14198920421E+02  0.22516847089E+02  0.10202297932E+02  0.12820877332E+03  0.12499913971E+03 0.  0.
         25    2    1    2    0    0  0.14198920421E+02 -0.22516847089E+02  0.22669024930E+01  0.12782290969E+03  0.12499975860E+03 0.  0.
          5    1    3    3  501    0  0.50734658352E+02  0.32222931108E+02  0.15273291599E+02  0.62190725060E+02  0.47000000000E+01 0.  1.
         -5    1    3    3    0  501 -0.64933578772E+02 -0.97060840194E+01 -0.50709936677E+01  0.66018048259E+02  0.47000000000E+01 0.  1.
          5    1    4    4  502    0  0.15775571496E+02 -0.59240289159E+02  0.41247999629E+02  0.74038962642E+02  0.47000000000E+01 0. -1.
         -5    1    4    4    0  502 -0.15766510752E+01  0.36723442070E+02 -0.38981097136E+02  0.53783947047E+02  0.47000000000E+01 0. -1.
<mgrwt>
<rscale>  0 0.25572787E+03</rscale>
<asrwt>0</asrwt>
<pdfrwt beam="1">  1       21 0.20653914E-01 0.25572787E+03</pdfrwt>
<pdfrwt beam="2">  1       21 0.18735576E-01 0.25572787E+03</pdfrwt>
<totfact> 0.56013821E+05</totfact>
</mgrwt>
</event>
<event>
 8    1  0.9123825E-006  0.3125524E+03  0.7546771E-02  0.1079129E+00
         21   -1    0    0  504  503  0.00000000000E+00  0.00000000000E+00  0.95139847677E+02  0.95139847677E+02  0.00000000000E+00 0.  1.
         21   -1    0    0  503  504 -0.00000000000E+00 -0.00000000000E+00 -0.25669846960E+03  0.25669846960E+03  0.00000000000E+00 0.  1.
         25    2    1    2    0    0  0.17065495397E+02 -0.45376592654E+02 -0.17119754967E+03  0.21744477177E+03  0.12499344568E+03 0.  0.
         25    2    1    2    0    0 -0.17065495397E+02  0.45376592654E+02  0.96389277443E+01  0.13439354551E+03  0.12497379666E+03 0.  0.
          5    1    3    3  501    0 -0.44850873269E+02 -0.53330845754E+02 -0.10700236302E+03  0.12777861962E+03  0.47000000000E+01 0.  1.
         -5    1    3    3    0  501  0.61916368666E+02  0.79542530997E+01 -0.64195186649E+02  0.89666152142E+02  0.47000000000E+01 0.  1.
          5    1    4    4  502    0 -0.67633967076E+02  0.28149449468E+02 -0.15717599567E+02  0.75072484599E+02  0.47000000000E+01 0. -1.
         -5    1    4    4    0  502  0.50568471679E+02  0.17227143187E+02  0.25356527312E+02  0.59321060911E+02  0.47000000000E+01 0. -1.
<mgrwt>
<rscale>  0 0.31255242E+03</rscale>
<asrwt>0</asrwt>
<pdfrwt beam="1">  1       21 0.14636899E-01 0.31255242E+03</pdfrwt>
<pdfrwt beam="2">  1       21 0.39492073E-01 0.31255242E+03</pdfrwt>
<totfact> 0.24617270E+05</totfact>
</mgrwt>
</event>
<event>
 8    1  0.9123825E-006  0.6451082E+03  0.7546771E-02  0.9816002E-01
         21   -1    0    0  504  503  0.00000000000E+00  0.00000000000E+00  0.14892258695E+04  0.14892258695E+04  0.00000000000E+00 0. -1.
         21   -1    0    0  503  504 -0.00000000000E+00 -0.00000000000E+00 -0.69862566346E+02  0.69862566346E+02  0.00000000000E+00 0. -1.
         25    2    1    2    0    0 -0.25866858597E+03 -0.62241738041E+02  0.10306061730E+04  0.10717080130E+04  0.12500204006E+03 0.  0.
         25    2    1    2    0    0  0.25866858597E+03  0.62241738041E+02  0.38875713017E+03  0.48738042284E+03  0.12499639590E+03 0.  0.
          5    1    3    3  501    0 -0.16897586991E+03  0.21749593918E+02  0.56601460200E+03  0.59111801624E+03  0.47000000000E+01 0. -1.
         -5    1    3    3    0  501 -0.89692716068E+02 -0.83991331959E+02  0.46459157100E+03  0.48058999678E+03  0.47000000000E+01 0. -1.
          5    1    4    4  502    0  0.26415743957E+02  0.54809385667E+02  0.69601066321E+02  0.92564889235E+02  0.47000000000E+01 0. -1.
         -5    1    4    4    0  502  0.23225284202E+03  0.74323523739E+01  0.31915606385E+03  0.39481553361E+03  0.47000000000E+01 0. -1.
<mgrwt>
<rscale>  0 0.64510818E+03</rscale>
<asrwt>0</asrwt>
<pdfrwt beam="1">  1       21 0.22911165E+00 0.64510818E+03</pdfrwt>
<pdfrwt beam="2">  1       21 0.10748088E-01 0.64510818E+03</pdfrwt>
<totfact> 0.50567504E+03</totfact>
</mgrwt>
</event>
<event>
 8    1  0.9123825E-006  0.6828798E+03  0.7546771E-02  0.9746966E-01
         21   -1    0    0  504  503  0.00000000000E+00  0.00000000000E+00  0.25519941445E+03  0.25519941445E+03  0.00000000000E+00 0. -1.
         21   -1    0    0  503  504 -0.00000000000E+00 -0.00000000000E+00 -0.45682401128E+03  0.45682401128E+03  0.00000000000E+00 0. -1.
         25    2    1    2    0    0  0.34847762739E+02  0.29743012085E+03 -0.21153653772E+03  0.38736602975E+03  0.12500276338E+03 0.  0.
         25    2    1    2    0    0 -0.34847762739E+02 -0.29743012085E+03  0.99119408961E+01  0.32465739598E+03  0.12500053933E+03 0.  0.
          5    1    3    3  501    0 -0.20184924564E+02  0.11644781105E+03 -0.23475700196E+02  0.12058491770E+03  0.47000000000E+01 0. -1.
         -5    1    3    3    0  501  0.55032687302E+02  0.18098230980E+03 -0.18806083753E+03  0.26678111205E+03  0.47000000000E+01 0. -1.
          5    1    4    4  502    0 -0.71469995601E+02 -0.22698059535E+03 -0.21844532460E+02  0.23901344007E+03  0.47000000000E+01 0.  1.
         -5    1    4    4    0  502  0.36622232862E+02 -0.70449525504E+02  0.31756473356E+02  0.85643955908E+02  0.47000000000E+01 0.  1.
<mgrwt>
<rscale>  0 0.68287984E+03</rscale>
<asrwt>0</asrwt>
<pdfrwt beam="1">  1       21 0.39261448E-01 0.68287984E+03</pdfrwt>
<pdfrwt beam="2">  1       21 0.70280617E-01 0.68287984E+03</pdfrwt>
<totfact> 0.97086556E+03</totfact>
</mgrwt>
</event>
<event>
 8    1  0.9123825E-006  0.2810561E+03  0.7546771E-02  0.1095114E+00
         21   -1    0    0  504  503  0.00000000000E+00  0.00000000000E+00  0.14356479206E+03  0.14356479206E+03  0.00000000000E+00 0.  1.
         21   -1    0    0  503  504 -0.00000000000E+00 -0.00000000000E+00 -0.13755551891E+03  0.13755551891E+03  0.00000000000E+00 0.  1.
         25    2    1    2    0    0  0.31260165509E+02  0.38916019268E+01 -0.52965541444E+02  0.13936458660E+03  0.12499918761E+03 0.  0.
         25    2    1    2    0    0 -0.31260165509E+02 -0.38916019268E+01  0.58974814600E+02  0.14175572437E+03  0.12499725646E+03 0.  0.
          5    1    3    3  501    0  0.65221528897E+00  0.63825465026E+01 -0.90382404423E+02  0.90731644501E+02  0.47000000000E+01 0.  1.
         -5    1    3    3    0  501  0.30607950220E+02 -0.24909445757E+01  0.37416862979E+02  0.48632942094E+02  0.47000000000E+01 0.  1.
          5    1    4    4  502    0 -0.46384046073E+02 -0.52030579148E+01  0.93022652301E+02  0.10418183807E+03  0.47000000000E+01 0.  1.
         -5    1    4    4    0  502  0.15123880564E+02  0.13114559880E+01 -0.34047837701E+02  0.37573886307E+02  0.47000000000E+01 0.  1.
<mgrwt>
<rscale>  0 0.28105608E+03</rscale>
<asrwt>0</asrwt>
<pdfrwt beam="1">  1       21 0.22086891E-01 0.28105608E+03</pdfrwt>
<pdfrwt beam="2">  1       21 0.21162388E-01 0.28105608E+03</pdfrwt>
<totfact> 0.39055169E+05</totfact>
</mgrwt>
</event>
<event>
 8    1  0.9123825E-006  0.2512971E+03  0.7546771E-02  0.1112488E+00
         21   -1    0    0  504  503  0.00000000000E+00  0.00000000000E+00  0.41620058196E+03  0.41620058196E+03  0.00000000000E+00 0.  1.
         21   -1    0    0  503  504 -0.00000000000E+00 -0.00000000000E+00 -0.37932568833E+02  0.37932568833E+02  0.00000000000E+00 0.  1.
         25    2    1    2    0    0  0.83552780978E+01 -0.60477786143E+01  0.17546334762E+03  0.21567517227E+03  0.12498802853E+03 0.  0.
         25    2    1    2    0    0 -0.83552780978E+01  0.60477786143E+01  0.20280466551E+03  0.23845797853E+03  0.12500435542E+03 0.  0.
          5    1    3    3  501    0  0.24991605142E+02 -0.41281619022E+02  0.16910308398E+03  0.17591672862E+03  0.47000000000E+01 0. -1.
         -5    1    3    3    0  501 -0.16636327044E+02  0.35233840408E+02  0.63602636396E+01  0.39758443644E+02  0.47000000000E+01 0. -1.
          5    1    4    4  502    0  0.15307421617E+02  0.37090333820E+02  0.99091433718E+01  0.41596768406E+02  0.47000000000E+01 0. -1.
         -5    1    4    4    0  502 -0.23662699715E+02 -0.31042555206E+02  0.19289552213E+03  0.19686121012E+03  0.47000000000E+01 0. -1.
<mgrwt>
<rscale>  0 0.25129709E+03</rscale>
<asrwt>0</asrwt>
<pdfrwt beam="1">  1       21 0.64030855E-01 0.25129709E+03</pdfrwt>
<pdfrwt beam="2">  1       21 0.58357801E-02 0.25129709E+03</pdfrwt>
<totfact> 0.45964238E+05</totfact>
</mgrwt>
</event>
<event>
 8    1  0.9123825E-006  0.2578472E+03  0.7546771E-02  0.1108444E+00
         21   -1    0    0  504  503  0.00000000000E+00  0.00000000000E+00  0.25800135583E+02  0.25800135583E+02  0.00000000000E+00 0. -1.
         21   -1    0    0  503  504 -0.00000000000E+00 -0.00000000000E+00 -0.64423273897E+03  0.64423273897E+03  0.00000000000E+00 0. -1.
         25    2    1    2    0    0  0.85379784323E+01  0.21243985330E+02 -0.25267650248E+03  0.28283305749E+03  0.12499967806E+03 0.  0.
         25    2    1    2    0    0 -0.85379784323E+01 -0.21243985330E+02 -0.36575610090E+03  0.38719981706E+03  0.12498787540E+03 0.  0.
          5    1    3    3  501    0  0.33097444657E+02 -0.26929646348E+02 -0.26979393500E+02  0.50701325120E+02  0.47000000000E+01 0.  1.
         -5    1    3    3    0  501 -0.24559466225E+02  0.48173631678E+02 -0.22569710898E+03  0.23213173237E+03  0.47000000000E+01 0.  1.
          5    1    4    4  502    0 -0.24415748913E+01  0.19562820185E+00 -0.36433747423E+03  0.36437602101E+03  0.47000000000E+01 0.  1.
         -5    1    4    4    0  502 -0.60964035410E+01 -0.21439613532E+02 -0.14186266721E+01  0.22823796051E+02  0.47000000000E+01 0.  1.
<mgrwt>
<rscale>  0 0.25784718E+03</rscale>
<asrwt>0</asrwt>
<pdfrwt beam="1">  1       21 0.39692514E-02 0.25784718E+03</pdfrwt>
<pdfrwt beam="2">  1       21 0.99112734E-01 0.25784718E+03</pdfrwt>
<totfact> 0.32692851E+05</totfact>
</mgrwt>
</event>
<event>
 8    1  0.9123825E-006  0.2648661E+03  0.7546771E-02  0.1104254E+00
         21   -1    0    0  504  503  0.00000000000E+00  0.00000000000E+00  0.51227360094E+02  0.51227360094E+02  0.00000000000E+00 0.  1.
         21   -1    0    0  503  504 -0.00000000000E+00 -0.00000000000E+00 -0.34236613206E+03  0.34236613206E+03  0.00000000000E+00 0.  1.
         25    2    1    2    0    0 -0.56196630268E+00 -0.39352347244E+02 -0.17398047569E+03  0.21780935245E+03  0.12499113989E+03 0.  0.
         25    2    1    2    0    0  0.56196630268E+00  0.39352347244E+02 -0.11715829627E+03  0.17578413970E+03  0.12500029738E+03 0.  0.
          5    1    3    3  501    0 -0.56218121368E+02 -0.19124991223E+02 -0.41437508507E+02  0.72563073052E+02  0.47000000000E+01 0.  1.
         -5    1    3    3    0  501  0.55656155066E+02 -0.20227356020E+02 -0.13254296719E+03  0.14524627940E+03  0.47000000000E+01 0.  1.
          5    1    4    4  502    0 -0.58199655400E+02  0.16394856761E+02 -0.28863402400E+02  0.67165297699E+02  0.47000000000E+01 0.  1.
         -5    1    4    4    0  502  0.58761621703E+02  0.22957490483E+02 -0.88294893873E+02  0.10861884200E+03  0.47000000000E+01 0.  1.
<mgrwt>
<rscale>  0 0.26486610E+03</rscale>
<asrwt>0</asrwt>
<pdfrwt beam="1">  1       21 0.78811327E-02 0.26486610E+03</pdfrwt>
<pdfrwt beam="2">  1       21 0.52671710E-01 0.26486610E+03</pdfrwt>
<totfact> 0.41426821E+05</totfact>
</mgrwt>
</event>
<event>
 8    1  0.9123825E-006  0.3128568E+03  0.7546771E-02  0.1078985E+00
         21   -1    0    0  504  503  0.00000000000E+00  0.00000000000E+00  0.51903908870E+03  0.51903908870E+03  0.00000000000E+00 0. -1.
         21   -1    0    0  503  504 -0.00000000000E+00 -0.00000000000E+00 -0.47144505210E+02  0.47144505210E+02  0.00000000000E+00 0. -1.
         25    2    1    2    0    0  0.62856074459E+02  0.64788483923E+02  0.18819729241E+03  0.24329376619E+03  0.12500080820E+03 0.  0.
         25    2    1    2    0    0 -0.62856074459E+02 -0.64788483923E+02  0.28369729108E+03  0.32288982772E+03  0.12500101653E+03 0.  0.
          5    1    3    3  501    0 -0.32059733009E+02 -0.80906936740E+01  0.53371358920E+02  0.62959334159E+02  0.47000000000E+01 0. -1.
         -5    1    3    3    0  501  0.94915807468E+02  0.72879177597E+02  0.13482593349E+03  0.18033443203E+03  0.47000000000E+01 0. -1.
          5    1    4    4  502    0  0.10941481838E+02 -0.24717204837E+01 -0.86757028821E+01  0.14939318842E+02  0.47000000000E+01 0. -1.
         -5    1    4    4    0  502 -0.73797556297E+02 -0.62316763439E+02  0.29237299396E+03  0.30795050888E+03  0.47000000000E+01 0. -1.
<mgrwt>
<rscale>  0 0.31285678E+03</rscale>
<asrwt>0</asrwt>
<pdfrwt beam="1">  1       21 0.79852164E-01 0.31285678E+03</pdfrwt>
<pdfrwt beam="2">  1       21 0.72530012E-02 0.31285678E+03</pdfrwt>
<totfact> 0.18987627E+05</totfact>
</mgrwt>
</event>
<event>
 8    1  0.9123825E-006  0.3190384E+03  0.7546771E-02  0.1076093E+00
         21   -1    0    0  504  503  0.00000000000E+00  0.00000000000E+00  0.33043641959E+03  0.33043641959E+03  0.00000000000E+00 0. -1.
         21   -1    0    0  503  504 -0.00000000000E+00 -0.00000000000E+00 -0.77008368074E+02  0.77008368074E+02  0.00000000000E+00 0. -1.
         25    2    1    2    0    0 -0.17548950944E+02 -0.60375694523E+01  0.25104403696E+03  0.28105499003E+03  0.12499752398E+03 0.  0.
         25    2    1    2    0    0  0.17548950944E+02  0.60375694523E+01  0.23840145483E+01  0.12638979763E+03  0.12499711795E+03 0.  0.
          5    1    3    3  501    0  0.53839674841E+02  0.35087465638E+01  0.10448672331E+03  0.11768851786E+03  0.47000000000E+01 0. -1.
         -5    1    3    3    0  501 -0.71388625785E+02 -0.95463160161E+01  0.14655731366E+03  0.16336647216E+03  0.47000000000E+01 0. -1.
          5    1    4    4  502    0  0.54302550330E+02  0.16563864736E+02 -0.39626218478E+02  0.69393485128E+02  0.47000000000E+01 0.  1.
         -5    1    4    4    0  502 -0.36753599386E+02 -0.10526295284E+02  0.42010233026E+02  0.56996312505E+02  0.47000000000E+01 0.  1.
<mgrwt>
<rscale>  0 0.31903836E+03</rscale>
<asrwt>0</asrwt>
<pdfrwt beam="1">  1       21 0.50836371E-01 0.31903836E+03</pdfrwt>
<pdfrwt beam="2">  1       21 0.11847441E-01 0.31903836E+03</pdfrwt>
<totfact> 0.21388266E+05</totfact>
</mgrwt>
</event>
<event>
 8    1  0.9123825E-006  0.4159926E+03  0.7546771E-02  0.1038379E+00
         21   -1    0    0  504  503  0.00000000000E+00  0.00000000000E+00  0.19662202460E+03  0.19662202460E+03  0.00000000000E+00 0. -1.
         21   -1    0    0  503  504 -0.00000000000E+00 -0.00000000000E+00 -0.22002852203E+03  0.22002852203E+03  0.00000000000E+00 0. -1.
         25    2    1    2    0    0 -0.11234847263E+03  0.44724670488E+02 -0.12597947199E+03  0.21475068761E+03  0.12499822004E+03 0.  0.
         25    2    1    2    0    0  0.11234847263E+03 -0.44724670488E+02  0.10257297456E+03  0.20189985903E+03  0.12497944836E+03 0.  0.
          5    1    3    3  501    0  0.11265974646E+02  0.17183461264E+02 -0.75411679022E+02  0.78302010566E+02  0.47000000000E+01 0. -1.
         -5    1    3    3    0  501 -0.12361444728E+03  0.27541209223E+02 -0.50567792969E+02  0.13644867704E+03  0.47000000000E+01 0. -1.
          5    1    4    4  502    0  0.90711634666E+02 -0.85365030255E+02  0.57415328604E+02  0.13723847497E+03  0.47000000000E+01 0. -1.
         -5    1    4    4    0  502  0.21636837967E+02  0.40640359768E+02  0.45157645957E+02  0.64661384052E+02  0.47000000000E+01 0. -1.
<mgrwt>
<rscale>  0 0.41599256E+03</rscale>
<asrwt>0</asrwt>
<pdfrwt beam="1">  1       21 0.30249542E-01 0.41599256E+03</pdfrwt>
<pdfrwt beam="2">  1       21 0.33850542E-01 0.41599256E+03</pdfrwt>
<totfact> 0.82536690E+04</totfact>
</mgrwt>
</event>
<event>
 8    1  0.9123825E-006  0.2827798E+03  0.7546771E-02  0.1094180E+00
         21   -1    0    0  504  503  0.00000000000E+00  0.00000000000E+00  0.16221277264E+04  0.16221277264E+04  0.00000000000E+00 0. -1.
         21   -1    0    0  503  504 -0.00000000000E+00 -0.00000000000E+00 -0.12323998229E+02  0.12323998229E+02  0.00000000000E+00 0. -1.
         25    2    1    2    0    0  0.26632810708E+02  0.54599408416E+02  0.95531404411E+03  0.96537093786E+03  0.12500289110E+03 0.  0.
         25    2    1    2    0    0 -0.26632810708E+02 -0.54599408416E+02  0.65448968409E+03  0.66908078680E+03  0.12498780212E+03 0.  0.
          5    1    3    3  501    0  0.16375969711E+02  0.38041396732E+02  0.93789652060E+03  0.93882229075E+03  0.47000000000E+01 0.  1.
         -5    1    3    3    0  501  0.10256840997E+02  0.16558011684E+02  0.17417523503E+02  0.26548647106E+02  0.47000000000E+01 0.  1.
          5    1    4    4  502    0 -0.24224134667E+01 -0.69125368192E+02  0.62171077585E+03  0.62556419608E+03  0.47000000000E+01 0.  1.
         -5    1    4    4    0  502 -0.24210397241E+02  0.14525959776E+02  0.32778908239E+02  0.43516590713E+02  0.47000000000E+01 0.  1.
<mgrwt>
<rscale>  0 0.28277977E+03</rscale>
<asrwt>0</asrwt>
<pdfrwt beam="1">  1       21 0.24955794E+00 0.28277977E+03</pdfrwt>
<pdfrwt beam="2">  1       21 0.18960010E-02 0.28277977E+03</pdfrwt>
<totfact> 0.85055947E+04</totfact>
</mgrwt>
</event>
<event>
 8    1  0.9123825E-006  0.3572580E+03  0.7546771E-02  0.1059675E+00
         21   -1    0    0  504  503  0.00000000000E+00  0.00000000000E+00  0.27044218475E+02  0.27044218475E+02  0.00000000000E+00 0. -1.
         21   -1    0    0  503  504 -0.00000000000E+00 -0.00000000000E+00 -0.11798572276E+04  0.11798572276E+04  0.00000000000E+00 0. -1.
         25    2    1    2    0    0  0.64327791301E+02 -0.53834572210E+02 -0.90125540509E+03  0.91374225899E+03  0.12500953866E+03 0.  0.
         25    2    1    2    0    0 -0.64327791301E+02  0.53834572210E+02 -0.25155760405E+03  0.29315918710E+03  0.12499941971E+03 0.  0.
          5    1    3    3  501    0  0.55933371476E+01 -0.52399609884E+02 -0.74277294249E+03  0.74465477816E+03  0.47000000000E+01 0. -1.
         -5    1    3    3    0  501  0.58734454153E+02 -0.14349623255E+01 -0.15848246260E+03  0.16908748083E+03  0.47000000000E+01 0. -1.
          5    1    4    4  502    0 -0.13403165118E+02  0.23001311354E+02  0.68939075754E+01  0.27898407137E+02  0.47000000000E+01 0. -1.
         -5    1    4    4    0  502 -0.50924626183E+02  0.30833260856E+02 -0.25845151162E+03  0.26526077996E+03  0.47000000000E+01 0. -1.
<mgrwt>
<rscale>  0 0.35725798E+03</rscale>
<asrwt>0</asrwt>
<pdfrwt beam="1">  1       21 0.41606497E-02 0.35725798E+03</pdfrwt>
<pdfrwt beam="2">  1       21 0.18151646E+00 0.35725798E+03</pdfrwt>
<totfact> 0.60541381E+04</totfact>
</mgrwt>
</event>
<event>
 8    1  0.9123825E-006  0.2764565E+03  0.7546771E-02  0.1097640E+00
         21   -1    0    0  504  503  0.00000000000E+00  0.00000000000E+00  0.16497255537E+03  0.16497255537E+03  0.00000000000E+00 0.  1.
         21   -1    0    0  503  504 -0.00000000000E+00 -0.00000000000E+00 -0.11581955726E+03  0.11581955726E+03  0.00000000000E+00 0.  1.
         25    2    1    2    0    0  0.21668282705E+02  0.25866195572E+02  0.73767537706E+02  0.14900088927E+03  0.12498416234E+03 0.  0.
         25    2    1    2    0    0 -0.21668282705E+02 -0.25866195572E+02 -0.24614539601E+02  0.13179122336E+03  0.12499790577E+03 0.  0.
          5    1    3    3  501    0 -0.17140740778E+02  0.67189473235E+02  0.24331143191E+02  0.73636436884E+02  0.47000000000E+01 0.  1.
         -5    1    3    3    0  501  0.38809023483E+02 -0.41323277663E+02  0.49436394515E+02  0.75364452384E+02  0.47000000000E+01 0.  1.
          5    1    4    4  502    0 -0.26078481812E+02  0.32544052380E+02  0.29982998788E+02  0.51577832207E+02  0.47000000000E+01 0.  1.
         -5    1    4    4    0  502  0.44101991070E+01 -0.58410247952E+02 -0.54597538388E+02  0.80213391152E+02  0.47000000000E+01 0.  1.
<mgrwt>
<rscale>  0 0.27645649E+03</rscale>
<asrwt>0</asrwt>
<pdfrwt beam="1">  1       21 0.25380393E-01 0.27645649E+03</pdfrwt>
<pdfrwt beam="2">  1       21 0.17818393E-01 0.27645649E+03</pdfrwt>
<totfact> 0.41376548E+05</totfact>
</mgrwt>
</event>
<event>
 8    1  0.9123825E-006  0.3088276E+03  0.7546771E-02  0.1080909E+00
         21   -1    0    0  504  503  0.00000000000E+00  0.00000000000E+00  0.54473026739E+02  0.54473026739E+02  0.00000000000E+00 0. -1.
         21   -1    0    0  503  504 -0.00000000000E+00 -0.00000000000E+00 -0.43771415436E+03  0.43771415436E+03  0.00000000000E+00 0. -1.
         25    2    1    2    0    0  0.21193497490E+02  0.87862972786E+02 -0.18041853917E+03  0.23737096914E+03  0.12500024556E+03 0.  0.
         25    2    1    2    0    0 -0.21193497490E+02 -0.87862972786E+02 -0.20282258845E+03  0.25481621196E+03  0.12500093267E+03 0.  0.
          5    1    3    3  501    0  0.34108934493E+02  0.11667590266E+03 -0.13339556112E+03  0.18053573441E+03  0.47000000000E+01 0.  1.
         -5    1    3    3    0  501 -0.12915437003E+02 -0.28812929878E+02 -0.47022978057E+02  0.56835234727E+02  0.47000000000E+01 0.  1.
          5    1    4    4  502    0 -0.15003596354E+02 -0.51578743882E+02 -0.56895946168E+01  0.54221178620E+02  0.47000000000E+01 0. -1.
         -5    1    4    4    0  502 -0.61899011360E+01 -0.36284228904E+02 -0.19713299383E+03  0.20059503334E+03  0.47000000000E+01 0. -1.
<mgrwt>
<rscale>  0 0.30882756E+03</rscale>
<asrwt>0</asrwt>
<pdfrwt beam="1">  1       21 0.83804659E-02 0.30882756E+03</pdfrwt>
<pdfrwt beam="2">  1       21 0.67340637E-01 0.30882756E+03</pdfrwt>
<totfact> 0.21641601E+05</totfact>
</mgrwt>
</event>
<event>
 8    1  0.9123825E-006  0.2996381E+03  0.7546771E-02  0.1085422E+00
         21   -1    0    0  504  503  0.00000000000E+00  0.00000000000E+00  0.83885346245E+02  0.83885346245E+02  0.00000000000E+00 0.  1.
         21   -1    0    0  503  504 -0.00000000000E+00 -0.00000000000E+00 -0.26757651421E+03  0.26757651421E+03  0.00000000000E+00 0.  1.
         25    2    1    2    0    0 -0.73944916040E+02 -0.36215408295E+02 -0.99387596591E+02  0.17967259397E+03  0.12499976105E+03 0.  0.
         25    2    1    2    0    0  0.73944916040E+02  0.36215408295E+02 -0.84303571379E+02  0.17178926649E+03  0.12500021411E+03 0.  0.
          5    1    3    3  501    0 -0.85655495915E+02 -0.29429422954E+02 -0.12253713292E+03  0.15244800379E+03  0.47000000000E+01 0. -1.
         -5    1    3    3    0  501  0.11710579875E+02 -0.67859853414E+01  0.23149536331E+02  0.27224590179E+02  0.47000000000E+01 0. -1.
          5    1    4    4  502    0  0.18999012970E+02 -0.14336318222E+02  0.27874761113E+02  0.36953820115E+02  0.47000000000E+01 0. -1.
         -5    1    4    4    0  502  0.54945903070E+02  0.50551726517E+02 -0.11217833249E+03  0.13483544637E+03  0.47000000000E+01 0. -1.
<mgrwt>
<rscale>  0 0.29963811E+03</rscale>
<asrwt>0</asrwt>
<pdfrwt beam="1">  1       21 0.12905438E-01 0.29963811E+03</pdfrwt>
<pdfrwt beam="2">  1       21 0.41165618E-01 0.29963811E+03</pdfrwt>
<totfact> 0.28537143E+05</totfact>
</mgrwt>
</event>
<event>
 8    1  0.9123825E-006  0.2719403E+03  0.7546771E-02  0.1100174E+00
         21   -1    0    0  504  503  0.00000000000E+00  0.00000000000E+00  0.14214039282E+04  0.14214039282E+04  0.00000000000E+00 0.  1.
         21   -1    0    0  503  504 -0.00000000000E+00 -0.00000000000E+00 -0.13006775640E+02  0.13006775640E+02  0.00000000000E+00 0.  1.
         25    2    1    2    0    0  0.37471342544E+02 -0.29550075058E+02  0.57691404315E+03  0.59222746302E+03  0.12500498519E+03 0.  0.
         25    2    1    2    0    0 -0.37471342544E+02  0.29550075058E+02  0.83148310937E+03  0.84218324078E+03  0.12502456334E+03 0.  0.
          5    1    3    3  501    0 -0.12055858077E+02  0.41083867649E+02  0.12735069624E+03  0.13443778385E+03  0.47000000000E+01 0. -1.
         -5    1    3    3    0  501  0.49527200621E+02 -0.70633942707E+02  0.44956334691E+03  0.45778967917E+03  0.47000000000E+01 0. -1.
          5    1    4    4  502    0 -0.75215996499E+02  0.38096209988E+02  0.39296907649E+03  0.40193973730E+03  0.47000000000E+01 0.  1.
         -5    1    4    4    0  502  0.37744653955E+02 -0.85461349294E+01  0.43851403288E+03  0.44024350348E+03  0.47000000000E+01 0.  1.
<mgrwt>
<rscale>  0 0.27194030E+03</rscale>
<asrwt>0</asrwt>
<pdfrwt beam="1">  1       21 0.21867740E+00 0.27194030E+03</pdfrwt>
<pdfrwt beam="2">  1       21 0.20010435E-02 0.27194030E+03</pdfrwt>
<totfact> 0.12093455E+05</totfact>
</mgrwt>
</event>
<event>
 8    1  0.9123825E-006  0.4102431E+03  0.7546771E-02  0.1040289E+00
         21   -1    0    0  504  503  0.00000000000E+00  0.00000000000E+00  0.52279758072E+02  0.52279758072E+02  0.00000000000E+00 0. -1.
         21   -1    0    0  503  504 -0.00000000000E+00 -0.00000000000E+00 -0.80480188709E+03  0.80480188709E+03  0.00000000000E+00 0. -1.
         25    2    1    2    0    0 -0.53390033979E+02  0.76507275378E+02 -0.65445485241E+03  0.67278449408E+03  0.12499585078E+03 0.  0.
         25    2    1    2    0    0  0.53390033979E+02 -0.76507275378E+02 -0.98067276607E+02  0.18429715109E+03  0.12507753692E+03 0.  0.
          5    1    3    3  501    0 -0.92030440487E+02  0.71386720734E+02 -0.47659125714E+03  0.49063936069E+03  0.47000000000E+01 0. -1.
         -5    1    3    3    0  501  0.38640406507E+02  0.51205546444E+01 -0.17786359528E+03  0.18214513339E+03  0.47000000000E+01 0. -1.
          5    1    4    4  502    0 -0.37017262523E+02 -0.19542669434E+02 -0.48198201669E+01  0.42397102728E+02  0.47000000000E+01 0. -1.
         -5    1    4    4    0  502  0.90407296503E+02 -0.56964605944E+02 -0.93247456440E+02  0.14190004836E+03  0.47000000000E+01 0. -1.
<mgrwt>
<rscale>  0 0.41024309E+03</rscale>
<asrwt>0</asrwt>
<pdfrwt beam="1">  1       21 0.80430395E-02 0.41024309E+03</pdfrwt>
<pdfrwt beam="2">  1       21 0.12381568E+00 0.41024309E+03</pdfrwt>
<totfact> 0.53629347E+04</totfact>
</mgrwt>
</event>
<event>
 8    1  0.9123825E-006  0.3006395E+03  0.7546771E-02  0.1084921E+00
         21   -1    0    0  504  503  0.00000000000E+00  0.00000000000E+00  0.47039788878E+02  0.47039788878E+02  0.00000000000E+00 0.  1.
         21   -1    0    0  503  504 -0.00000000000E+00 -0.00000000000E+00 -0.48035997131E+03  0.48035997131E+03  0.00000000000E+00 0.  1.
         25    2    1    2    0    0  0.67542009516E+02  0.18656968658E+01 -0.13059043674E+03  0.19298959013E+03  0.12500286339E+03 0.  0.
         25    2    1    2    0    0 -0.67542009516E+02 -0.18656968658E+01 -0.30272974569E+03  0.33441017006E+03  0.12497783420E+03 0.  0.
          5    1    3    3  501    0  0.17003005544E+02  0.59091925211E+02 -0.36246569000E+02  0.71532241590E+02  0.47000000000E+01 0.  1.
         -5    1    3    3    0  501  0.50539003972E+02 -0.57226228345E+02 -0.94343867741E+02  0.12145734854E+03  0.47000000000E+01 0.  1.
          5    1    4    4  502    0 -0.43906428272E+02 -0.25004997928E+02 -0.28596001915E+02  0.58248138945E+02  0.47000000000E+01 0.  1.
         -5    1    4    4    0  502 -0.23635581244E+02  0.23139301062E+02 -0.27413374377E+03  0.27616203111E+03  0.47000000000E+01 0.  1.
<mgrwt>
<rscale>  0 0.30063953E+03</rscale>
<asrwt>0</asrwt>
<pdfrwt beam="1">  1       21 0.72368907E-02 0.30063953E+03</pdfrwt>
<pdfrwt beam="2">  1       21 0.73901533E-01 0.30063953E+03</pdfrwt>
<totfact> 0.22789095E+05</totfact>
</mgrwt>
</event>
<event>
 8    1  0.9123825E-006  0.2660535E+03  0.7546771E-02  0.1103560E+00
         21   -1    0    0  504  503  0.00000000000E+00  0.00000000000E+00  0.11620338420E+04  0.11620338420E+04  0.00000000000E+00 0.  1.
         21   -1    0    0  503  504 -0.00000000000E+00 -0.00000000000E+00 -0.15228572480E+02  0.15228572480E+02  0.00000000000E+00 0.  1.
         25    2    1    2    0    0 -0.14560890987E+02 -0.15633758564E+01  0.38270996473E+03  0.40287123064E+03  0.12499539064E+03 0.  0.
         25    2    1    2    0    0  0.14560890987E+02  0.15633758564E+01  0.76409530476E+03  0.77439118382E+03  0.12500242846E+03 0.  0.
          5    1    3    3  501    0 -0.33709609546E+02  0.42815912020E+02  0.83988640713E+02  0.10022834862E+03  0.47000000000E+01 0. -1.
         -5    1    3    3    0  501  0.19148718559E+02 -0.44379287876E+02  0.29872132402E+03  0.30264288202E+03  0.47000000000E+01 0. -1.
          5    1    4    4  502    0  0.49294772796E+02  0.44221086690E+02  0.31537507961E+03  0.32228715452E+03  0.47000000000E+01 0.  1.
         -5    1    4    4    0  502 -0.34733881809E+02 -0.42657710833E+02  0.44872022516E+03  0.45210402929E+03  0.47000000000E+01 0.  1.
<mgrwt>
<rscale>  0 0.26605350E+03</rscale>
<asrwt>0</asrwt>
<pdfrwt beam="1">  1       21 0.17877437E+00 0.26605350E+03</pdfrwt>
<pdfrwt beam="2">  1       21 0.23428582E-02 0.26605350E+03</pdfrwt>
<totfact> 0.17088538E+05</totfact>
</mgrwt>
</event>
<event>
 8    1  0.9123825E-006  0.3545870E+03  0.7546771E-02  0.1060748E+00
         21   -1    0    0  504  503  0.00000000000E+00  0.00000000000E+00  0.19263809838E+03  0.19263809838E+03  0.00000000000E+00 0. -1.
         21   -1    0    0  503  504 -0.00000000000E+00 -0.00000000000E+00 -0.16317119943E+03  0.16317119943E+03  0.00000000000E+00 0. -1.
         25    2    1    2    0    0 -0.90132999475E+01 -0.94676906687E+02  0.97234882509E+02  0.18472970233E+03  0.12500193722E+03 0.  0.
         25    2    1    2    0    0  0.90132999475E+01  0.94676906687E+02 -0.67767983557E+02  0.17107959549E+03  0.12502308651E+03 0.  0.
          5    1    3    3  501    0 -0.17903888206E+02 -0.30234958384E+02 -0.26901255076E+02  0.44502465617E+02  0.47000000000E+01 0. -1.
         -5    1    3    3    0  501  0.88905882585E+01 -0.64441948304E+02  0.12413613759E+03  0.14022723671E+03  0.47000000000E+01 0. -1.
          5    1    4    4  502    0 -0.51531386284E+02  0.32231343666E+02 -0.56736272326E+02  0.83279276439E+02  0.47000000000E+01 0. -1.
         -5    1    4    4    0  502  0.60544686231E+02  0.62445563021E+02 -0.11031711231E+02  0.87800319046E+02  0.47000000000E+01 0. -1.
<mgrwt>
<rscale>  0 0.35458702E+03</rscale>
<asrwt>0</asrwt>
<pdfrwt beam="1">  1       21 0.29636631E-01 0.35458702E+03</pdfrwt>
<pdfrwt beam="2">  1       21 0.25103261E-01 0.35458702E+03</pdfrwt>
<totfact> 0.15705161E+05</totfact>
</mgrwt>
</event>
<event>
 8    1  0.9123825E-006  0.3983913E+03  0.7546771E-02  0.1044338E+00
         21   -1    0    0  504  503  0.00000000000E+00  0.00000000000E+00  0.47174721614E+02  0.47174721614E+02  0.00000000000E+00 0.  1.
         21   -1    0    0  503  504 -0.00000000000E+00 -0.00000000000E+00 -0.84110545714E+03  0.84110545714E+03  0.00000000000E+00 0.  1.
         25    2    1    2    0    0  0.14898708557E+03  0.41503190185E+02 -0.42276026919E+03  0.46719489049E+03  0.12500061614E+03 0.  0.
         25    2    1    2    0    0 -0.14898708557E+03 -0.41503190185E+02 -0.37117046634E+03  0.42108528826E+03  0.12500255376E+03 0.  0.
          5    1    3    3  501    0  0.11112410935E+03 -0.22646328158E+02 -0.17628311594E+03  0.20966461510E+03  0.47000000000E+01 0. -1.
         -5    1    3    3    0  501  0.37862976219E+02  0.64149518343E+02 -0.24647715325E+03  0.25753027539E+03  0.47000000000E+01 0. -1.
          5    1    4    4  502    0 -0.49334157363E+02 -0.42713634676E+02 -0.43510490846E+02  0.78572046452E+02  0.47000000000E+01 0. -1.
         -5    1    4    4    0  502 -0.99652928207E+02  0.12104444913E+01 -0.32765997549E+03  0.34251324181E+03  0.47000000000E+01 0. -1.
<mgrwt>
<rscale>  0 0.39839134E+03</rscale>
<asrwt>0</asrwt>
<pdfrwt beam="1">  1       21 0.72576495E-02 0.39839134E+03</pdfrwt>
<pdfrwt beam="2">  1       21 0.12940084E+00 0.39839134E+03</pdfrwt>
<totfact> 0.57571601E+04</totfact>
</mgrwt>
</event>
<event>
 8    1  0.9123825E-006  0.3423956E+03  0.7546771E-02  0.1065780E+00
         21   -1    0    0  504  503  0.00000000000E+00  0.00000000000E+00  0.15931627300E+02  0.15931627300E+02  0.00000000000E+00 0.  1.
         21   -1    0    0  503  504 -0.00000000000E+00 -0.00000000000E+00 -0.18396539419E+04  0.18396539419E+04  0.00000000000E+00 0.  1.
         25    2    1    2    0    0 -0.25526903819E+02 -0.90311667349E+02 -0.53346302867E+03  0.55589238958E+03  0.12500290299E+03 0.  0.
         25    2    1    2    0    0  0.25526903819E+02  0.90311667349E+02 -0.12902592859E+04  0.12996931796E+04  0.12500206458E+03 0.  0.
          5    1    3    3  501    0 -0.60440960183E+02 -0.22334592104E+01 -0.23582510600E+03  0.24350291298E+03  0.47000000000E+01 0.  1.
         -5    1    3    3    0  501  0.34914056364E+02 -0.88078208138E+02 -0.29763792267E+03  0.31238947660E+03  0.47000000000E+01 0.  1.
          5    1    4    4  502    0 -0.30497830933E+02  0.34223676178E+02 -0.91318434747E+03  0.91434628023E+03  0.47000000000E+01 0.  1.
         -5    1    4    4    0  502  0.56024734752E+02  0.56087991171E+02 -0.37707493847E+03  0.38534689940E+03  0.47000000000E+01 0.  1.
<mgrwt>
<rscale>  0 0.34239557E+03</rscale>
<asrwt>0</asrwt>
<pdfrwt beam="1">  1       21 0.24510184E-02 0.34239557E+03</pdfrwt>
<pdfrwt beam="2">  1       21 0.28302382E+00 0.34239557E+03</pdfrwt>
<totfact> 0.34142177E+04</totfact>
</mgrwt>
</event>
<event>
 8    1  0.9123825E-006  0.4862313E+03  0.7546771E-02  0.1017437E+00
         21   -1    0    0  504  503  0.00000000000E+00  0.00000000000E+00  0.16092603719E+03  0.16092603719E+03  0.00000000000E+00 0. -1.
         21   -1    0    0  503  504 -0.00000000000E+00 -0.00000000000E+00 -0.36728187880E+03  0.36728187880E+03  0.00000000000E+00 0. -1.
         25    2    1    2    0    0  0.75508671613E+02  0.15332195158E+03  0.26648856212E+02  0.21337140594E+03  0.12493204156E+03 0.  0.
         25    2    1    2    0    0 -0.75508671613E+02 -0.15332195158E+03 -0.23300469782E+03  0.31483651005E+03  0.12498663341E+03 0.  0.
          5    1    3    3  501    0 -0.18449507312E+02  0.10250121216E+03  0.20638154127E+02  0.10627749630E+03  0.47000000000E+01 0.  1.
         -5    1    3    3    0  501  0.93958178925E+02  0.50820739428E+02  0.60107020852E+01  0.10709390964E+03  0.47000000000E+01 0.  1.
          5    1    4    4  502    0 -0.12548891683E+02 -0.93839718567E+02 -0.39335265933E+02  0.10262904369E+03  0.47000000000E+01 0. -1.
         -5    1    4    4    0  502 -0.62959779931E+02 -0.59482233017E+02 -0.19366943188E+03  0.21220746636E+03  0.47000000000E+01 0. -1.
<mgrwt>
<rscale>  0 0.48623129E+03</rscale>
<asrwt>0</asrwt>
<pdfrwt beam="1">  1       21 0.24757852E-01 0.48623129E+03</pdfrwt>
<pdfrwt beam="2">  1       21 0.56504903E-01 0.48623129E+03</pdfrwt>
<totfact> 0.41374425E+04</totfact>
</mgrwt>
</event>
<event>
 8    1  0.9123825E-006  0.2552753E+03  0.7546771E-02  0.1110016E+00
         21   -1    0    0  504  503  0.00000000000E+00  0.00000000000E+00  0.33014749744E+02  0.33014749744E+02  0.00000000000E+00 0. -1.
         21   -1    0    0  503  504 -0.00000000000E+00 -0.00000000000E+00 -0.49345741147E+03  0.49345741147E+03  0.00000000000E+00 0. -1.
         25    2    1    2    0    0  0.22818360354E+02  0.11885873800E+02 -0.23428635525E+03  0.26679184881E+03  0.12500337104E+03 0.  0.
         25    2    1    2    0    0 -0.22818360354E+02 -0.11885873800E+02 -0.22615630648E+03  0.25968031241E+03  0.12500095250E+03 0.  0.
          5    1    3    3  501    0  0.55593054179E+02 -0.17672237394E+02 -0.20602027367E+03  0.21417128381E+03  0.47000000000E+01 0.  1.
         -5    1    3    3    0  501 -0.32774693825E+02  0.29558111195E+02 -0.28266081581E+02  0.52620564998E+02  0.47000000000E+01 0.  1.
          5    1    4    4  502    0  0.12853903188E+02 -0.13773319913E+02 -0.22263334186E+03  0.22347845998E+03  0.47000000000E+01 0. -1.
         -5    1    4    4    0  502 -0.35672263542E+02  0.18874461127E+01 -0.35229646171E+01  0.36201852421E+02  0.47000000000E+01 0. -1.
<mgrwt>
<rscale>  0 0.25527533E+03</rscale>
<asrwt>0</asrwt>
<pdfrwt beam="1">  1       21 0.50791922E-02 0.25527533E+03</pdfrwt>
<pdfrwt beam="2">  1       21 0.75916525E-01 0.25527533E+03</pdfrwt>
<totfact> 0.39925283E+05</totfact>
</mgrwt>
</event>
<event>
 8    1  0.9123825E-006  0.3709593E+03  0.7546771E-02  0.1054327E+00
         21   -1    0    0  504  503  0.00000000000E+00  0.00000000000E+00  0.99135571414E+03  0.99135571414E+03  0.00000000000E+00 0. -1.
         21   -1    0    0  503  504 -0.00000000000E+00 -0.00000000000E+00 -0.34702685766E+02  0.34702685766E+02  0.00000000000E+00 0. -1.
         25    2    1    2    0    0  0.12614609631E+03 -0.12788626154E+01  0.62633431761E+03  0.65102537128E+03  0.12499953412E+03 0.  0.
         25    2    1    2    0    0 -0.12614609631E+03  0.12788626154E+01  0.33031871077E+03  0.37503302863E+03  0.12499939511E+03 0.  0.
          5    1    3    3  501    0 -0.33989278719E+01  0.20822754062E+02  0.16552016816E+02  0.27224971223E+02  0.47000000000E+01 0. -1.
         -5    1    3    3    0  501  0.12954502418E+03 -0.22101616678E+02  0.60978230079E+03  0.62380040006E+03  0.47000000000E+01 0. -1.
          5    1    4    4  502    0 -0.14177517932E+02  0.31993929780E+02  0.18807227164E+03  0.19135799674E+03  0.47000000000E+01 0. -1.
         -5    1    4    4    0  502 -0.11196857838E+03 -0.30715067164E+02  0.14224643913E+03  0.18367503189E+03  0.47000000000E+01 0. -1.
<mgrwt>
<rscale>  0 0.37095933E+03</rscale>
<asrwt>0</asrwt>
<pdfrwt beam="1">  1       21 0.15251624E+00 0.37095933E+03</pdfrwt>
<pdfrwt beam="2">  1       21 0.53388755E-02 0.37095933E+03</pdfrwt>
<totfact> 0.64095209E+04</totfact>
</mgrwt>
</event>
<event>
 8    1  0.9123825E-006  0.4015792E+03  0.7546771E-02  0.1043234E+00
         21   -1    0    0  504  503  0.00000000000E+00  0.00000000000E+00  0.54257915691E+02  0.54257915691E+02  0.00000000000E+00 0. -1.
         21   -1    0    0  503  504 -0.00000000000E+00 -0.00000000000E+00 -0.74305230708E+03  0.74305230708E+03  0.00000000000E+00 0. -1.
         25    2    1    2    0    0  0.10029692347E+03 -0.88454121085E+02 -0.50821557137E+03  0.54017726228E+03  0.12499921321E+03 0.  0.
         25    2    1    2    0    0 -0.10029692347E+03  0.88454121085E+02 -0.18057882001E+03  0.25713296049E+03  0.12500017895E+03 0.  0.
          5    1    3    3  501    0 -0.29003048748E+02 -0.16654327691E+02 -0.71528822194E+02  0.79101238119E+02  0.47000000000E+01 0.  1.
         -5    1    3    3    0  501  0.12929997222E+03 -0.71799793394E+02 -0.43668674918E+03  0.46107602416E+03  0.47000000000E+01 0.  1.
          5    1    4    4  502    0 -0.12569908218E+03  0.74383705342E+02 -0.17356408497E+03  0.22689155223E+03  0.47000000000E+01 0. -1.
         -5    1    4    4    0  502  0.25402158706E+02  0.14070415743E+02 -0.70147350463E+01  0.30241408265E+02  0.47000000000E+01 0. -1.
<mgrwt>
<rscale>  0 0.40157923E+03</rscale>
<asrwt>0</asrwt>
<pdfrwt beam="1">  1       21 0.83473717E-02 0.40157923E+03</pdfrwt>
<pdfrwt beam="2">  1       21 0.11431574E+00 0.40157923E+03</pdfrwt>
<totfact> 0.61565981E+04</totfact>
</mgrwt>
</event>
<event>
 8    1  0.9123825E-006  0.3235576E+03  0.7546771E-02  0.1074024E+00
         21   -1    0    0  504  503  0.00000000000E+00  0.00000000000E+00  0.15050408181E+03  0.15050408181E+03  0.00000000000E+00 0. -1.
         21   -1    0    0  503  504 -0.00000000000E+00 -0.00000000000E+00 -0.17389817570E+03  0.17389817570E+03  0.00000000000E+00 0. -1.
         25    2    1    2    0    0  0.71189768917E+02  0.10113321594E+02  0.61807806700E+02  0.15689830142E+03  0.12500643802E+03 0.  0.
         25    2    1    2    0    0 -0.71189768917E+02 -0.10113321594E+02 -0.85201900593E+02  0.16750395609E+03  0.12501179533E+03 0.  0.
          5    1    3    3  501    0  0.29630806417E+01  0.54368920866E+02  0.11679701738E-01  0.54652077174E+02  0.47000000000E+01 0.  1.
         -5    1    3    3    0  501  0.68226688275E+02 -0.44255599272E+02  0.61796126998E+02  0.10224622424E+03  0.47000000000E+01 0.  1.
          5    1    4    4  502    0 -0.95054895650E+01  0.53068624604E+02 -0.44939330031E+02  0.70343916815E+02  0.47000000000E+01 0. -1.
         -5    1    4    4    0  502 -0.61684279352E+02 -0.63181946198E+02 -0.40262570562E+02  0.97160039280E+02  0.47000000000E+01 0. -1.
<mgrwt>
<rscale>  0 0.32355763E+03</rscale>
<asrwt>0</asrwt>
<pdfrwt beam="1">  1       21 0.23154474E-01 0.32355763E+03</pdfrwt>
<pdfrwt beam="2">  1       21 0.26753565E-01 0.32355763E+03</pdfrwt>
<totfact> 0.22569786E+05</totfact>
</mgrwt>
</event>
<event>
 8    1  0.9123825E-006  0.3085550E+03  0.7546771E-02  0.1081041E+00
         21   -1    0    0  504  503  0.00000000000E+00  0.00000000000E+00  0.31391474949E+02  0.31391474949E+02  0.00000000000E+00 0. -1.
         21   -1    0    0  503  504 -0.00000000000E+00 -0.00000000000E+00 -0.75821672040E+03  0.75821672040E+03  0.00000000000E+00 0. -1.
         25    2    1    2    0    0  0.33190395200E+02 -0.83238428324E+02 -0.39439951775E+03  0.42332720330E+03  0.12499881270E+03 0.  0.
         25    2    1    2    0    0 -0.33190395200E+02  0.83238428324E+02 -0.33242572770E+03  0.36628099204E+03  0.12499864963E+03 0.  0.
          5    1    3    3  501    0  0.76480566537E+02 -0.55904751121E+02 -0.18737826845E+03  0.21001743676E+03  0.47000000000E+01 0.  1.
         -5    1    3    3    0  501 -0.43290171337E+02 -0.27333677204E+02 -0.20702124930E+03  0.21330976655E+03  0.47000000000E+01 0.  1.
          5    1    4    4  502    0 -0.54492262769E+02 -0.45163922521E+01 -0.71522248886E+02  0.90151686542E+02  0.47000000000E+01 0.  1.
         -5    1    4    4    0  502  0.21301867569E+02  0.87754820577E+02 -0.26090347882E+03  0.27612930550E+03  0.47000000000E+01 0.  1.
<mgrwt>
<rscale>  0 0.30855496E+03</rscale>
<asrwt>0</asrwt>
<pdfrwt beam="1">  1       21 0.48294581E-02 0.30855496E+03</pdfrwt>
<pdfrwt beam="2">  1       21 0.11664872E+00 0.30855496E+03</pdfrwt>
<totfact> 0.15546982E+05</totfact>
</mgrwt>
</event>
<event>
 8    1  0.9123825E-006  0.4975645E+03  0.7546771E-02  0.1014417E+00
         21   -1    0    0  504  503  0.00000000000E+00  0.00000000000E+00  0.79887403208E+03  0.79887403208E+03  0.00000000000E+00 0. -1.
         21   -1    0    0  503  504 -0.00000000000E+00 -0.00000000000E+00 -0.77474808140E+02  0.77474808140E+02  0.00000000000E+00 0. -1.
         25    2    1    2    0    0  0.68217353570E+02  0.17428009444E+03  0.17396740106E+03  0.28445889276E+03  0.12500018557E+03 0.  0.
         25    2    1    2    0    0 -0.68217353570E+02 -0.17428009444E+03  0.54743182288E+03  0.59188994746E+03  0.12499980223E+03 0.  0.
          5    1    3    3  501    0 -0.26798122775E+02  0.84933528778E+01  0.41992554216E+01  0.28809723592E+02  0.47000000000E+01 0. -1.
         -5    1    3    3    0  501  0.95015476345E+02  0.16578674156E+03  0.16976814564E+03  0.25564916916E+03  0.47000000000E+01 0. -1.
          5    1    4    4  502    0 -0.34501475441E+02 -0.61204458226E+02  0.38316668760E+03  0.38958328763E+03  0.47000000000E+01 0. -1.
         -5    1    4    4    0  502 -0.33715878129E+02 -0.11307563621E+03  0.16426513528E+03  0.20230665983E+03  0.47000000000E+01 0. -1.
<mgrwt>
<rscale>  0 0.49756452E+03</rscale>
<asrwt>0</asrwt>
<pdfrwt beam="1">  1       21 0.12290369E+00 0.49756452E+03</pdfrwt>
<pdfrwt beam="2">  1       21 0.11919202E-01 0.49756452E+03</pdfrwt>
<totfact> 0.26379645E+04</totfact>
</mgrwt>
</event>
<event>
 8    1  0.9123825E-006  0.3287706E+03  0.7546771E-02  0.1071682E+00
         21   -1    0    0  504  503  0.00000000000E+00  0.00000000000E+00  0.29462887686E+03  0.29462887686E+03  0.00000000000E+00 0. -1.
         21   -1    0    0  503  504 -0.00000000000E+00 -0.00000000000E+00 -0.91717156843E+02  0.91717156843E+02  0.00000000000E+00 0. -1.
         25    2    1    2    0    0  0.76992144635E+00 -0.37337872834E+02  0.21899875316E+03  0.25491212364E+03  0.12500010947E+03 0.  0.
         25    2    1    2    0    0 -0.76992144635E+00  0.37337872834E+02 -0.16087033135E+02  0.13143391007E+03  0.12498548137E+03 0.  0.
          5    1    3    3  501    0 -0.16778403779E+01 -0.27396714428E+02 -0.69346938481E+01  0.28697997989E+02  0.47000000000E+01 0. -1.
         -5    1    3    3    0  501  0.24477618243E+01 -0.99411584060E+01  0.22593344700E+03  0.22621412565E+03  0.47000000000E+01 0. -1.
          5    1    4    4  502    0 -0.49648058360E+02 -0.16654107096E+02 -0.24432282174E+02  0.57976852228E+02  0.47000000000E+01 0.  1.
         -5    1    4    4    0  502  0.48878136913E+02  0.53991979930E+02  0.83452490395E+01  0.73457057840E+02  0.47000000000E+01 0.  1.
<mgrwt>
<rscale>  0 0.32877058E+03</rscale>
<asrwt>0</asrwt>
<pdfrwt beam="1">  1       21 0.45327519E-01 0.32877058E+03</pdfrwt>
<pdfrwt beam="2">  1       21 0.14110332E-01 0.32877058E+03</pdfrwt>
<totfact> 0.19753527E+05</totfact>
</mgrwt>
</event>
<event>
 8    1  0.9123825E-006  0.2990501E+03  0.7546771E-02  0.1085716E+00
         21   -1    0    0  504  503  0.00000000000E+00  0.00000000000E+00  0.81820970646E+02  0.81820970646E+02  0.00000000000E+00 0. -1.
         21   -1    0    0  503  504 -0.00000000000E+00 -0.00000000000E+00 -0.27325201146E+03  0.27325201146E+03  0.00000000000E+00 0. -1.
         25    2    1    2    0    0  0.69716754217E+02 -0.30684863295E+02 -0.13193544574E+03  0.19706432668E+03  0.12500160140E+03 0.  0.
         25    2    1    2    0    0 -0.69716754217E+02  0.30684863295E+02 -0.59495595066E+02  0.15800865542E+03  0.12500009081E+03 0.  0.
          5    1    3    3  501    0  0.38342863680E+02 -0.33391307967E+02  0.96310790212E+01  0.51961546609E+02  0.47000000000E+01 0.  1.
         -5    1    3    3    0  501  0.31373890537E+02  0.27064446721E+01 -0.14156652476E+03  0.14510278007E+03  0.47000000000E+01 0.  1.
          5    1    4    4  502    0 -0.96393062182E+02  0.90696065274E+00 -0.14433928345E+02  0.97585210467E+02  0.47000000000E+01 0.  1.
         -5    1    4    4    0  502  0.26676307966E+02  0.29777902642E+02 -0.45061666721E+02  0.60423444954E+02  0.47000000000E+01 0.  1.
<mgrwt>
<rscale>  0 0.29905013E+03</rscale>
<asrwt>0</asrwt>
<pdfrwt beam="1">  1       21 0.12587842E-01 0.29905013E+03</pdfrwt>
<pdfrwt beam="2">  1       21 0.42038771E-01 0.29905013E+03</pdfrwt>
<totfact> 0.28601335E+05</totfact>
</mgrwt>
</event>
<event>
 8    1  0.9123825E-006  0.2719735E+03  0.7546771E-02  0.1100155E+00
         21   -1    0    0  504  503  0.00000000000E+00  0.00000000000E+00  0.30257818696E+03  0.30257818696E+03  0.00000000000E+00 0.  1.
         21   -1    0    0  503  504 -0.00000000000E+00 -0.00000000000E+00 -0.61116069363E+02  0.61116069363E+02  0.00000000000E+00 0.  1.
         25    2    1    2    0    0 -0.91359460183E+01 -0.41233757695E+02  0.16476272291E+03  0.21108032158E+03  0.12499783604E+03 0.  0.
         25    2    1    2    0    0  0.91359460183E+01  0.41233757695E+02  0.76699394682E+02  0.15261393474E+03  0.12499811058E+03 0.  0.
          5    1    3    3  501    0  0.10258862643E+02  0.31796844042E+02  0.47648721068E+01  0.34074588184E+02  0.47000000000E+01 0. -1.
         -5    1    3    3    0  501 -0.19394808661E+02 -0.73030601737E+02  0.15999785080E+03  0.17700573339E+03  0.47000000000E+01 0. -1.
          5    1    4    4  502    0  0.18110222996E+02  0.82579897681E+02  0.31025567139E+02  0.90178132019E+02  0.47000000000E+01 0.  1.
         -5    1    4    4    0  502 -0.89742769779E+01 -0.41346139986E+02  0.45673827543E+02  0.62435802721E+02  0.47000000000E+01 0.  1.
<mgrwt>
<rscale>  0 0.27197345E+03</rscale>
<asrwt>0</asrwt>
<pdfrwt beam="1">  1       21 0.46550489E-01 0.27197345E+03</pdfrwt>
<pdfrwt beam="2">  1       21 0.94024724E-02 0.27197345E+03</pdfrwt>
<totfact> 0.39288235E+05</totfact>
</mgrwt>
</event>
<event>
 8    1  0.9123825E-006  0.3164928E+03  0.7546771E-02  0.1077275E+00
         21   -1    0    0  504  503  0.00000000000E+00  0.00000000000E+00  0.96996300244E+02  0.96996300244E+02  0.00000000000E+00 0. -1.
         21   -1    0    0  503  504 -0.00000000000E+00 -0.00000000000E+00 -0.25817403991E+03  0.25817403991E+03  0.00000000000E+00 0. -1.
         25    2    1    2    0    0 -0.19451038820E+02  0.44977873026E+01 -0.18716067239E+03  0.22594679685E+03  0.12499705882E+03 0.  0.
         25    2    1    2    0    0  0.19451038820E+02 -0.44977873026E+01  0.25982932730E+02  0.12922354330E+03  0.12500015339E+03 0.  0.
          5    1    3    3  501    0 -0.17743794862E+02 -0.52777794564E+02 -0.14275384347E+03  0.15330064475E+03  0.47000000000E+01 0.  1.
         -5    1    3    3    0  501 -0.17072439586E+01  0.57275581867E+02 -0.44406828924E+02  0.72646152102E+02  0.47000000000E+01 0.  1.
          5    1    4    4  502    0  0.45006117950E+02  0.10819415705E+02  0.64982304406E+02  0.79921213048E+02  0.47000000000E+01 0.  1.
         -5    1    4    4    0  502 -0.25555079130E+02 -0.15317203008E+02 -0.38999371676E+02  0.49302330253E+02  0.47000000000E+01 0.  1.
<mgrwt>
<rscale>  0 0.31649282E+03</rscale>
<asrwt>0</asrwt>
<pdfrwt beam="1">  1       21 0.14922508E-01 0.31649282E+03</pdfrwt>
<pdfrwt beam="2">  1       21 0.39719082E-01 0.31649282E+03</pdfrwt>
<totfact> 0.23462741E+05</totfact>
</mgrwt>
</event>
<event>
 8    1  0.9123825E-006  0.3053139E+03  0.7546771E-02  0.1082614E+00
         21   -1    0    0  504  503  0.00000000000E+00  0.00000000000E+00  0.12033162556E+03  0.12033162556E+03  0.00000000000E+00 0.  1.
         21   -1    0    0  503  504 -0.00000000000E+00 -0.00000000000E+00 -0.19366602180E+03  0.19366602180E+03  0.00000000000E+00 0.  1.
         25    2    1    2    0    0  0.44216540953E+01 -0.55010222927E+02 -0.10667760281E+03  0.17335203949E+03  0.12500057201E+03 0.  0.
         25    2    1    2    0    0 -0.44216540953E+01  0.55010222927E+02  0.33343206569E+02  0.14064560788E+03  0.12499496766E+03 0.  0.
          5    1    3    3  501    0  0.23496156603E+02 -0.83690703965E+02 -0.35260294618E+02  0.93923275507E+02  0.47000000000E+01 0.  1.
         -5    1    3    3    0  501 -0.19074502508E+02  0.28680481038E+02 -0.71417308189E+02  0.79428763980E+02  0.47000000000E+01 0.  1.
          5    1    4    4  502    0 -0.34701779793E+02 -0.22731608047E+02  0.38678223051E+02  0.56912515878E+02  0.47000000000E+01 0.  1.
         -5    1    4    4    0  502  0.30280125698E+02  0.77741830974E+02 -0.53350164819E+01  0.83733092003E+02  0.47000000000E+01 0.  1.
<mgrwt>
<rscale>  0 0.30531392E+03</rscale>
<asrwt>0</asrwt>
<pdfrwt beam="1">  1       21 0.18512558E-01 0.30531392E+03</pdfrwt>
<pdfrwt beam="2">  1       21 0.29794772E-01 0.30531392E+03</pdfrwt>
<totfact> 0.28035420E+05</totfact>
</mgrwt>
</event>
<event>
 8    1  0.9123825E-006  0.2736487E+03  0.7546771E-02  0.1099209E+00
         21   -1    0    0  504  503  0.00000000000E+00  0.00000000000E+00  0.58852981285E+02  0.58852981285E+02  0.00000000000E+00 0. -1.
         21   -1    0    0  503  504 -0.00000000000E+00 -0.00000000000E+00 -0.31809617378E+03  0.31809617378E+03  0.00000000000E+00 0. -1.
         25    2    1    2    0    0 -0.44783726505E+02  0.31493638752E+02 -0.11601941047E+03  0.17911736419E+03  0.12500038043E+03 0.  0.
         25    2    1    2    0    0  0.44783726505E+02 -0.31493638752E+02 -0.14322378203E+03  0.19783179088E+03  0.12500773697E+03 0.  0.
          5    1    3    3  501    0 -0.54253330681E+02  0.74406440881E+02 -0.75858344586E+02  0.11939983575E+03  0.47000000000E+01 0. -1.
         -5    1    3    3    0  501  0.94696041758E+01 -0.42912802129E+02 -0.40161065880E+02  0.59717528435E+02  0.47000000000E+01 0. -1.
          5    1    4    4  502    0  0.32998843183E+02 -0.71924135744E+02 -0.45704797054E+02  0.91504226283E+02  0.47000000000E+01 0.  1.
         -5    1    4    4    0  502  0.11784883322E+02  0.40430496992E+02 -0.97518984977E+02  0.10632756460E+03  0.47000000000E+01 0.  1.
<mgrwt>
<rscale>  0 0.27364874E+03</rscale>
<asrwt>0</asrwt>
<pdfrwt beam="1">  1       21 0.90543049E-02 0.27364874E+03</pdfrwt>
<pdfrwt beam="2">  1       21 0.48937873E-01 0.27364874E+03</pdfrwt>
<totfact> 0.37824679E+05</totfact>
</mgrwt>
</event>
<event>
 8    1  0.9123825E-006  0.3694920E+03  0.7546771E-02  0.1054887E+00
         21   -1    0    0  504  503  0.00000000000E+00  0.00000000000E+00  0.45821519429E+02  0.45821519429E+02  0.00000000000E+00 0. -1.
         21   -1    0    0  503  504 -0.00000000000E+00 -0.00000000000E+00 -0.74487019214E+03  0.74487019214E+03  0.00000000000E+00 0. -1.
         25    2    1    2    0    0  0.86787697075E+02 -0.45840891443E+02 -0.14796844501E+03  0.21715140431E+03  0.12500631978E+03 0.  0.
         25    2    1    2    0    0 -0.86787697075E+02  0.45840891443E+02 -0.55108022770E+03  0.57354030725E+03  0.12500229995E+03 0.  0.
          5    1    3    3  501    0  0.11758438769E+03 -0.32937075371E+02 -0.13187163685E+03  0.17978642264E+03  0.47000000000E+01 0. -1.
         -5    1    3    3    0  501 -0.30796690615E+02 -0.12903816072E+02 -0.16096808164E+02  0.37364981669E+02  0.47000000000E+01 0. -1.
          5    1    4    4  502    0 -0.70225592334E+02  0.73691267554E+02 -0.23994491729E+03  0.26068695799E+03  0.47000000000E+01 0.  1.
         -5    1    4    4    0  502 -0.16562104740E+02 -0.27850376111E+02 -0.31113531041E+03  0.31285334926E+03  0.47000000000E+01 0.  1.
<mgrwt>
<rscale>  0 0.36949200E+03</rscale>
<asrwt>0</asrwt>
<pdfrwt beam="1">  1       21 0.70494646E-02 0.36949200E+03</pdfrwt>
<pdfrwt beam="2">  1       21 0.11459541E+00 0.36949200E+03</pdfrwt>
<totfact> 0.83104218E+04</totfact>
</mgrwt>
</event>
<event>
 8    1  0.9123825E-006  0.3093155E+03  0.7546771E-02  0.1080674E+00
         21   -1    0    0  504  503  0.00000000000E+00  0.00000000000E+00  0.23320015688E+03  0.23320015688E+03  0.00000000000E+00 0. -1.
         21   -1    0    0  503  504 -0.00000000000E+00 -0.00000000000E+00 -0.10256860537E+03  0.10256860537E+03  0.00000000000E+00 0. -1.
         25    2    1    2    0    0 -0.23333626255E+02 -0.87252909373E+02  0.78036522150E+02  0.17283213849E+03  0.12499488389E+03 0.  0.
         25    2    1    2    0    0  0.23333626255E+02  0.87252909373E+02  0.52595029360E+02  0.16293662377E+03  0.12499831176E+03 0.  0.
          5    1    3    3  501    0 -0.35085186260E+02 -0.80174552082E+02 -0.57215437483E+01  0.87827986196E+02  0.47000000000E+01 0.  1.
         -5    1    3    3    0  501  0.11751560005E+02 -0.70783572915E+01  0.83758065898E+02  0.85004152296E+02  0.47000000000E+01 0.  1.
          5    1    4    4  502    0  0.63103386516E+02  0.63063493044E+02 -0.40988980270E+01  0.89431160731E+02  0.47000000000E+01 0. -1.
         -5    1    4    4    0  502 -0.39769760262E+02  0.24189416329E+02  0.56693927387E+02  0.73505463037E+02  0.47000000000E+01 0. -1.
<mgrwt>
<rscale>  0 0.30931547E+03</rscale>
<asrwt>0</asrwt>
<pdfrwt beam="1">  1       21 0.35876947E-01 0.30931547E+03</pdfrwt>
<pdfrwt beam="2">  1       21 0.15779785E-01 0.30931547E+03</pdfrwt>
<totfact> 0.26050894E+05</totfact>
</mgrwt>
</event>
<event>
 8    1  0.9123825E-006  0.3032677E+03  0.7546771E-02  0.1083618E+00
         21   -1    0    0  504  503  0.00000000000E+00  0.00000000000E+00  0.31688527658E+02  0.31688527658E+02  0.00000000000E+00 0. -1.
         21   -1    0    0  503  504 -0.00000000000E+00 -0.00000000000E+00 -0.72558825958E+03  0.72558825958E+03  0.00000000000E+00 0. -1.
         25    2    1    2    0    0 -0.49234972563E+02 -0.78401042222E+01 -0.17248870571E+03  0.21877671648E+03  0.12500139327E+03 0.  0.
         25    2    1    2    0    0  0.49234972563E+02  0.78401042222E+01 -0.52141102621E+03  0.53850007076E+03  0.12500927243E+03 0.  0.
          5    1    3    3  501    0 -0.71130919888E+02 -0.27753731538E+02 -0.47052516746E+02  0.89810393110E+02  0.47000000000E+01 0.  1.
         -5    1    3    3    0  501  0.21895947325E+02  0.19913627316E+02 -0.12543618897E+03  0.12896632337E+03  0.47000000000E+01 0.  1.
          5    1    4    4  502    0 -0.15278105787E+02 -0.45313132294E+02 -0.14024936598E+03  0.14825206620E+03  0.47000000000E+01 0.  1.
         -5    1    4    4    0  502  0.64513078350E+02  0.53153236516E+02 -0.38116166023E+03  0.39024800456E+03  0.47000000000E+01 0.  1.
<mgrwt>
<rscale>  0 0.30326769E+03</rscale>
<asrwt>0</asrwt>
<pdfrwt beam="1">  1       21 0.48751585E-02 0.30326769E+03</pdfrwt>
<pdfrwt beam="2">  1       21 0.11162895E+00 0.30326769E+03</pdfrwt>
<totfact> 0.17078264E+05</totfact>
</mgrwt>
</event>
<event>
 8    1  0.9123825E-006  0.3344288E+03  0.7546771E-02  0.1069194E+00
         21   -1    0    0  504  503  0.00000000000E+00  0.00000000000E+00  0.88176031487E+02  0.88176031487E+02  0.00000000000E+00 0. -1.
         21   -1    0    0  503  504 -0.00000000000E+00 -0.00000000000E+00 -0.31710037676E+03  0.31710037676E+03  0.00000000000E+00 0. -1.
         25    2    1    2    0    0 -0.57282560542E+02  0.86313732430E+02 -0.65933872435E+02  0.17522620390E+03  0.12500237938E+03 0.  0.
         25    2    1    2    0    0  0.57282560542E+02 -0.86313732430E+02 -0.16299047284E+03  0.23005020435E+03  0.12500340050E+03 0.  0.
          5    1    3    3  501    0  0.77857380557E+01  0.25093450437E+02  0.32602751919E+02  0.42134646131E+02  0.47000000000E+01 0. -1.
         -5    1    3    3    0  501 -0.65068298598E+02  0.61220281993E+02 -0.98536624354E+02  0.13309155777E+03  0.47000000000E+01 0. -1.
          5    1    4    4  502    0  0.93687784672E+02 -0.51348027786E+02 -0.83096337892E+02  0.13542936286E+03  0.47000000000E+01 0.  1.
         -5    1    4    4    0  502 -0.36405224129E+02 -0.34965704644E+02 -0.79894134947E+02  0.94620841489E+02  0.47000000000E+01 0.  1.
<mgrwt>
<rscale>  0 0.33442878E+03</rscale>
<asrwt>0</asrwt>
<pdfrwt beam="1">  1       21 0.13565543E-01 0.33442878E+03</pdfrwt>
<pdfrwt beam="2">  1       21 0.48784675E-01 0.33442878E+03</pdfrwt>
<totfact> 0.18180931E+05</totfact>
</mgrwt>
</event>
<event>
 8    1  0.9123825E-006  0.2705434E+03  0.7546771E-02  0.1100969E+00
         21   -1    0    0  504  503  0.00000000000E+00  0.00000000000E+00  0.20601886312E+03  0.20601886312E+03  0.00000000000E+00 0. -1.
         21   -1    0    0  503  504 -0.00000000000E+00 -0.00000000000E+00 -0.88819209808E+02  0.88819209808E+02  0.00000000000E+00 0. -1.
         25    2    1    2    0    0 -0.49494477150E+02  0.10629091790E+02  0.70030275840E+02  0.15196541550E+03  0.12500626829E+03 0.  0.
         25    2    1    2    0    0  0.49494477150E+02 -0.10629091790E+02  0.47169377474E+02  0.14287265743E+03  0.12499986084E+03 0.  0.
          5    1    3    3  501    0 -0.10770938303E+02  0.64696329266E+02  0.49177344126E+02  0.82110470147E+02  0.47000000000E+01 0.  1.
         -5    1    3    3    0  501 -0.38723538847E+02 -0.54067237476E+02  0.20852931713E+02  0.69854945352E+02  0.47000000000E+01 0.  1.
          5    1    4    4  502    0  0.90624787445E+02 -0.18477794351E+02  0.29639683114E+02  0.97236216497E+02  0.47000000000E+01 0. -1.
         -5    1    4    4    0  502 -0.41130310295E+02  0.78487025616E+01  0.17529694360E+02  0.45636440935E+02  0.47000000000E+01 0. -1.
<mgrwt>
<rscale>  0 0.27054340E+03</rscale>
<asrwt>0</asrwt>
<pdfrwt beam="1">  1       21 0.31695210E-01 0.27054340E+03</pdfrwt>
<pdfrwt beam="2">  1       21 0.13664494E-01 0.27054340E+03</pdfrwt>
<totfact> 0.43762085E+05</totfact>
</mgrwt>
</event>
<event>
 8    1  0.9123825E-006  0.2901042E+03  0.7546771E-02  0.1090295E+00
         21   -1    0    0  504  503  0.00000000000E+00  0.00000000000E+00  0.67992520034E+02  0.67992520034E+02  0.00000000000E+00 0. -1.
         21   -1    0    0  503  504 -0.00000000000E+00 -0.00000000000E+00 -0.30944748279E+03  0.30944748279E+03  0.00000000000E+00 0. -1.
         25    2    1    2    0    0 -0.62332174003E+02  0.49127492917E+01 -0.17122116765E+03  0.22102097187E+03  0.12499658688E+03 0.  0.
         25    2    1    2    0    0  0.62332174003E+02 -0.49127492917E+01 -0.70233795110E+02  0.15641903096E+03  0.12499876899E+03 0.  0.
          5    1    3    3  501    0 -0.77602314495E+02  0.49148040864E+02 -0.12384412753E+03  0.15426310985E+03  0.47000000000E+01 0. -1.
         -5    1    3    3    0  501  0.15270140492E+02 -0.44235291573E+02 -0.47377040116E+02  0.66757862019E+02  0.47000000000E+01 0. -1.
          5    1    4    4  502    0  0.10895601097E+02  0.56573384150E+02 -0.41387314127E+02  0.71093330827E+02  0.47000000000E+01 0. -1.
         -5    1    4    4    0  502  0.51436572906E+02 -0.61486133442E+02 -0.28846480983E+02  0.85325700132E+02  0.47000000000E+01 0. -1.
<mgrwt>
<rscale>  0 0.29010422E+03</rscale>
<asrwt>0</asrwt>
<pdfrwt beam="1">  1       21 0.10460388E-01 0.29010422E+03</pdfrwt>
<pdfrwt beam="2">  1       21 0.47607304E-01 0.29010422E+03</pdfrwt>
<totfact> 0.30897691E+05</totfact>
</mgrwt>
</event>
<event>
 8    1  0.9123825E-006  0.3105774E+03  0.7546771E-02  0.1080069E+00
         21   -1    0    0  504  503  0.00000000000E+00  0.00000000000E+00  0.12509258612E+03  0.12509258612E+03  0.00000000000E+00 0.  1.
         21   -1    0    0  503  504 -0.00000000000E+00 -0.00000000000E+00 -0.19277385071E+03  0.19277385071E+03  0.00000000000E+00 0.  1.
         25    2    1    2    0    0  0.63296351366E+02 -0.10851646815E+02 -0.10146617443E+03  0.17333302654E+03  0.12499906880E+03 0.  0.
         25    2    1    2    0    0 -0.63296351366E+02  0.10851646815E+02  0.33784909839E+02  0.14453341028E+03  0.12499720085E+03 0.  0.
          5    1    3    3  501    0  0.22274870450E+02  0.14086712164E+02  0.25832140120E+02  0.37202080269E+02  0.47000000000E+01 0.  1.
         -5    1    3    3    0  501  0.41021480916E+02 -0.24938358979E+02 -0.12729831455E+03  0.13613094627E+03  0.47000000000E+01 0.  1.
          5    1    4    4  502    0 -0.83807581835E+02 -0.19100342439E+02 -0.10896931496E+02  0.86771925012E+02  0.47000000000E+01 0.  1.
         -5    1    4    4    0  502  0.20511230469E+02  0.29951989253E+02  0.44681841335E+02  0.57761485271E+02  0.47000000000E+01 0.  1.
<mgrwt>
<rscale>  0 0.31057739E+03</rscale>
<asrwt>0</asrwt>
<pdfrwt beam="1">  1       21 0.19245013E-01 0.31057739E+03</pdfrwt>
<pdfrwt beam="2">  1       21 0.29657515E-01 0.31057739E+03</pdfrwt>
<totfact> 0.26276411E+05</totfact>
</mgrwt>
</event>
<event>
 8    1  0.9123825E-006  0.3253823E+03  0.7546771E-02  0.1073199E+00
         21   -1    0    0  504  503  0.00000000000E+00  0.00000000000E+00  0.25970494283E+02  0.25970494283E+02  0.00000000000E+00 0.  1.
         21   -1    0    0  503  504 -0.00000000000E+00 -0.00000000000E+00 -0.10191722655E+04  0.10191722655E+04  0.00000000000E+00 0.  1.
         25    2    1    2    0    0 -0.49124143618E+02 -0.32867696818E+01 -0.79133254322E+03  0.80265376312E+03  0.12498754001E+03 0.  0.
         25    2    1    2    0    0  0.49124143618E+02  0.32867696818E+01 -0.20186922801E+03  0.24248899667E+03  0.12500297576E+03 0.  0.
          5    1    3    3  501    0 -0.52850092285E+02 -0.37157875008E+02 -0.19803221610E+03  0.20835711782E+03  0.47000000000E+01 0. -1.
         -5    1    3    3    0  501  0.37259486662E+01  0.33871105327E+02 -0.59330032711E+03  0.59429664531E+03  0.47000000000E+01 0. -1.
          5    1    4    4  502    0  0.52003530970E+02 -0.54979011109E+02 -0.11415004113E+03  0.13703788084E+03  0.47000000000E+01 0. -1.
         -5    1    4    4    0  502 -0.28793873514E+01  0.58265780791E+02 -0.87719186880E+02  0.10545111583E+03  0.47000000000E+01 0. -1.
<mgrwt>
<rscale>  0 0.32538228E+03</rscale>
<asrwt>0</asrwt>
<pdfrwt beam="1">  1       21 0.39954604E-02 0.32538228E+03</pdfrwt>
<pdfrwt beam="2">  1       21 0.15679574E+00 0.32538228E+03</pdfrwt>
<totfact> 0.98941964E+04</totfact>
</mgrwt>
</event>
<event>
 8    1  0.9123825E-006  0.4378231E+03  0.7546771E-02  0.1031417E+00
         21   -1    0    0  504  503  0.00000000000E+00  0.00000000000E+00  0.27943750182E+03  0.27943750182E+03  0.00000000000E+00 0. -1.
         21   -1    0    0  503  504 -0.00000000000E+00 -0.00000000000E+00 -0.17149545621E+03  0.17149545621E+03  0.00000000000E+00 0. -1.
         25    2    1    2    0    0  0.88400534144E+02 -0.14766172101E+03  0.10727138800E+03  0.23822351266E+03  0.12499861204E+03 0.  0.
         25    2    1    2    0    0 -0.88400534144E+02  0.14766172101E+03  0.67065761677E+00  0.21270944536E+03  0.12500488020E+03 0.  0.
          5    1    3    3  501    0  0.98656427092E+02 -0.16362726862E+03  0.10618997964E+03  0.21864440404E+03  0.47000000000E+01 0.  1.
         -5    1    3    3    0  501 -0.10255892948E+02  0.15965547604E+02  0.10814083609E+01  0.19579108624E+02  0.47000000000E+01 0.  1.
          5    1    4    4  502    0 -0.39279600675E+02  0.32166335339E+02 -0.55290627954E+02  0.75211061008E+02  0.47000000000E+01 0.  1.
         -5    1    4    4    0  502 -0.49120933469E+02  0.11549538568E+03  0.55961285571E+02  0.13749838435E+03  0.47000000000E+01 0.  1.
<mgrwt>
<rscale>  0 0.43782308E+03</rscale>
<asrwt>0</asrwt>
<pdfrwt beam="1">  1       21 0.42990385E-01 0.43782308E+03</pdfrwt>
<pdfrwt beam="2">  1       21 0.26383916E-01 0.43782308E+03</pdfrwt>
<totfact> 0.65984088E+04</totfact>
</mgrwt>
</event>
<event>
 8    1  0.9123825E-006  0.2951792E+03  0.7546771E-02  0.1087676E+00
         21   -1    0    0  504  503  0.00000000000E+00  0.00000000000E+00  0.62690120890E+02  0.62690120890E+02  0.00000000000E+00 0.  1.
         21   -1    0    0  503  504 -0.00000000000E+00 -0.00000000000E+00 -0.34746597514E+03  0.34746597514E+03  0.00000000000E+00 0.  1.
         25    2    1    2    0    0  0.36485245663E+02  0.44546597966E+02 -0.68311722967E+02  0.15364611906E+03  0.12500026346E+03 0.  0.
         25    2    1    2    0    0 -0.36485245663E+02 -0.44546597966E+02 -0.21646413129E+03  0.25650997698E+03  0.12500030246E+03 0.  0.
          5    1    3    3  501    0  0.17546627676E+02  0.78866661174E+02 -0.76816347134E+01  0.81295337501E+02  0.47000000000E+01 0.  1.
         -5    1    3    3    0  501  0.18938617986E+02 -0.34320063208E+02 -0.60630088254E+02  0.72350781554E+02  0.47000000000E+01 0.  1.
          5    1    4    4  502    0  0.22139439191E+02 -0.39628514408E+02 -0.18312600281E+03  0.18872677825E+03  0.47000000000E+01 0. -1.
         -5    1    4    4    0  502 -0.58624684853E+02 -0.49180835580E+01 -0.33338128476E+02  0.67783198731E+02  0.47000000000E+01 0. -1.
<mgrwt>
<rscale>  0 0.29517916E+03</rscale>
<asrwt>0</asrwt>
<pdfrwt beam="1">  1       21 0.96446338E-02 0.29517916E+03</pdfrwt>
<pdfrwt beam="2">  1       21 0.53456305E-01 0.29517916E+03</pdfrwt>
<totfact> 0.27939313E+05</totfact>
</mgrwt>
</event>
<event>
 8    1  0.9123825E-006  0.2735145E+03  0.7546771E-02  0.1099285E+00
         21   -1    0    0  504  503  0.00000000000E+00  0.00000000000E+00  0.10613290434E+04  0.10613290434E+04  0.00000000000E+00 0. -1.
         21   -1    0    0  503  504 -0.00000000000E+00 -0.00000000000E+00 -0.17621810516E+02  0.17621810516E+02  0.00000000000E+00 0. -1.
         25    2    1    2    0    0  0.30447935186E+02  0.26430036164E+02  0.37164873105E+03  0.39417813995E+03  0.12501201206E+03 0.  0.
         25    2    1    2    0    0 -0.30447935186E+02 -0.26430036164E+02  0.67205850180E+03  0.68477271393E+03  0.12500166530E+03 0.  0.
          5    1    3    3  501    0 -0.38494533548E+02  0.39839514824E+02  0.11035883574E+03  0.12357256443E+03  0.47000000000E+01 0.  1.
         -5    1    3    3    0  501  0.68942468734E+02 -0.13409478661E+02  0.26128989531E+03  0.27060557552E+03  0.47000000000E+01 0.  1.
          5    1    4    4  502    0 -0.50408636454E+02 -0.28056157689E+02  0.65633105365E+03  0.65887838073E+03  0.47000000000E+01 0.  1.
         -5    1    4    4    0  502  0.19960701268E+02  0.16261215257E+01  0.15727448157E+02  0.25894333200E+02  0.47000000000E+01 0.  1.
<mgrwt>
<rscale>  0 0.27351446E+03</rscale>
<asrwt>0</asrwt>
<pdfrwt beam="1">  1       21 0.16328134E+00 0.27351446E+03</pdfrwt>
<pdfrwt beam="2">  1       21 0.27110486E-02 0.27351446E+03</pdfrwt>
<totfact> 0.17254627E+05</totfact>
</mgrwt>
</event>
<event>
 8    1  0.9123825E-006  0.2548308E+03  0.7546771E-02  0.1110289E+00
         21   -1    0    0  504  503  0.00000000000E+00  0.00000000000E+00  0.12604835625E+03  0.12604835625E+03  0.00000000000E+00 0.  1.
         21   -1    0    0  503  504 -0.00000000000E+00 -0.00000000000E+00 -0.12879725701E+03  0.12879725701E+03  0.00000000000E+00 0.  1.
         25    2    1    2    0    0  0.97231998290E+00 -0.19154352405E+02 -0.16950370632E+02  0.12758914200E+03  0.12499535779E+03 0.  0.
         25    2    1    2    0    0 -0.97231998290E+00  0.19154352405E+02  0.14201469879E+02  0.12725647126E+03  0.12499877243E+03 0.  0.
          5    1    3    3  501    0  0.37924174073E+02 -0.41677642467E+02 -0.47958647874E+02  0.74144391336E+02  0.47000000000E+01 0. -1.
         -5    1    3    3    0  501 -0.36951854090E+02  0.22523290062E+02  0.31008277242E+02  0.53444750663E+02  0.47000000000E+01 0. -1.
          5    1    4    4  502    0  0.35731329664E+02 -0.29501131859E+02 -0.26721298906E+02  0.53695088377E+02  0.47000000000E+01 0. -1.
         -5    1    4    4    0  502 -0.36703649647E+02  0.48655484265E+02  0.40922768785E+02  0.73561382882E+02  0.47000000000E+01 0. -1.
<mgrwt>
<rscale>  0 0.25483079E+03</rscale>
<asrwt>0</asrwt>
<pdfrwt beam="1">  1       21 0.19392055E-01 0.25483079E+03</pdfrwt>
<pdfrwt beam="2">  1       21 0.19814963E-01 0.25483079E+03</pdfrwt>
<totfact> 0.56788447E+05</totfact>
</mgrwt>
</event>
<event>
 8    1  0.9123825E-006  0.2861498E+03  0.7546771E-02  0.1092377E+00
         21   -1    0    0  504  503  0.00000000000E+00  0.00000000000E+00  0.10045943296E+04  0.10045943296E+04  0.00000000000E+00 0. -1.
         21   -1    0    0  503  504 -0.00000000000E+00 -0.00000000000E+00 -0.20376815654E+02  0.20376815654E+02  0.00000000000E+00 0. -1.
         25    2    1    2    0    0  0.63226402912E+02 -0.22956308040E+02  0.55585043845E+03  0.57369427730E+03  0.12502337293E+03 0.  0.
         25    2    1    2    0    0 -0.63226402912E+02  0.22956308040E+02  0.42836707548E+03  0.45127686793E+03  0.12501155977E+03 0.  0.
          5    1    3    3  501    0  0.78270717379E+02 -0.38576921715E+02  0.53844950293E+03  0.54549467577E+03  0.47000000000E+01 0.  1.
         -5    1    3    3    0  501 -0.15044314467E+02  0.15620613675E+02  0.17400935514E+02  0.28199601525E+02  0.47000000000E+01 0.  1.
          5    1    4    4  502    0 -0.58880406369E+02  0.63242857777E+02  0.37053405356E+03  0.38050510662E+03  0.47000000000E+01 0. -1.
         -5    1    4    4    0  502 -0.43459965432E+01 -0.40286549738E+02  0.57833021914E+02  0.70771761313E+02  0.47000000000E+01 0. -1.
<mgrwt>
<rscale>  0 0.28614985E+03</rscale>
<asrwt>0</asrwt>
<pdfrwt beam="1">  1       21 0.15455294E+00 0.28614985E+03</pdfrwt>
<pdfrwt beam="2">  1       21 0.31348955E-02 0.28614985E+03</pdfrwt>
<totfact> 0.15672596E+05</totfact>
</mgrwt>
</event>
<event>
 8    1  0.9123825E-006  0.2603997E+03  0.7546771E-02  0.1106903E+00
         21   -1    0    0  504  503  0.00000000000E+00  0.00000000000E+00  0.70896437473E+02  0.70896437473E+02  0.00000000000E+00 0. -1.
         21   -1    0    0  503  504 -0.00000000000E+00 -0.00000000000E+00 -0.23910935931E+03  0.23910935931E+03  0.00000000000E+00 0. -1.
         25    2    1    2    0    0  0.18722953423E+02 -0.22824321401E+02 -0.58716103377E+02  0.14122145168E+03  0.12499767593E+03 0.  0.
         25    2    1    2    0    0 -0.18722953423E+02  0.22824321401E+02 -0.10949681846E+03  0.16878434510E+03  0.12500841278E+03 0.  0.
          5    1    3    3  501    0 -0.42096278706E+01  0.32675666337E+02  0.22451974382E+02  0.40144754216E+02  0.47000000000E+01 0.  1.
         -5    1    3    3    0  501  0.22932581293E+02 -0.55499987738E+02 -0.81168077759E+02  0.10107669747E+03  0.47000000000E+01 0.  1.
          5    1    4    4  502    0  0.38387314993E+02  0.49583648170E+02 -0.38627166421E+02  0.73798862484E+02  0.47000000000E+01 0.  1.
         -5    1    4    4    0  502 -0.57110268415E+02 -0.26759326769E+02 -0.70869652034E+02  0.94985482612E+02  0.47000000000E+01 0.  1.
<mgrwt>
<rscale>  0 0.26039971E+03</rscale>
<asrwt>0</asrwt>
<pdfrwt beam="1">  1       21 0.10907144E-01 0.26039971E+03</pdfrwt>
<pdfrwt beam="2">  1       21 0.36786055E-01 0.26039971E+03</pdfrwt>
<totfact> 0.48925270E+05</totfact>
</mgrwt>
</event>
<event>
 8    1  0.9123825E-006  0.3026793E+03  0.7546771E-02  0.1083909E+00
         21   -1    0    0  504  503  0.00000000000E+00  0.00000000000E+00  0.11749644373E+04  0.11749644373E+04  0.00000000000E+00 0.  1.
         21   -1    0    0  503  504 -0.00000000000E+00 -0.00000000000E+00 -0.19493094561E+02  0.19493094561E+02  0.00000000000E+00 0.  1.
         25    2    1    2    0    0  0.83024873945E+02  0.84292556776E+01  0.50809908319E+03  0.52986786260E+03  0.12502436336E+03 0.  0.
         25    2    1    2    0    0 -0.83024873945E+02 -0.84292556776E+01  0.64737225960E+03  0.66458966931E+03  0.12499761603E+03 0.  0.
          5    1    3    3  501    0  0.62213635448E+02 -0.72071261168E+01  0.49737533558E+03  0.50132503783E+03  0.47000000000E+01 0. -1.
         -5    1    3    3    0  501  0.20811238498E+02  0.15636381794E+02  0.10723747606E+02  0.28542824775E+02  0.47000000000E+01 0. -1.
          5    1    4    4  502    0 -0.94045047560E+02 -0.48853167078E+02  0.40994016247E+03  0.42344318356E+03  0.47000000000E+01 0. -1.
         -5    1    4    4    0  502  0.11020173615E+02  0.40423911401E+02  0.23743209713E+03  0.24114648575E+03  0.47000000000E+01 0. -1.
<mgrwt>
<rscale>  0 0.30267932E+03</rscale>
<asrwt>0</asrwt>
<pdfrwt beam="1">  1       21 0.18076370E+00 0.30267932E+03</pdfrwt>
<pdfrwt beam="2">  1       21 0.29989385E-02 0.30267932E+03</pdfrwt>
<totfact> 0.10844329E+05</totfact>
</mgrwt>
</event>
<event>
 8    1  0.9123825E-006  0.2774248E+03  0.7546771E-02  0.1097104E+00
         21   -1    0    0  504  503  0.00000000000E+00  0.00000000000E+00  0.95203875717E+02  0.95203875717E+02  0.00000000000E+00 0.  1.
         21   -1    0    0  503  504 -0.00000000000E+00 -0.00000000000E+00 -0.20210444310E+03  0.20210444310E+03  0.00000000000E+00 0.  1.
         25    2    1    2    0    0  0.35537844200E+02 -0.32074966529E+02 -0.92437467426E+02  0.16267002645E+03  0.12500044110E+03 0.  0.
         25    2    1    2    0    0 -0.35537844200E+02  0.32074966529E+02 -0.14463099954E+02  0.13463829236E+03  0.12500618649E+03 0.  0.
          5    1    3    3  501    0  0.26540191878E+02  0.16100116788E+02  0.21835656646E+02  0.38242403777E+02  0.47000000000E+01 0.  1.
         -5    1    3    3    0  501  0.89976523219E+01 -0.48175083317E+02 -0.11427312407E+03  0.12442762268E+03  0.47000000000E+01 0.  1.
          5    1    4    4  502    0 -0.11286909989E+02  0.75380221512E+02 -0.30553716630E+02  0.82250785603E+02  0.47000000000E+01 0.  1.
         -5    1    4    4    0  502 -0.24250934210E+02 -0.43305254984E+02  0.16090616676E+02  0.52387506758E+02  0.47000000000E+01 0.  1.
<mgrwt>
<rscale>  0 0.27742477E+03</rscale>
<asrwt>0</asrwt>
<pdfrwt beam="1">  1       21 0.14646750E-01 0.27742477E+03</pdfrwt>
<pdfrwt beam="2">  1       21 0.31092991E-01 0.27742477E+03</pdfrwt>
<totfact> 0.39988542E+05</totfact>
</mgrwt>
</event>
<event>
 8    1  0.9123825E-006  0.3015489E+03  0.7546771E-02  0.1084469E+00
         21   -1    0    0  504  503  0.00000000000E+00  0.00000000000E+00  0.80400531959E+02  0.80400531959E+02  0.00000000000E+00 0.  1.
         21   -1    0    0  503  504 -0.00000000000E+00 -0.00000000000E+00 -0.28274608985E+03  0.28274608985E+03  0.00000000000E+00 0.  1.
         25    2    1    2    0    0 -0.83292911136E+02 -0.11559776023E+02 -0.10838288866E+03  0.18559171386E+03  0.12500438485E+03 0.  0.
         25    2    1    2    0    0  0.83292911136E+02  0.11559776023E+02 -0.93962669230E+02  0.17755490795E+03  0.12500169863E+03 0.  0.
          5    1    3    3  501    0 -0.86237882298E+02  0.20534483143E+02 -0.19445657390E+02  0.90878275360E+02  0.47000000000E+01 0. -1.
         -5    1    3    3    0  501  0.29449711620E+01 -0.32094259166E+02 -0.88937231269E+02  0.94713438500E+02  0.47000000000E+01 0. -1.
          5    1    4    4  502    0  0.12119007204E+02  0.36302852458E+02  0.17969012433E+02  0.42541072389E+02  0.47000000000E+01 0. -1.
         -5    1    4    4    0  502  0.71173903932E+02 -0.24743076434E+02 -0.11193168166E+03  0.13501383556E+03  0.47000000000E+01 0. -1.
<mgrwt>
<rscale>  0 0.30154891E+03</rscale>
<asrwt>0</asrwt>
<pdfrwt beam="1">  1       21 0.12369313E-01 0.30154891E+03</pdfrwt>
<pdfrwt beam="2">  1       21 0.43499398E-01 0.30154891E+03</pdfrwt>
<totfact> 0.27502987E+05</totfact>
</mgrwt>
</event>
<event>
 8    1  0.9123825E-006  0.2966042E+03  0.7546771E-02  0.1086951E+00
         21   -1    0    0  504  503  0.00000000000E+00  0.00000000000E+00  0.34247062940E+02  0.34247062940E+02  0.00000000000E+00 0. -1.
         21   -1    0    0  503  504 -0.00000000000E+00 -0.00000000000E+00 -0.64220135147E+03  0.64220135147E+03  0.00000000000E+00 0. -1.
         25    2    1    2    0    0  0.39100232569E+02 -0.68758841118E+02 -0.27982968754E+03  0.31652300929E+03  0.12500221982E+03 0.  0.
         25    2    1    2    0    0 -0.39100232569E+02  0.68758841118E+02 -0.32812460099E+03  0.35992540512E+03  0.12499574816E+03 0.  0.
          5    1    3    3  501    0 -0.30785430486E+02  0.15370115612E+02 -0.10146689004E+03  0.10724552652E+03  0.47000000000E+01 0.  1.
         -5    1    3    3    0  501  0.69885663055E+02 -0.84128956730E+02 -0.17836279751E+03  0.20927748277E+03  0.47000000000E+01 0.  1.
          5    1    4    4  502    0 -0.73999009323E+02  0.76145455669E+01 -0.20337030647E+03  0.21659964506E+03  0.47000000000E+01 0. -1.
         -5    1    4    4    0  502  0.34898776754E+02  0.61144295551E+02 -0.12475429452E+03  0.14332576006E+03  0.47000000000E+01 0. -1.
<mgrwt>
<rscale>  0 0.29660418E+03</rscale>
<asrwt>0</asrwt>
<pdfrwt beam="1">  1       21 0.52687796E-02 0.29660418E+03</pdfrwt>
<pdfrwt beam="2">  1       21 0.98800196E-01 0.29660418E+03</pdfrwt>
<totfact> 0.20152807E+05</totfact>
</mgrwt>
</event>
<event>
 8    1  0.9123825E-006  0.2801646E+03  0.7546771E-02  0.1095599E+00
         21   -1    0    0  504  503  0.00000000000E+00  0.00000000000E+00  0.21873339210E+02  0.21873339210E+02  0.00000000000E+00 0. -1.
         21   -1    0    0  503  504 -0.00000000000E+00 -0.00000000000E+00 -0.89712177965E+03  0.89712177965E+03  0.00000000000E+00 0. -1.
         25    2    1    2    0    0  0.19639702377E+02 -0.54443947788E+02 -0.35410478239E+03  0.37995425863E+03  0.12500072151E+03 0.  0.
         25    2    1    2    0    0 -0.19639702377E+02  0.54443947788E+02 -0.52114365805E+03  0.53904086023E+03  0.12499790124E+03 0.  0.
          5    1    3    3  501    0 -0.31397968150E+02 -0.66845944078E+02 -0.12865707305E+03  0.14842151155E+03  0.47000000000E+01 0.  1.
         -5    1    3    3    0  501  0.51037670528E+02  0.12401996290E+02 -0.22544770934E+03  0.23153274708E+03  0.47000000000E+01 0.  1.
          5    1    4    4  502    0  0.60441386544E+01  0.85695120696E+02 -0.23984044060E+03  0.25480524380E+03  0.47000000000E+01 0. -1.
         -5    1    4    4    0  502 -0.25683841032E+02 -0.31251172908E+02 -0.28130321745E+03  0.28423561643E+03  0.47000000000E+01 0. -1.
<mgrwt>
<rscale>  0 0.28016459E+03</rscale>
<asrwt>0</asrwt>
<pdfrwt beam="1">  1       21 0.33651296E-02 0.28016459E+03</pdfrwt>
<pdfrwt beam="2">  1       21 0.13801872E+00 0.28016459E+03</pdfrwt>
<totfact> 0.18823939E+05</totfact>
</mgrwt>
</event>
<event>
 8    1  0.9123825E-006  0.3632772E+03  0.7546771E-02  0.1057294E+00
         21   -1    0    0  504  503  0.00000000000E+00  0.00000000000E+00  0.42173861154E+03  0.42173861154E+03  0.00000000000E+00 0. -1.
         21   -1    0    0  503  504 -0.00000000000E+00 -0.00000000000E+00 -0.78229945746E+02  0.78229945746E+02  0.00000000000E+00 0. -1.
         25    2    1    2    0    0 -0.45038544826E+02  0.12378480379E+03  0.17798453698E+03  0.25427089302E+03  0.12499617380E+03 0.  0.
         25    2    1    2    0    0  0.45038544826E+02 -0.12378480379E+03  0.16552412881E+03  0.24569766426E+03  0.12497182417E+03 0.  0.
          5    1    3    3  501    0 -0.11201417921E+02  0.44655877751E+02 -0.10109951479E+02  0.47370035889E+02  0.47000000000E+01 0. -1.
         -5    1    3    3    0  501 -0.33837126904E+02  0.79128926038E+02  0.18809448846E+03  0.20690085713E+03  0.47000000000E+01 0. -1.
          5    1    4    4  502    0 -0.33269017396E+00  0.24447452463E+02  0.35226276637E+02  0.43136633855E+02  0.47000000000E+01 0. -1.
         -5    1    4    4    0  502  0.45371235000E+02 -0.14823225625E+03  0.13029785218E+03  0.20256103041E+03  0.47000000000E+01 0. -1.
<mgrwt>
<rscale>  0 0.36327724E+03</rscale>
<asrwt>0</asrwt>
<pdfrwt beam="1">  1       21 0.64882862E-01 0.36327724E+03</pdfrwt>
<pdfrwt beam="2">  1       21 0.12035377E-01 0.36327724E+03</pdfrwt>
<totfact> 0.12150597E+05</totfact>
</mgrwt>
</event>
<event>
 8    1  0.9123825E-006  0.3731675E+03  0.7546771E-02  0.1053488E+00
         21   -1    0    0  504  503  0.00000000000E+00  0.00000000000E+00  0.10000420720E+03  0.10000420720E+03  0.00000000000E+00 0.  1.
         21   -1    0    0  503  504 -0.00000000000E+00 -0.00000000000E+00 -0.34812031909E+03  0.34812031909E+03  0.00000000000E+00 0.  1.
         25    2    1    2    0    0 -0.81844063353E+02  0.56748393113E+02 -0.23967429446E+03  0.28807613768E+03  0.12500105138E+03 0.  0.
         25    2    1    2    0    0  0.81844063353E+02 -0.56748393113E+02 -0.84418174238E+01  0.16004838862E+03  0.12500156635E+03 0.  0.
          5    1    3    3  501    0 -0.11054046468E+03  0.65176943817E+02 -0.17934709604E+03  0.22057810225E+03  0.47000000000E+01 0. -1.
         -5    1    3    3    0  501  0.28696401329E+02 -0.84285507042E+01 -0.60327198422E+02  0.67498035421E+02  0.47000000000E+01 0. -1.
          5    1    4    4  502    0  0.88517683901E+02 -0.24208476479E+02  0.40739304265E+02  0.10051473329E+03  0.47000000000E+01 0.  1.
         -5    1    4    4    0  502 -0.66736205480E+01 -0.32539916633E+02 -0.49181121689E+02  0.59533655325E+02  0.47000000000E+01 0.  1.
<mgrwt>
<rscale>  0 0.37316750E+03</rscale>
<asrwt>0</asrwt>
<pdfrwt beam="1">  1       21 0.15385262E-01 0.37316750E+03</pdfrwt>
<pdfrwt beam="2">  1       21 0.53556973E-01 0.37316750E+03</pdfrwt>
<totfact> 0.11732428E+05</totfact>
</mgrwt>
</event>
<event>
 8    1  0.9123825E-006  0.3496504E+03  0.7546771E-02  0.1062759E+00
         21   -1    0    0  504  503  0.00000000000E+00  0.00000000000E+00  0.62583123154E+02  0.62583123154E+02  0.00000000000E+00 0.  1.
         21   -1    0    0  503  504 -0.00000000000E+00 -0.00000000000E+00 -0.48837214865E+03  0.48837214865E+03  0.00000000000E+00 0.  1.
         25    2    1    2    0    0 -0.11353795437E+03 -0.29581505113E+02 -0.26683445615E+03  0.31716560891E+03  0.12500985546E+03 0.  0.
         25    2    1    2    0    0  0.11353795437E+03  0.29581505113E+02 -0.15895456935E+03  0.23378966289E+03  0.12500047532E+03 0.  0.
          5    1    3    3  501    0  0.12607973237E+02 -0.24087899769E+02 -0.73507520264E+01  0.28553659307E+02  0.47000000000E+01 0. -1.
         -5    1    3    3    0  501 -0.12614592761E+03 -0.54936053435E+01 -0.25948370412E+03  0.28861194961E+03  0.47000000000E+01 0. -1.
          5    1    4    4  502    0  0.30264347044E+02  0.34345356824E+02  0.83664445297E+01  0.46772017611E+02  0.47000000000E+01 0.  1.
         -5    1    4    4    0  502  0.83273607328E+02 -0.47638517106E+01 -0.16732101388E+03  0.18701764528E+03  0.47000000000E+01 0.  1.
<mgrwt>
<rscale>  0 0.34965042E+03</rscale>
<asrwt>0</asrwt>
<pdfrwt beam="1">  1       21 0.96281732E-02 0.34965042E+03</pdfrwt>
<pdfrwt beam="2">  1       21 0.75134174E-01 0.34965042E+03</pdfrwt>
<totfact> 0.13113606E+05</totfact>
</mgrwt>
</event>
<event>
 8    1  0.9123825E-006  0.2878455E+03  0.7546771E-02  0.1091479E+00
         21   -1    0    0  504  503  0.00000000000E+00  0.00000000000E+00  0.56561386927E+02  0.56561386927E+02  0.00000000000E+00 0.  1.
         21   -1    0    0  503  504 -0.00000000000E+00 -0.00000000000E+00 -0.36621729699E+03  0.36621729699E+03  0.00000000000E+00 0.  1.
         25    2    1    2    0    0 -0.88365836872E+01  0.33969404486E+02 -0.63620161377E+02  0.14456240055E+03  0.12497502577E+03 0.  0.
         25    2    1    2    0    0  0.88365836872E+01 -0.33969404486E+02 -0.24603574869E+03  0.27821628336E+03  0.12505480817E+03 0.  0.
          5    1    3    3  501    0 -0.92939862206E+01 -0.36069136038E+02  0.13852841299E+02  0.40016896012E+02  0.47000000000E+01 0. -1.
         -5    1    3    3    0  501  0.45740253343E+00  0.70038540524E+02 -0.77473002676E+02  0.10454550454E+03  0.47000000000E+01 0. -1.
          5    1    4    4  502    0 -0.19721691526E+02  0.32378299312E+02 -0.16584245179E+03  0.17018551113E+03  0.47000000000E+01 0.  1.
         -5    1    4    4    0  502  0.28558275213E+02 -0.66347703798E+02 -0.80193296894E+02  0.10803077223E+03  0.47000000000E+01 0.  1.
<mgrwt>
<rscale>  0 0.28784550E+03</rscale>
<asrwt>0</asrwt>
<pdfrwt beam="1">  1       21 0.87017518E-02 0.28784550E+03</pdfrwt>
<pdfrwt beam="2">  1       21 0.56341123E-01 0.28784550E+03</pdfrwt>
<totfact> 0.30012198E+05</totfact>
</mgrwt>
</event>
<event>
 8    1  0.9123825E-006  0.3709070E+03  0.7546771E-02  0.1054347E+00
         21   -1    0    0  504  503  0.00000000000E+00  0.00000000000E+00  0.17069368732E+03  0.17069368732E+03  0.00000000000E+00 0.  1.
         21   -1    0    0  503  504 -0.00000000000E+00 -0.00000000000E+00 -0.20148956691E+03  0.20148956691E+03  0.00000000000E+00 0.  1.
         25    2    1    2    0    0 -0.16712106829E+02  0.77137058078E+00 -0.15183813099E+03  0.19738188437E+03  0.12499960291E+03 0.  0.
         25    2    1    2    0    0  0.16712106829E+02 -0.77137058078E+00  0.12104225140E+03  0.17480136986E+03  0.12499761099E+03 0.  0.
          5    1    3    3  501    0  0.29116371039E+02 -0.33271169817E+02 -0.11679972280E+02  0.45970050641E+02  0.47000000000E+01 0.  1.
         -5    1    3    3    0  501 -0.45828477867E+02  0.34042540398E+02 -0.14015815871E+03  0.15141183373E+03  0.47000000000E+01 0.  1.
          5    1    4    4  502    0 -0.38479292053E+02 -0.36764706602E+02  0.26958029778E+02  0.59842501101E+02  0.47000000000E+01 0. -1.
         -5    1    4    4    0  502  0.55191398882E+02  0.35993336022E+02  0.94084221624E+02  0.11495886876E+03  0.47000000000E+01 0. -1.
<mgrwt>
<rscale>  0 0.37090698E+03</rscale>
<asrwt>0</asrwt>
<pdfrwt beam="1">  1       21 0.26260567E-01 0.37090698E+03</pdfrwt>
<pdfrwt beam="2">  1       21 0.30998395E-01 0.37090698E+03</pdfrwt>
<totfact> 0.13119933E+05</totfact>
</mgrwt>
</event>
<event>
 8    1  0.9123825E-006  0.8397693E+03  0.7546771E-02  0.9504172E-01
         21   -1    0    0  504  503  0.00000000000E+00  0.00000000000E+00  0.16255125277E+04  0.16255125277E+04  0.00000000000E+00 0.  1.
         21   -1    0    0  503  504 -0.00000000000E+00 -0.00000000000E+00 -0.10846002956E+03  0.10846002956E+03  0.00000000000E+00 0.  1.
         25    2    1    2    0    0  0.53099558308E+02  0.37567692732E+03  0.49148338367E+03  0.63335106414E+03  0.12499974886E+03 0.  0.
         25    2    1    2    0    0 -0.53099558308E+02 -0.37567692732E+03  0.10255691145E+04  0.11006214931E+04  0.12499178263E+03 0.  0.
          5    1    3    3  501    0  0.34359171062E+01  0.17237603019E+03  0.13133698073E+03  0.21678743925E+03  0.47000000000E+01 0. -1.
         -5    1    3    3    0  501  0.49663641202E+02  0.20330089713E+03  0.36014640294E+03  0.41656362489E+03  0.47000000000E+01 0. -1.
          5    1    4    4  502    0 -0.81931251249E+02 -0.15191837998E+03  0.48621771516E+03  0.51596674374E+03  0.47000000000E+01 0. -1.
         -5    1    4    4    0  502  0.28831692941E+02 -0.22375854735E+03  0.53935139930E+03  0.58465474937E+03  0.47000000000E+01 0. -1.
<mgrwt>
<rscale>  0 0.83976934E+03</rscale>
<asrwt>0</asrwt>
<pdfrwt beam="1">  1       21 0.25007883E+00 0.83976934E+03</pdfrwt>
<pdfrwt beam="2">  1       21 0.16686160E-01 0.83976934E+03</pdfrwt>
<totfact> 0.15643629E+03</totfact>
</mgrwt>
</event>
<event>
 8    1  0.9123825E-006  0.2588087E+03  0.7546771E-02  0.1107861E+00
         21   -1    0    0  504  503  0.00000000000E+00  0.00000000000E+00  0.98208526548E+02  0.98208526548E+02  0.00000000000E+00 0. -1.
         21   -1    0    0  503  504 -0.00000000000E+00 -0.00000000000E+00 -0.17050953095E+03  0.17050953095E+03  0.00000000000E+00 0. -1.
         25    2    1    2    0    0  0.29706471883E+02 -0.33758859590E+01 -0.51811397754E+02  0.13857223381E+03  0.12499588780E+03 0.  0.
         25    2    1    2    0    0 -0.29706471883E+02  0.33758859590E+01 -0.20489606648E+02  0.13014582369E+03  0.12499696142E+03 0.  0.
          5    1    3    3  501    0  0.11604093779E+02  0.48254359293E+02 -0.65176316000E+02  0.82055958653E+02  0.47000000000E+01 0. -1.
         -5    1    3    3    0  501  0.18102378104E+02 -0.51630245252E+02  0.13364918246E+02  0.56516275156E+02  0.47000000000E+01 0. -1.
          5    1    4    4  502    0  0.72938600985E+01  0.45370852792E+02  0.29621059508E+02  0.54874509971E+02  0.47000000000E+01 0. -1.
         -5    1    4    4    0  502 -0.37000331981E+02 -0.41994966833E+02 -0.50110666155E+02  0.75271313716E+02  0.47000000000E+01 0. -1.
<mgrwt>
<rscale>  0 0.25880873E+03</rscale>
<asrwt>0</asrwt>
<pdfrwt beam="1">  1       21 0.15109004E-01 0.25880873E+03</pdfrwt>
<pdfrwt beam="2">  1       21 0.26232236E-01 0.25880873E+03</pdfrwt>
<totfact> 0.52821763E+05</totfact>
</mgrwt>
</event>
<event>
 8    1  0.9123825E-006  0.4218963E+03  0.7546771E-02  0.1036451E+00
         21   -1    0    0  504  503  0.00000000000E+00  0.00000000000E+00  0.37227827632E+03  0.37227827632E+03  0.00000000000E+00 0.  1.
         21   -1    0    0  503  504 -0.00000000000E+00 -0.00000000000E+00 -0.11953185212E+03  0.11953185212E+03  0.00000000000E+00 0.  1.
         25    2    1    2    0    0  0.77022493927E+02 -0.12553590326E+03  0.27580393414E+02  0.19513307106E+03  0.12499803895E+03 0.  0.
         25    2    1    2    0    0 -0.77022493927E+02  0.12553590326E+03  0.22516603079E+03  0.29667705738E+03  0.12500322946E+03 0.  0.
          5    1    3    3  501    0  0.39475232012E+02 -0.14178394575E+03  0.32213140622E+01  0.14728695827E+03  0.47000000000E+01 0.  1.
         -5    1    3    3    0  501  0.37547261916E+02  0.16248042480E+02  0.24359079352E+02  0.47846112785E+02  0.47000000000E+01 0.  1.
          5    1    4    4  502    0 -0.90884294754E+01 -0.93218823145E+00 -0.14197108624E+02  0.17524737331E+02  0.47000000000E+01 0. -1.
         -5    1    4    4    0  502 -0.67934064452E+02  0.12646809150E+03  0.23936313941E+03  0.27915232005E+03  0.47000000000E+01 0. -1.
<mgrwt>
<rscale>  0 0.42189625E+03</rscale>
<asrwt>0</asrwt>
<pdfrwt beam="1">  1       21 0.57273580E-01 0.42189625E+03</pdfrwt>
<pdfrwt beam="2">  1       21 0.18389516E-01 0.42189625E+03</pdfrwt>
<totfact> 0.72000007E+04</totfact>
</mgrwt>
</event>
<event>
 8    1  0.9123825E-006  0.4321309E+03  0.7546771E-02  0.1033189E+00
         21   -1    0    0  504  503  0.00000000000E+00  0.00000000000E+00  0.18124575863E+03  0.18124575863E+03  0.00000000000E+00 0. -1.
         21   -1    0    0  503  504 -0.00000000000E+00 -0.00000000000E+00 -0.25757443784E+03  0.25757443784E+03  0.00000000000E+00 0. -1.
         25    2    1    2    0    0  0.29551119326E+02 -0.12888139028E+03  0.80153372247E+02  0.19883008947E+03  0.12500063992E+03 0.  0.
         25    2    1    2    0    0 -0.29551119326E+02  0.12888139028E+03 -0.15648205146E+03  0.23999010700E+03  0.12499975046E+03 0.  0.
          5    1    3    3  501    0  0.75955054134E+02 -0.99863832206E+02  0.43874436143E+02  0.13300004278E+03  0.47000000000E+01 0.  1.
         -5    1    3    3    0  501 -0.46403934807E+02 -0.29017558078E+02  0.36278936104E+02  0.65830046690E+02  0.47000000000E+01 0.  1.
          5    1    4    4  502    0 -0.24393891297E+02 -0.19663764962E+02 -0.16325246094E+02  0.35641678483E+02  0.47000000000E+01 0. -1.
         -5    1    4    4    0  502 -0.51572280296E+01  0.14854515525E+03 -0.14015680537E+03  0.20434842852E+03  0.47000000000E+01 0. -1.
<mgrwt>
<rscale>  0 0.43213088E+03</rscale>
<asrwt>0</asrwt>
<pdfrwt beam="1">  1       21 0.27883963E-01 0.43213088E+03</pdfrwt>
<pdfrwt beam="2">  1       21 0.39626837E-01 0.43213088E+03</pdfrwt>
<totfact> 0.70146970E+04</totfact>
</mgrwt>
</event>
<event>
 8    1  0.9123825E-006  0.2875518E+03  0.7546771E-02  0.1091634E+00
         21   -1    0    0  504  503  0.00000000000E+00  0.00000000000E+00  0.11596237887E+03  0.11596237887E+03  0.00000000000E+00 0.  1.
         21   -1    0    0  503  504 -0.00000000000E+00 -0.00000000000E+00 -0.17826043897E+03  0.17826043897E+03  0.00000000000E+00 0.  1.
         25    2    1    2    0    0 -0.39662162324E+02 -0.58516202736E+02 -0.38332484004E+02  0.14863266135E+03  0.12500022235E+03 0.  0.
         25    2    1    2    0    0  0.39662162324E+02  0.58516202736E+02 -0.23965576095E+02  0.14559015648E+03  0.12499964690E+03 0.  0.
          5    1    3    3  501    0 -0.78633739864E+02 -0.13704310807E+02 -0.39207894179E+02  0.89052917671E+02  0.47000000000E+01 0.  1.
         -5    1    3    3    0  501  0.38971577540E+02 -0.44811891929E+02  0.87541017432E+00  0.59579743682E+02  0.47000000000E+01 0.  1.
          5    1    4    4  502    0  0.75385698612E+02  0.93373106309E+00 -0.94100594807E+01  0.76121709310E+02  0.47000000000E+01 0.  1.
         -5    1    4    4    0  502 -0.35723536287E+02  0.57582471673E+02 -0.14555516615E+02  0.69468447174E+02  0.47000000000E+01 0.  1.
<mgrwt>
<rscale>  0 0.28755177E+03</rscale>
<asrwt>0</asrwt>
<pdfrwt beam="1">  1       21 0.17840366E-01 0.28755177E+03</pdfrwt>
<pdfrwt beam="2">  1       21 0.27424683E-01 0.28755177E+03</pdfrwt>
<totfact> 0.35456181E+05</totfact>
</mgrwt>
</event>
<event>
 8    1  0.9123825E-006  0.3794556E+03  0.7546771E-02  0.1051135E+00
         21   -1    0    0  504  503  0.00000000000E+00  0.00000000000E+00  0.27758205199E+03  0.27758205199E+03  0.00000000000E+00 0. -1.
         21   -1    0    0  503  504 -0.00000000000E+00 -0.00000000000E+00 -0.12967929817E+03  0.12967929817E+03  0.00000000000E+00 0. -1.
         25    2    1    2    0    0  0.40608399884E+02 -0.43066654895E+02  0.21334856412E+03  0.25425498772E+03  0.12499684022E+03 0.  0.
         25    2    1    2    0    0 -0.40608399884E+02  0.43066654895E+02 -0.65445810304E+02  0.15300636244E+03  0.12499605576E+03 0.  0.
          5    1    3    3  501    0 -0.13735690834E+02  0.34338643767E+02  0.29832461271E+02  0.47748061782E+02  0.47000000000E+01 0.  1.
         -5    1    3    3    0  501  0.54344090717E+02 -0.77405298662E+02  0.18351610285E+03  0.20650692594E+03  0.47000000000E+01 0.  1.
          5    1    4    4  502    0 -0.83460095684E+02  0.24682284356E+02 -0.60023211178E+02  0.10582853402E+03  0.47000000000E+01 0. -1.
         -5    1    4    4    0  502  0.42851695800E+02  0.18384370539E+02 -0.54225991259E+01  0.47177828419E+02  0.47000000000E+01 0. -1.
<mgrwt>
<rscale>  0 0.37945564E+03</rscale>
<asrwt>0</asrwt>
<pdfrwt beam="1">  1       21 0.42704931E-01 0.37945564E+03</pdfrwt>
<pdfrwt beam="2">  1       21 0.19950661E-01 0.37945564E+03</pdfrwt>
<totfact> 0.11600106E+05</totfact>
</mgrwt>
</event>
<event>
 8    1  0.9123825E-006  0.2986828E+03  0.7546771E-02  0.1085901E+00
         21   -1    0    0  504  503  0.00000000000E+00  0.00000000000E+00  0.60436568786E+02  0.60436568786E+02  0.00000000000E+00 0.  1.
         21   -1    0    0  503  504 -0.00000000000E+00 -0.00000000000E+00 -0.36902905725E+03  0.36902905725E+03  0.00000000000E+00 0.  1.
         25    2    1    2    0    0 -0.12780639795E+02 -0.56789038946E+02 -0.71825353954E+02  0.15547391352E+03  0.12499966646E+03 0.  0.
         25    2    1    2    0    0  0.12780639795E+02  0.56789038946E+02 -0.23676713451E+03  0.27399171252E+03  0.12499777137E+03 0.  0.
          5    1    3    3  501    0 -0.45162328705E+01  0.19463330418E+01 -0.92299586772E+02  0.92549923230E+02  0.47000000000E+01 0.  1.
         -5    1    3    3    0  501 -0.82644069250E+01 -0.58735371988E+02  0.20474232818E+02  0.62923990289E+02  0.47000000000E+01 0.  1.
          5    1    4    4  502    0  0.49284708372E+01  0.92451358965E+02 -0.12048844070E+03  0.15202334670E+03  0.47000000000E+01 0. -1.
         -5    1    4    4    0  502  0.78521689582E+01 -0.35662320018E+02 -0.11627869381E+03  0.12196836582E+03  0.47000000000E+01 0. -1.
<mgrwt>
<rscale>  0 0.29868277E+03</rscale>
<asrwt>0</asrwt>
<pdfrwt beam="1">  1       21 0.92979334E-02 0.29868277E+03</pdfrwt>
<pdfrwt beam="2">  1       21 0.56773703E-01 0.29868277E+03</pdfrwt>
<totfact> 0.26195715E+05</totfact>
</mgrwt>
</event>
<event>
 8    1  0.9123825E-006  0.3664737E+03  0.7546771E-02  0.1056050E+00
         21   -1    0    0  504  503  0.00000000000E+00  0.00000000000E+00  0.22724229575E+02  0.22724229575E+02  0.00000000000E+00 0. -1.
         21   -1    0    0  503  504 -0.00000000000E+00 -0.00000000000E+00 -0.14775309124E+04  0.14775309124E+04  0.00000000000E+00 0. -1.
         25    2    1    2    0    0 -0.18070531435E+02  0.11604147248E+03 -0.99143058597E+03  0.10061561569E+04  0.12499375079E+03 0.  0.
         25    2    1    2    0    0  0.18070531435E+02 -0.11604147248E+03 -0.46337609688E+03  0.49409898515E+03  0.12499693005E+03 0.  0.
          5    1    3    3  501    0  0.30178675074E+02  0.60907233265E+02 -0.19919094410E+03  0.21052212640E+03  0.47000000000E+01 0. -1.
         -5    1    3    3    0  501 -0.48249206509E+02  0.55134239210E+02 -0.79223964187E+03  0.79563403045E+03  0.47000000000E+01 0. -1.
          5    1    4    4  502    0  0.11438070448E+02  0.18647463628E+02 -0.16650156728E+03  0.16799827160E+03  0.47000000000E+01 0. -1.
         -5    1    4    4    0  502  0.66324609871E+01 -0.13468893610E+03 -0.29687452960E+03  0.32610071354E+03  0.47000000000E+01 0. -1.
<mgrwt>
<rscale>  0 0.36647375E+03</rscale>
<asrwt>0</asrwt>
<pdfrwt beam="1">  1       21 0.34960343E-02 0.36647375E+03</pdfrwt>
<pdfrwt beam="2">  1       21 0.22731251E+00 0.36647375E+03</pdfrwt>
<totfact> 0.40578466E+04</totfact>
</mgrwt>
</event>
<event>
 8    1  0.9123825E-006  0.2891375E+03  0.7546771E-02  0.1090800E+00
         21   -1    0    0  504  503  0.00000000000E+00  0.00000000000E+00  0.28252413790E+02  0.28252413790E+02  0.00000000000E+00 0.  1.
         21   -1    0    0  503  504 -0.00000000000E+00 -0.00000000000E+00 -0.73976424695E+03  0.73976424695E+03  0.00000000000E+00 0.  1.
         25    2    1    2    0    0  0.28384585862E+02 -0.53890908573E+02 -0.46083461451E+03  0.48135453674E+03  0.12499493336E+03 0.  0.
         25    2    1    2    0    0 -0.28384585862E+02  0.53890908573E+02 -0.25067721865E+03  0.28666212400E+03  0.12500476249E+03 0.  0.
          5    1    3    3  501    0 -0.42623229823E+02 -0.22223110793E+02 -0.87150784754E+02  0.99639127139E+02  0.47000000000E+01 0. -1.
         -5    1    3    3    0  501  0.71007815685E+02 -0.31667797781E+02 -0.37368382976E+03  0.38171540960E+03  0.47000000000E+01 0. -1.
          5    1    4    4  502    0  0.95514056105E+01 -0.36020475726E+02 -0.10259132330E+03  0.10925096630E+03  0.47000000000E+01 0.  1.
         -5    1    4    4    0  502 -0.37935991472E+02  0.89911384299E+02 -0.14808589535E+03  0.17741115770E+03  0.47000000000E+01 0.  1.
<mgrwt>
<rscale>  0 0.28913751E+03</rscale>
<asrwt>0</asrwt>
<pdfrwt beam="1">  1       21 0.43465253E-02 0.28913751E+03</pdfrwt>
<pdfrwt beam="2">  1       21 0.11380988E+00 0.28913751E+03</pdfrwt>
<totfact> 0.19875255E+05</totfact>
</mgrwt>
</event>
<event>
 8    1  0.9123825E-006  0.3050731E+03  0.7546771E-02  0.1082732E+00
         21   -1    0    0  504  503  0.00000000000E+00  0.00000000000E+00  0.12973471723E+03  0.12973471723E+03  0.00000000000E+00 0. -1.
         21   -1    0    0  503  504 -0.00000000000E+00 -0.00000000000E+00 -0.17934601370E+03  0.17934601370E+03  0.00000000000E+00 0. -1.
         25    2    1    2    0    0 -0.43380811691E+02  0.77196016191E+01  0.51690693992E+02  0.14226345577E+03  0.12500190370E+03 0.  0.
         25    2    1    2    0    0  0.43380811691E+02 -0.77196016191E+01 -0.10130199046E+03  0.16681727516E+03  0.12499769177E+03 0.  0.
          5    1    3    3  501    0 -0.60071846845E+02 -0.35310915241E+02 -0.37893205792E+01  0.69942379635E+02  0.47000000000E+01 0. -1.
         -5    1    3    3    0  501  0.16691035155E+02  0.43030516860E+02  0.55480014571E+02  0.72321076130E+02  0.47000000000E+01 0. -1.
          5    1    4    4  502    0  0.85783452851E+02 -0.44368123892E+01 -0.85263854108E+02  0.12112184322E+03  0.47000000000E+01 0. -1.
         -5    1    4    4    0  502 -0.42402641160E+02 -0.32827892299E+01 -0.16038136357E+02  0.45695431941E+02  0.47000000000E+01 0. -1.
<mgrwt>
<rscale>  0 0.30507313E+03</rscale>
<asrwt>0</asrwt>
<pdfrwt beam="1">  1       21 0.19959187E-01 0.30507313E+03</pdfrwt>
<pdfrwt beam="2">  1       21 0.27591694E-01 0.30507313E+03</pdfrwt>
<totfact> 0.28292133E+05</totfact>
</mgrwt>
</event>
<event>
 8    1  0.9123825E-006  0.2849961E+03  0.7546771E-02  0.1092991E+00
         21   -1    0    0  504  503  0.00000000000E+00  0.00000000000E+00  0.21923279852E+03  0.21923279852E+03  0.00000000000E+00 0. -1.
         21   -1    0    0  503  504 -0.00000000000E+00 -0.00000000000E+00 -0.92621578804E+02  0.92621578804E+02  0.00000000000E+00 0. -1.
         25    2    1    2    0    0  0.61278308317E+02  0.10123868959E+02  0.94649212600E+02  0.16864599704E+03  0.12500190031E+03 0.  0.
         25    2    1    2    0    0 -0.61278308317E+02 -0.10123868959E+02  0.31962007115E+02  0.14320838028E+03  0.12501818464E+03 0.  0.
          5    1    3    3  501    0  0.88854892749E+02  0.40342402990E+02  0.58650925001E+02  0.11395052632E+03  0.47000000000E+01 0. -1.
         -5    1    3    3    0  501 -0.27576584432E+02 -0.30218534030E+02  0.35998287599E+02  0.54695470726E+02  0.47000000000E+01 0. -1.
          5    1    4    4  502    0 -0.20482429026E+02  0.56150062870E+02  0.24916272459E+02  0.64925111416E+02  0.47000000000E+01 0.  1.
         -5    1    4    4    0  502 -0.40795879291E+02 -0.66273931829E+02  0.70457346553E+01  0.78283268865E+02  0.47000000000E+01 0.  1.
<mgrwt>
<rscale>  0 0.28499606E+03</rscale>
<asrwt>0</asrwt>
<pdfrwt beam="1">  1       21 0.33728123E-01 0.28499606E+03</pdfrwt>
<pdfrwt beam="2">  1       21 0.14249474E-01 0.28499606E+03</pdfrwt>
<totfact> 0.35734921E+05</totfact>
</mgrwt>
</event>
<event>
 8    1  0.9123825E-006  0.3118333E+03  0.7546771E-02  0.1079470E+00
         21   -1    0    0  504  503  0.00000000000E+00  0.00000000000E+00  0.97006860119E+02  0.97006860119E+02  0.00000000000E+00 0.  1.
         21   -1    0    0  503  504 -0.00000000000E+00 -0.00000000000E+00 -0.25060077936E+03  0.25060077936E+03  0.00000000000E+00 0.  1.
         25    2    1    2    0    0  0.24494245807E+01 -0.30309231060E+00 -0.18064019664E+03  0.21968623077E+03  0.12500027120E+03 0.  0.
         25    2    1    2    0    0 -0.24494245807E+01  0.30309231060E+00  0.27046277398E+02  0.12792140872E+03  0.12500517646E+03 0.  0.
          5    1    3    3  501    0 -0.44956710573E+02 -0.30419745207E+02 -0.13992374534E+03  0.15015728831E+03  0.47000000000E+01 0.  1.
         -5    1    3    3    0  501  0.47406135154E+02  0.30116652896E+02 -0.40716451303E+02  0.69528942453E+02  0.47000000000E+01 0.  1.
          5    1    4    4  502    0 -0.14171337579E+02 -0.30727016349E+01 -0.48713142831E+02  0.51042419502E+02  0.47000000000E+01 0.  1.
         -5    1    4    4    0  502  0.11721912999E+02  0.33757939455E+01  0.75759420229E+02  0.76878989214E+02  0.47000000000E+01 0.  1.
<mgrwt>
<rscale>  0 0.31183326E+03</rscale>
<asrwt>0</asrwt>
<pdfrwt beam="1">  1       21 0.14924132E-01 0.31183326E+03</pdfrwt>
<pdfrwt beam="2">  1       21 0.38553966E-01 0.31183326E+03</pdfrwt>
<totfact> 0.24948090E+05</totfact>
</mgrwt>
</event>
<event>
 8    1  0.9123825E-006  0.2750215E+03  0.7546771E-02  0.1098440E+00
         21   -1    0    0  504  503  0.00000000000E+00  0.00000000000E+00  0.28948228591E+03  0.28948228591E+03  0.00000000000E+00 0.  1.
         21   -1    0    0  503  504 -0.00000000000E+00 -0.00000000000E+00 -0.65320769183E+02  0.65320769183E+02  0.00000000000E+00 0.  1.
         25    2    1    2    0    0 -0.30432589991E+02 -0.47667188013E+02  0.12408123970E+03  0.18498200782E+03  0.12499554322E+03 0.  0.
         25    2    1    2    0    0  0.30432589991E+02  0.47667188013E+02  0.10008027702E+03  0.16982104726E+03  0.12499929159E+03 0.  0.
          5    1    3    3  501    0 -0.48672161112E+01  0.20039285391E+02  0.10883611147E+03  0.11087223238E+03  0.47000000000E+01 0. -1.
         -5    1    3    3    0  501 -0.25565373879E+02 -0.67706473404E+02  0.15245128231E+02  0.74109775449E+02  0.47000000000E+01 0. -1.
          5    1    4    4  502    0  0.50022432805E+02 -0.26583977124E+02  0.61530274144E+02  0.83767632530E+02  0.47000000000E+01 0. -1.
         -5    1    4    4    0  502 -0.19589842814E+02  0.74251165137E+02  0.38550002877E+02  0.86053414735E+02  0.47000000000E+01 0. -1.
<mgrwt>
<rscale>  0 0.27502149E+03</rscale>
<asrwt>0</asrwt>
<pdfrwt beam="1">  1       21 0.44535736E-01 0.27502149E+03</pdfrwt>
<pdfrwt beam="2">  1       21 0.10049349E-01 0.27502149E+03</pdfrwt>
<totfact> 0.38240442E+05</totfact>
</mgrwt>
</event>
<event>
 8    1  0.9123825E-006  0.2799252E+03  0.7546771E-02  0.1095730E+00
         21   -1    0    0  504  503  0.00000000000E+00  0.00000000000E+00  0.60045632019E+03  0.60045632019E+03  0.00000000000E+00 0.  1.
         21   -1    0    0  503  504 -0.00000000000E+00 -0.00000000000E+00 -0.32624414758E+02  0.32624414758E+02  0.00000000000E+00 0.  1.
         25    2    1    2    0    0 -0.36875053810E+02  0.50937342001E+02  0.29110436736E+03  0.32298970978E+03  0.12500487001E+03 0.  0.
         25    2    1    2    0    0  0.36875053810E+02 -0.50937342001E+02  0.27672753807E+03  0.31009102516E+03  0.12499572455E+03 0.  0.
          5    1    3    3  501    0 -0.67319586830E+02  0.48078609379E+02  0.27674355355E+03  0.28888157415E+03  0.47000000000E+01 0. -1.
         -5    1    3    3    0  501  0.30444533020E+02  0.28587326224E+01  0.14360813804E+02  0.34108135630E+02  0.47000000000E+01 0. -1.
          5    1    4    4  502    0  0.44023108626E+02 -0.64311160097E+02  0.28258207686E+03  0.29317005230E+03  0.47000000000E+01 0.  1.
         -5    1    4    4    0  502 -0.71480548153E+01  0.13373818096E+02 -0.58545387873E+01  0.16920972860E+02  0.47000000000E+01 0.  1.
<mgrwt>
<rscale>  0 0.27992525E+03</rscale>
<asrwt>0</asrwt>
<pdfrwt beam="1">  1       21 0.92377887E-01 0.27992525E+03</pdfrwt>
<pdfrwt beam="2">  1       21 0.50191412E-02 0.27992525E+03</pdfrwt>
<totfact> 0.25788489E+05</totfact>
</mgrwt>
</event>
<event>
 8    1  0.9123825E-006  0.2877359E+03  0.7546771E-02  0.1091537E+00
         21   -1    0    0  504  503  0.00000000000E+00  0.00000000000E+00  0.18317679049E+02  0.18317679049E+02  0.00000000000E+00 0.  1.
         21   -1    0    0  503  504 -0.00000000000E+00 -0.00000000000E+00 -0.11299458623E+04  0.11299458623E+04  0.00000000000E+00 0.  1.
         25    2    1    2    0    0 -0.43978511459E+02  0.48470424095E+02 -0.66754348135E+03  0.68229372196E+03  0.12500772794E+03 0.  0.
         25    2    1    2    0    0  0.43978511459E+02 -0.48470424095E+02 -0.44408470190E+03  0.46596981939E+03  0.12503263030E+03 0.  0.
          5    1    3    3  501    0 -0.42854537287E+02  0.88558913915E+02 -0.52412390234E+03  0.53329836640E+03  0.47000000000E+01 0. -1.
         -5    1    3    3    0  501 -0.11239741717E+01 -0.40088489821E+02 -0.14341957901E+03  0.14899535555E+03  0.47000000000E+01 0. -1.
          5    1    4    4  502    0  0.32079164215E+02 -0.83982909513E+02 -0.38840509379E+03  0.39870140300E+03  0.47000000000E+01 0.  1.
         -5    1    4    4    0  502  0.11899347244E+02  0.35512485418E+02 -0.55679608103E+02  0.67268416392E+02  0.47000000000E+01 0.  1.
<mgrwt>
<rscale>  0 0.28773589E+03</rscale>
<asrwt>0</asrwt>
<pdfrwt beam="1">  1       21 0.28181033E-02 0.28773589E+03</pdfrwt>
<pdfrwt beam="2">  1       21 0.17383790E+00 0.28773589E+03</pdfrwt>
<totfact> 0.13520123E+05</totfact>
</mgrwt>
</event>
<event>
 8    1  0.9123825E-006  0.2891917E+03  0.7546771E-02  0.1090772E+00
         21   -1    0    0  504  503  0.00000000000E+00  0.00000000000E+00  0.52165096913E+03  0.52165096913E+03  0.00000000000E+00 0. -1.
         21   -1    0    0  503  504 -0.00000000000E+00 -0.00000000000E+00 -0.40080351681E+02  0.40080351681E+02  0.00000000000E+00 0. -1.
         25    2    1    2    0    0 -0.72597017787E+02 -0.35555592502E+01  0.23531032471E+03  0.27615950019E+03  0.12494059243E+03 0.  0.
         25    2    1    2    0    0  0.72597017787E+02  0.35555592502E+01  0.24626029274E+03  0.28557182062E+03  0.12499665580E+03 0.  0.
          5    1    3    3  501    0 -0.58766432886E+02 -0.29125238134E+02  0.36553729374E+02  0.75233225783E+02  0.47000000000E+01 0. -1.
         -5    1    3    3    0  501 -0.13830584902E+02  0.25569678884E+02  0.19875659533E+03  0.20092627440E+03  0.47000000000E+01 0. -1.
          5    1    4    4  502    0  0.15242667218E+02  0.61116427083E+02  0.10444674478E+03  0.12206051392E+03  0.47000000000E+01 0. -1.
         -5    1    4    4    0  502  0.57354350570E+02 -0.57560867833E+02  0.14181354796E+03  0.16351130670E+03  0.47000000000E+01 0. -1.
<mgrwt>
<rscale>  0 0.28919166E+03</rscale>
<asrwt>0</asrwt>
<pdfrwt beam="1">  1       21 0.80253990E-01 0.28919166E+03</pdfrwt>
<pdfrwt beam="2">  1       21 0.61662083E-02 0.28919166E+03</pdfrwt>
<totfact> 0.25031215E+05</totfact>
</mgrwt>
</event>
<event>
 8    1  0.9123825E-006  0.5280796E+03  0.7546771E-02  0.1006699E+00
         21   -1    0    0  504  503  0.00000000000E+00  0.00000000000E+00  0.12354968880E+04  0.12354968880E+04  0.00000000000E+00 0. -1.
         21   -1    0    0  503  504 -0.00000000000E+00 -0.00000000000E+00 -0.56428316234E+02  0.56428316234E+02  0.00000000000E+00 0. -1.
         25    2    1    2    0    0  0.18269828723E+02 -0.68981348420E+02  0.11310803935E+04  0.11402017366E+04  0.12499972169E+03 0.  0.
         25    2    1    2    0    0 -0.18269828723E+02  0.68981348420E+02  0.47988178249E+02  0.15172346766E+03  0.12499972926E+03 0.  0.
          5    1    3    3  501    0  0.68508285561E+02 -0.15688687524E+02  0.53210649235E+03  0.53674847863E+03  0.47000000000E+01 0.  1.
         -5    1    3    3    0  501 -0.50238456839E+02 -0.53292660896E+02  0.59897390120E+03  0.60345325798E+03  0.47000000000E+01 0.  1.
          5    1    4    4  502    0 -0.16720435887E+01  0.27716404182E+02 -0.42385398217E+02  0.50888179104E+02  0.47000000000E+01 0.  1.
         -5    1    4    4    0  502 -0.16597785134E+02  0.41264944239E+02  0.90373576466E+02  0.10083528855E+03  0.47000000000E+01 0.  1.
<mgrwt>
<rscale>  0 0.52807957E+03</rscale>
<asrwt>0</asrwt>
<pdfrwt beam="1">  1       21 0.19007642E+00 0.52807957E+03</pdfrwt>
<pdfrwt beam="2">  1       21 0.86812804E-02 0.52807957E+03</pdfrwt>
<totfact> 0.13915579E+04</totfact>
</mgrwt>
</event>
<event>
 8    1  0.9123825E-006  0.2812730E+03  0.7546771E-02  0.1094996E+00
         21   -1    0    0  504  503  0.00000000000E+00  0.00000000000E+00  0.60708471819E+03  0.60708471819E+03  0.00000000000E+00 0. -1.
         21   -1    0    0  503  504 -0.00000000000E+00 -0.00000000000E+00 -0.32579689754E+02  0.32579689754E+02  0.00000000000E+00 0. -1.
         25    2    1    2    0    0  0.30686181168E+02 -0.56377500845E+02  0.27383247757E+03  0.30777901886E+03  0.12499453734E+03 0.  0.
         25    2    1    2    0    0 -0.30686181168E+02  0.56377500845E+02  0.30067255087E+03  0.33188538909E+03  0.12499545722E+03 0.  0.
          5    1    3    3  501    0  0.20455566144E+02  0.32015641005E+02  0.31476316783E+02  0.49560871395E+02  0.47000000000E+01 0. -1.
         -5    1    3    3    0  501  0.10230615023E+02 -0.88393141851E+02  0.24235616079E+03  0.25821814747E+03  0.47000000000E+01 0. -1.
          5    1    4    4  502    0  0.22677004702E+02 -0.29703789699E+02  0.61606513522E+02  0.72208130935E+02  0.47000000000E+01 0. -1.
         -5    1    4    4    0  502 -0.53363185870E+02  0.86081290544E+02  0.23906603735E+03  0.25967725815E+03  0.47000000000E+01 0. -1.
<mgrwt>
<rscale>  0 0.28127305E+03</rscale>
<asrwt>0</asrwt>
<pdfrwt beam="1">  1       21 0.93397641E-01 0.28127305E+03</pdfrwt>
<pdfrwt beam="2">  1       21 0.50122604E-02 0.28127305E+03</pdfrwt>
<totfact> 0.25181062E+05</totfact>
</mgrwt>
</event>
<event>
 8    1  0.9123825E-006  0.4264421E+03  0.7546771E-02  0.1034990E+00
         21   -1    0    0  504  503  0.00000000000E+00  0.00000000000E+00  0.23601022243E+03  0.23601022243E+03  0.00000000000E+00 0.  1.
         21   -1    0    0  503  504 -0.00000000000E+00 -0.00000000000E+00 -0.19263237039E+03  0.19263237039E+03  0.00000000000E+00 0.  1.
         25    2    1    2    0    0 -0.30563017854E+02  0.12251821206E+03 -0.96793184763E+02  0.20233132050E+03  0.12499692912E+03 0.  0.
         25    2    1    2    0    0  0.30563017854E+02 -0.12251821206E+03  0.14017103680E+03  0.22631127233E+03  0.12499624825E+03 0.  0.
          5    1    3    3  501    0 -0.35262617208E+02 -0.13993583088E+02 -0.71727105014E+01  0.38894862334E+02  0.47000000000E+01 0. -1.
         -5    1    3    3    0  501  0.46995993541E+01  0.13651179515E+03 -0.89620474262E+02  0.16343645816E+03  0.47000000000E+01 0. -1.
          5    1    4    4  502    0  0.34959891624E+02 -0.32753178507E+02 -0.11919067163E+02  0.49589503796E+02  0.47000000000E+01 0. -1.
         -5    1    4    4    0  502 -0.43968737697E+01 -0.89765033556E+02  0.15209010397E+03  0.17672176853E+03  0.47000000000E+01 0. -1.
<mgrwt>
<rscale>  0 0.42644206E+03</rscale>
<asrwt>0</asrwt>
<pdfrwt beam="1">  1       21 0.36309265E-01 0.42644206E+03</pdfrwt>
<pdfrwt beam="2">  1       21 0.29635749E-01 0.42644206E+03</pdfrwt>
<totfact> 0.74440758E+04</totfact>
</mgrwt>
</event>
<event>
 8    1  0.9123825E-006  0.3530598E+03  0.7546771E-02  0.1061366E+00
         21   -1    0    0  504  503  0.00000000000E+00  0.00000000000E+00  0.32677820602E+02  0.32677820602E+02  0.00000000000E+00 0.  1.
         21   -1    0    0  503  504 -0.00000000000E+00 -0.00000000000E+00 -0.95363799049E+03  0.95363799049E+03  0.00000000000E+00 0.  1.
         25    2    1    2    0    0  0.65563967882E+02 -0.78528052677E+02 -0.65971639520E+03  0.67920247140E+03  0.12499994449E+03 0.  0.
         25    2    1    2    0    0 -0.65563967882E+02  0.78528052677E+02 -0.26124377469E+03  0.30711333969E+03  0.12491999304E+03 0.  0.
          5    1    3    3  501    0  0.25286016117E+02 -0.21661835448E+02 -0.28342900474E+02  0.43977582168E+02  0.47000000000E+01 0.  1.
         -5    1    3    3    0  501  0.40277951764E+02 -0.56866217229E+02 -0.63137349472E+03  0.63522488923E+03  0.47000000000E+01 0.  1.
          5    1    4    4  502    0  0.14945451671E+02  0.20735249115E+02 -0.17109848875E+03  0.17306097173E+03  0.47000000000E+01 0. -1.
         -5    1    4    4    0  502 -0.80509419553E+02  0.57792803562E+02 -0.90145285934E+02  0.13405236796E+03  0.47000000000E+01 0. -1.
<mgrwt>
<rscale>  0 0.35305983E+03</rscale>
<asrwt>0</asrwt>
<pdfrwt beam="1">  1       21 0.50273573E-02 0.35305983E+03</pdfrwt>
<pdfrwt beam="2">  1       21 0.14671353E+00 0.35305983E+03</pdfrwt>
<totfact> 0.79324094E+04</totfact>
</mgrwt>
</event>
<event>
 8    1  0.9123825E-006  0.3422829E+03  0.7546771E-02  0.1065828E+00
         21   -1    0    0  504  503  0.00000000000E+00  0.00000000000E+00  0.10938029333E+03  0.10938029333E+03  0.00000000000E+00 0.  1.
         21   -1    0    0  503  504 -0.00000000000E+00 -0.00000000000E+00 -0.26777573410E+03  0.26777573410E+03  0.00000000000E+00 0.  1.
         25    2    1    2    0    0 -0.84815814366E+02 -0.71429113645E+02 -0.11992749092E+03  0.20567939641E+03  0.12500228152E+03 0.  0.
         25    2    1    2    0    0  0.84815814366E+02  0.71429113645E+02 -0.38467949848E+02  0.17147663102E+03  0.12501444388E+03 0.  0.
          5    1    3    3  501    0 -0.89622107921E+02 -0.27211863440E+02 -0.12954972616E+03  0.15993070152E+03  0.47000000000E+01 0.  1.
         -5    1    3    3    0  501  0.48062935548E+01 -0.44217250206E+02  0.96222352357E+01  0.45748694893E+02  0.47000000000E+01 0.  1.
          5    1    4    4  502    0 -0.29814525126E+02  0.33595223445E+02 -0.19501018900E+02  0.49192730001E+02  0.47000000000E+01 0.  1.
         -5    1    4    4    0  502  0.11463033949E+03  0.37833890200E+02 -0.18966930949E+02  0.12228390102E+03  0.47000000000E+01 0.  1.
<mgrwt>
<rscale>  0 0.34228286E+03</rscale>
<asrwt>0</asrwt>
<pdfrwt beam="1">  1       21 0.16827738E-01 0.34228286E+03</pdfrwt>
<pdfrwt beam="2">  1       21 0.41196267E-01 0.34228286E+03</pdfrwt>
<totfact> 0.17337020E+05</totfact>
</mgrwt>
</event>
<event>
 8    1  0.9123825E-006  0.3192941E+03  0.7546771E-02  0.1075975E+00
         21   -1    0    0  504  503  0.00000000000E+00  0.00000000000E+00  0.69166514093E+03  0.69166514093E+03  0.00000000000E+00 0. -1.
         21   -1    0    0  503  504 -0.00000000000E+00 -0.00000000000E+00 -0.36849026909E+02  0.36849026909E+02  0.00000000000E+00 0. -1.
         25    2    1    2    0    0  0.23319128724E+02  0.33453884785E+02  0.53398733544E+03  0.54993256140E+03  0.12498161266E+03 0.  0.
         25    2    1    2    0    0 -0.23319128724E+02 -0.33453884785E+02  0.12082877858E+03  0.17858160644E+03  0.12501540807E+03 0.  0.
          5    1    3    3  501    0 -0.18042727572E+02  0.66518593954E+02  0.39748383638E+03  0.40344237946E+03  0.47000000000E+01 0.  1.
         -5    1    3    3    0  501  0.41361856297E+02 -0.33064709169E+02  0.13650349906E+03  0.14649018193E+03  0.47000000000E+01 0.  1.
          5    1    4    4  502    0 -0.16522526221E+02 -0.68464517219E+02  0.22826322121E+02  0.74185679025E+02  0.47000000000E+01 0. -1.
         -5    1    4    4    0  502 -0.67966025031E+01  0.35010632434E+02  0.98002456462E+02  0.10439592742E+03  0.47000000000E+01 0. -1.
<mgrwt>
<rscale>  0 0.31929414E+03</rscale>
<asrwt>0</asrwt>
<pdfrwt beam="1">  1       21 0.10641001E+00 0.31929414E+03</pdfrwt>
<pdfrwt beam="2">  1       21 0.56690816E-02 0.31929414E+03</pdfrwt>
<totfact> 0.14760186E+05</totfact>
</mgrwt>
</event>
<event>
 8    1  0.9123825E-006  0.3173812E+03  0.7546771E-02  0.1076861E+00
         21   -1    0    0  504  503  0.00000000000E+00  0.00000000000E+00  0.13667546267E+04  0.13667546267E+04  0.00000000000E+00 0.  1.
         21   -1    0    0  503  504 -0.00000000000E+00 -0.00000000000E+00 -0.18425179541E+02  0.18425179541E+02  0.00000000000E+00 0.  1.
         25    2    1    2    0    0  0.20969621749E+02 -0.90698573421E+02  0.80463952225E+03  0.81959447697E+03  0.12499755859E+03 0.  0.
         25    2    1    2    0    0 -0.20969621749E+02  0.90698573421E+02  0.54368992492E+03  0.56558532928E+03  0.12498829539E+03 0.  0.
          5    1    3    3  501    0 -0.21321142215E+02  0.49283317427E+01  0.43074850290E+03  0.43132962142E+03  0.47000000000E+01 0.  1.
         -5    1    3    3    0  501  0.42290763964E+02 -0.95626905164E+02  0.37389101935E+03  0.38826485555E+03  0.47000000000E+01 0.  1.
          5    1    4    4  502    0 -0.68468510905E+02  0.24997802633E+02  0.21741676102E+03  0.22935772299E+03  0.47000000000E+01 0.  1.
         -5    1    4    4    0  502  0.47498889155E+02  0.65700770788E+02  0.32627316390E+03  0.33622760629E+03  0.47000000000E+01 0.  1.
<mgrwt>
<rscale>  0 0.31738115E+03</rscale>
<asrwt>0</asrwt>
<pdfrwt beam="1">  1       21 0.21026986E+00 0.31738115E+03</pdfrwt>
<pdfrwt beam="2">  1       21 0.28346441E-02 0.31738115E+03</pdfrwt>
<totfact> 0.75425218E+04</totfact>
</mgrwt>
</event>
<event>
 8    1  0.9123825E-006  0.3131541E+03  0.7546771E-02  0.1078844E+00
         21   -1    0    0  504  503  0.00000000000E+00  0.00000000000E+00  0.29545819237E+02  0.29545819237E+02  0.00000000000E+00 0. -1.
         21   -1    0    0  503  504 -0.00000000000E+00 -0.00000000000E+00 -0.82977487229E+03  0.82977487229E+03  0.00000000000E+00 0. -1.
         25    2    1    2    0    0  0.23518554383E+02  0.60906115394E+02 -0.21336867736E+03  0.25575759504E+03  0.12499231038E+03 0.  0.
         25    2    1    2    0    0 -0.23518554383E+02 -0.60906115394E+02 -0.58686037570E+03  0.60356309649E+03  0.12498253310E+03 0.  0.
          5    1    3    3  501    0 -0.17107434723E+02  0.38493292710E+02 -0.20378646507E+03  0.20814757085E+03  0.47000000000E+01 0. -1.
         -5    1    3    3    0  501  0.40625989106E+02  0.22412822685E+02 -0.95822122906E+01  0.47610024195E+02  0.47000000000E+01 0. -1.
          5    1    4    4  502    0  0.41296007056E+02 -0.59322735299E+02 -0.24111196509E+03  0.25175705915E+03  0.47000000000E+01 0. -1.
         -5    1    4    4    0  502 -0.64814561439E+02 -0.15833800955E+01 -0.34574841061E+03  0.35180603734E+03  0.47000000000E+01 0. -1.
<mgrwt>
<rscale>  0 0.31315414E+03</rscale>
<asrwt>0</asrwt>
<pdfrwt beam="1">  1       21 0.45455110E-02 0.31315414E+03</pdfrwt>
<pdfrwt beam="2">  1       21 0.12765766E+00 0.31315414E+03</pdfrwt>
<totfact> 0.13712796E+05</totfact>
</mgrwt>
</event>
<event>
 8    1  0.9123825E-006  0.3754931E+03  0.7546771E-02  0.1052612E+00
         21   -1    0    0  504  503  0.00000000000E+00  0.00000000000E+00  0.98529688501E+01  0.98529688501E+01  0.00000000000E+00 0. -1.
         21   -1    0    0  503  504 -0.00000000000E+00 -0.00000000000E+00 -0.35774772062E+04  0.35774772062E+04  0.00000000000E+00 0. -1.
         25    2    1    2    0    0  0.93108429053E+02 -0.10441871598E+03 -0.17155534108E+04  0.17257812339E+04  0.12499965638E+03 0.  0.
         25    2    1    2    0    0 -0.93108429053E+02  0.10441871598E+03 -0.18520708265E+04  0.18615489412E+04  0.12500266400E+03 0.  0.
          5    1    3    3  501    0  0.59754498888E+02 -0.35495240880E+02 -0.29324226505E+03  0.30140276753E+03  0.47000000000E+01 0.  1.
         -5    1    3    3    0  501  0.33353930165E+02 -0.68923475101E+02 -0.14223111457E+04  0.14243784663E+04  0.47000000000E+01 0.  1.
          5    1    4    4  502    0  0.11039759518E+02  0.44825646185E+02 -0.99789863739E+03  0.99897697439E+03  0.47000000000E+01 0. -1.
         -5    1    4    4    0  502 -0.10414818857E+03  0.59593069797E+02 -0.85417218914E+03  0.86257196677E+03  0.47000000000E+01 0. -1.
<mgrwt>
<rscale>  0 0.37549312E+03</rscale>
<asrwt>0</asrwt>
<pdfrwt beam="1">  1       21 0.15158395E-02 0.37549312E+03</pdfrwt>
<pdfrwt beam="2">  1       21 0.55038178E+00 0.37549312E+03</pdfrwt>
<totfact> 0.13029727E+03</totfact>
</mgrwt>
</event>
<event>
 8    1  0.9123825E-006  0.2977495E+03  0.7546771E-02  0.1086371E+00
         21   -1    0    0  504  503  0.00000000000E+00  0.00000000000E+00  0.11478124663E+04  0.11478124663E+04  0.00000000000E+00 0. -1.
         21   -1    0    0  503  504 -0.00000000000E+00 -0.00000000000E+00 -0.19309501705E+02  0.19309501705E+02  0.00000000000E+00 0. -1.
         25    2    1    2    0    0  0.30941058270E+02  0.62716605502E+02  0.40516225622E+03  0.42973565935E+03  0.12500224544E+03 0.  0.
         25    2    1    2    0    0 -0.30941058270E+02 -0.62716605502E+02  0.72334070837E+03  0.73738630865E+03  0.12500426431E+03 0.  0.
          5    1    3    3  501    0 -0.26889909119E+02  0.78016567214E+02  0.21548264019E+03  0.23079105311E+03  0.47000000000E+01 0. -1.
         -5    1    3    3    0  501  0.57830967390E+02 -0.15299961712E+02  0.18967961603E+03  0.19894460625E+03  0.47000000000E+01 0. -1.
          5    1    4    4  502    0 -0.58786494370E+02 -0.36897613205E+02  0.18434489475E+03  0.19703404782E+03  0.47000000000E+01 0. -1.
         -5    1    4    4    0  502  0.27845436100E+02 -0.25818992297E+02  0.53899581362E+03  0.54035226082E+03  0.47000000000E+01 0. -1.
<mgrwt>
<rscale>  0 0.29774947E+03</rscale>
<asrwt>0</asrwt>
<pdfrwt beam="1">  1       21 0.17658648E+00 0.29774947E+03</pdfrwt>
<pdfrwt beam="2">  1       21 0.29706935E-02 0.29774947E+03</pdfrwt>
<totfact> 0.11801388E+05</totfact>
</mgrwt>
</event>
<event>
 8    1  0.9123825E-006  0.6945109E+03  0.7546771E-02  0.9726666E-01
         21   -1    0    0  504  503  0.00000000000E+00  0.00000000000E+00  0.78037631269E+02  0.78037631269E+02  0.00000000000E+00 0. -1.
         21   -1    0    0  503  504 -0.00000000000E+00 -0.00000000000E+00 -0.15452335190E+04  0.15452335190E+04  0.00000000000E+00 0. -1.
         25    2    1    2    0    0  0.25230253181E+02 -0.32297582308E+03 -0.72575700053E+03  0.80454902238E+03  0.12500383046E+03 0.  0.
         25    2    1    2    0    0 -0.25230253181E+02  0.32297582308E+03 -0.74143888716E+03  0.81872212784E+03  0.12499740501E+03 0.  0.
          5    1    3    3  501    0  0.25647096398E+02 -0.59793173566E+01 -0.93622798633E+02  0.97369626750E+02  0.47000000000E+01 0. -1.
         -5    1    3    3    0  501 -0.41684321720E+00 -0.31699650572E+03 -0.63213420190E+03  0.70717939563E+03  0.47000000000E+01 0. -1.
          5    1    4    4  502    0  0.28591270981E+02  0.26030553059E+03 -0.51790162211E+03  0.58036248175E+03  0.47000000000E+01 0. -1.
         -5    1    4    4    0  502 -0.53821524161E+02  0.62670292495E+02 -0.22353726504E+03  0.23835964610E+03  0.47000000000E+01 0. -1.
<mgrwt>
<rscale>  0 0.69451095E+03</rscale>
<asrwt>0</asrwt>
<pdfrwt beam="1">  1       21 0.12005789E-01 0.69451095E+03</pdfrwt>
<pdfrwt beam="2">  1       21 0.23772824E+00 0.69451095E+03</pdfrwt>
<totfact> 0.35906634E+03</totfact>
</mgrwt>
</event>
<event>
 8    1  0.9123825E-006  0.2749419E+03  0.7546771E-02  0.1098484E+00
         21   -1    0    0  504  503  0.00000000000E+00  0.00000000000E+00  0.68859305481E+02  0.68859305481E+02  0.00000000000E+00 0. -1.
         21   -1    0    0  503  504 -0.00000000000E+00 -0.00000000000E+00 -0.27444741348E+03  0.27444741348E+03  0.00000000000E+00 0. -1.
         25    2    1    2    0    0  0.50343520880E+02 -0.66650059470E+01 -0.69886585060E+02  0.15194644475E+03  0.12499877960E+03 0.  0.
         25    2    1    2    0    0 -0.50343520880E+02  0.66650059470E+01 -0.13570152294E+03  0.19136027421E+03  0.12499983527E+03 0.  0.
          5    1    3    3  501    0 -0.27759346596E+02 -0.38875884993E+02 -0.39082849708E+02  0.61898908704E+02  0.47000000000E+01 0.  1.
         -5    1    3    3    0  501  0.78102867475E+02  0.32210879046E+02 -0.30803735352E+02  0.90047536049E+02  0.47000000000E+01 0.  1.
          5    1    4    4  502    0 -0.80657228369E+02 -0.26232689212E+01 -0.39521907282E+02  0.89980782300E+02  0.47000000000E+01 0.  1.
         -5    1    4    4    0  502  0.30313707490E+02  0.92882748682E+01 -0.96179615657E+02  0.10137949191E+03  0.47000000000E+01 0.  1.
<mgrwt>
<rscale>  0 0.27494187E+03</rscale>
<asrwt>0</asrwt>
<pdfrwt beam="1">  1       21 0.10593739E-01 0.27494187E+03</pdfrwt>
<pdfrwt beam="2">  1       21 0.42222680E-01 0.27494187E+03</pdfrwt>
<totfact> 0.38848766E+05</totfact>
</mgrwt>
</event>
<event>
 8    1  0.9123825E-006  0.2755191E+03  0.7546771E-02  0.1098162E+00
         21   -1    0    0  504  503  0.00000000000E+00  0.00000000000E+00  0.81268655738E+02  0.81268655738E+02  0.00000000000E+00 0.  1.
         21   -1    0    0  503  504 -0.00000000000E+00 -0.00000000000E+00 -0.23351798019E+03  0.23351798019E+03  0.00000000000E+00 0.  1.
         25    2    1    2    0    0 -0.25518771899E+02 -0.21159420908E+02 -0.13037192522E+03  0.18363108362E+03  0.12499842868E+03 0.  0.
         25    2    1    2    0    0  0.25518771899E+02  0.21159420908E+02 -0.21877399232E+02  0.13115555231E+03  0.12499691793E+03 0.  0.
          5    1    3    3  501    0  0.88286335940E+01 -0.69037292487E+02 -0.78164033587E+02  0.10476544598E+03  0.47000000000E+01 0. -1.
         -5    1    3    3    0  501 -0.34347405493E+02  0.47877871579E+02 -0.52207891636E+02  0.78865637638E+02  0.47000000000E+01 0. -1.
          5    1    4    4  502    0 -0.29858371261E+02 -0.19652032552E+02  0.28337892716E+02  0.45856852066E+02  0.47000000000E+01 0.  1.
         -5    1    4    4    0  502  0.55377143160E+02  0.40811453460E+02 -0.50215291948E+02  0.85298700245E+02  0.47000000000E+01 0.  1.
<mgrwt>
<rscale>  0 0.27551909E+03</rscale>
<asrwt>0</asrwt>
<pdfrwt beam="1">  1       21 0.12502870E-01 0.27551909E+03</pdfrwt>
<pdfrwt beam="2">  1       21 0.35925842E-01 0.27551909E+03</pdfrwt>
<totfact> 0.40024427E+05</totfact>
</mgrwt>
</event>
<event>
 8    1  0.9123825E-006  0.3039510E+03  0.7546771E-02  0.1083282E+00
         21   -1    0    0  504  503  0.00000000000E+00  0.00000000000E+00  0.14990827716E+03  0.14990827716E+03  0.00000000000E+00 0. -1.
         21   -1    0    0  503  504 -0.00000000000E+00 -0.00000000000E+00 -0.15407127894E+03  0.15407127894E+03  0.00000000000E+00 0. -1.
         25    2    1    2    0    0 -0.41949046443E+02 -0.62090963958E+02 -0.45306034561E+02  0.15261521431E+03  0.12499502617E+03 0.  0.
         25    2    1    2    0    0  0.41949046443E+02  0.62090963958E+02  0.41143032779E+02  0.15136434179E+03  0.12491358820E+03 0.  0.
          5    1    3    3  501    0 -0.42621990904E+02 -0.93498827846E+02 -0.58368738763E+02  0.11826945752E+03  0.47000000000E+01 0.  1.
         -5    1    3    3    0  501  0.67294446098E+00  0.31407863888E+02  0.13062704201E+02  0.34345756788E+02  0.47000000000E+01 0.  1.
          5    1    4    4  502    0  0.47867614860E+01  0.87986688985E+02 -0.25167891381E+01  0.88277940345E+02  0.47000000000E+01 0.  1.
         -5    1    4    4    0  502  0.37162284957E+02 -0.25895725027E+02  0.43659821917E+02  0.63086401449E+02  0.47000000000E+01 0.  1.
<mgrwt>
<rscale>  0 0.30395105E+03</rscale>
<asrwt>0</asrwt>
<pdfrwt beam="1">  1       21 0.23062812E-01 0.30395105E+03</pdfrwt>
<pdfrwt beam="2">  1       21 0.23703274E-01 0.30395105E+03</pdfrwt>
<totfact> 0.28845770E+05</totfact>
</mgrwt>
</event>
<event>
 8    1  0.9123825E-006  0.3923482E+03  0.7546771E-02  0.1046462E+00
         21   -1    0    0  504  503  0.00000000000E+00  0.00000000000E+00  0.39462736652E+03  0.39462736652E+03  0.00000000000E+00 0.  1.
         21   -1    0    0  503  504 -0.00000000000E+00 -0.00000000000E+00 -0.97520565832E+02  0.97520565832E+02  0.00000000000E+00 0.  1.
         25    2    1    2    0    0 -0.87226978500E+02 -0.12209940494E+03  0.17168577059E+03  0.26004884529E+03  0.12503034692E+03 0.  0.
         25    2    1    2    0    0  0.87226978500E+02  0.12209940494E+03  0.12542103010E+03  0.23209908706E+03  0.12499096350E+03 0.  0.
          5    1    3    3  501    0 -0.99470161426E+02 -0.69647415045E+02  0.16594037466E+03  0.20567783881E+03  0.47000000000E+01 0. -1.
         -5    1    3    3    0  501  0.12243182926E+02 -0.52451989891E+02  0.57453959336E+01  0.54371006485E+02  0.47000000000E+01 0. -1.
          5    1    4    4  502    0  0.21333736664E+02  0.56428173404E+02  0.12508246417E+03  0.13894955889E+03  0.47000000000E+01 0.  1.
         -5    1    4    4    0  502  0.65893241836E+02  0.65671231532E+02  0.33856593051E+00  0.93149528166E+02  0.47000000000E+01 0.  1.
<mgrwt>
<rscale>  0 0.39234823E+03</rscale>
<asrwt>0</asrwt>
<pdfrwt beam="1">  1       21 0.60711901E-01 0.39234823E+03</pdfrwt>
<pdfrwt beam="2">  1       21 0.15003164E-01 0.39234823E+03</pdfrwt>
<totfact> 0.93309333E+04</totfact>
</mgrwt>
</event>
<event>
 8    1  0.9123825E-006  0.4195949E+03  0.7546771E-02  0.1037198E+00
         21   -1    0    0  504  503  0.00000000000E+00  0.00000000000E+00  0.48370841143E+02  0.48370841143E+02  0.00000000000E+00 0. -1.
         21   -1    0    0  503  504 -0.00000000000E+00 -0.00000000000E+00 -0.90994820406E+03  0.90994820406E+03  0.00000000000E+00 0. -1.
         25    2    1    2    0    0 -0.15393625950E+03  0.14979735478E+02 -0.58349553875E+03  0.61644920548E+03  0.12498725830E+03 0.  0.
         25    2    1    2    0    0  0.15393625950E+03 -0.14979735478E+02 -0.27808182417E+03  0.34186983972E+03  0.12499888765E+03 0.  0.
          5    1    3    3  501    0 -0.10070577444E+03  0.86592334577E+00 -0.53009115160E+03  0.53959347831E+03  0.47000000000E+01 0. -1.
         -5    1    3    3    0  501 -0.53230485063E+02  0.14113812132E+02 -0.53404387147E+02  0.76855727174E+02  0.47000000000E+01 0. -1.
          5    1    4    4  502    0  0.21895788244E+02 -0.37414385917E+02 -0.15104187168E+03  0.15721004681E+03  0.47000000000E+01 0.  1.
         -5    1    4    4    0  502  0.13204047126E+03  0.22434650439E+02 -0.12703995249E+03  0.18465979291E+03  0.47000000000E+01 0.  1.
<mgrwt>
<rscale>  0 0.41959485E+03</rscale>
<asrwt>0</asrwt>
<pdfrwt beam="1">  1       21 0.74416683E-02 0.41959485E+03</pdfrwt>
<pdfrwt beam="2">  1       21 0.13999202E+00 0.41959485E+03</pdfrwt>
<totfact> 0.44595748E+04</totfact>
</mgrwt>
</event>
<event>
 8    1  0.9123825E-006  0.5542830E+03  0.7546771E-02  0.1000507E+00
         21   -1    0    0  504  503  0.00000000000E+00  0.00000000000E+00  0.59523247433E+02  0.59523247433E+02  0.00000000000E+00 0. -1.
         21   -1    0    0  503  504 -0.00000000000E+00 -0.00000000000E+00 -0.12903764949E+04  0.12903764949E+04  0.00000000000E+00 0. -1.
         25    2    1    2    0    0 -0.45219034887E+02  0.23567987984E+03 -0.76140788663E+03  0.80805731905E+03  0.12499957669E+03 0.  0.
         25    2    1    2    0    0  0.45219034887E+02 -0.23567987984E+03 -0.46944536081E+03  0.54184242325E+03  0.12499799189E+03 0.  0.
          5    1    3    3  501    0 -0.79972557831E+02  0.11758961557E+03 -0.48501646912E+03  0.50545622265E+03  0.47000000000E+01 0.  1.
         -5    1    3    3    0  501  0.34753522944E+02  0.11809026426E+03 -0.27639141751E+03  0.30260109640E+03  0.47000000000E+01 0.  1.
          5    1    4    4  502    0  0.83775058787E+02 -0.19010119889E+03 -0.39479439874E+03  0.44614059844E+03  0.47000000000E+01 0. -1.
         -5    1    4    4    0  502 -0.38556023900E+02 -0.45578680947E+02 -0.74650962064E+02  0.95701824815E+02  0.47000000000E+01 0. -1.
<mgrwt>
<rscale>  0 0.55428296E+03</rscale>
<asrwt>0</asrwt>
<pdfrwt beam="1">  1       21 0.91574233E-02 0.55428296E+03</pdfrwt>
<pdfrwt beam="2">  1       21 0.19851945E+00 0.55428296E+03</pdfrwt>
<totfact> 0.10994985E+04</totfact>
</mgrwt>
</event>
<event>
 8    1  0.9123825E-006  0.2613278E+03  0.7546771E-02  0.1106348E+00
         21   -1    0    0  504  503  0.00000000000E+00  0.00000000000E+00  0.12986773027E+02  0.12986773027E+02  0.00000000000E+00 0.  1.
         21   -1    0    0  503  504 -0.00000000000E+00 -0.00000000000E+00 -0.13146492811E+04  0.13146492811E+04  0.00000000000E+00 0.  1.
         25    2    1    2    0    0  0.35740268064E+02  0.12692511660E+02 -0.66660177149E+03  0.67927959143E+03  0.12499749984E+03 0.  0.
         25    2    1    2    0    0 -0.35740268064E+02 -0.12692511660E+02 -0.63506073662E+03  0.64835646273E+03  0.12500198782E+03 0.  0.
          5    1    3    3  501    0  0.37024869460E+02 -0.24684189353E+01 -0.49849266623E+02  0.62321532663E+02  0.47000000000E+01 0. -1.
         -5    1    3    3    0  501 -0.12846013960E+01  0.15160930595E+02 -0.61675250487E+03  0.61695805877E+03  0.47000000000E+01 0. -1.
          5    1    4    4  502    0  0.13282276984E+02  0.31633346584E+02 -0.45795665547E+03  0.45926405889E+03  0.47000000000E+01 0.  1.
         -5    1    4    4    0  502 -0.49022545048E+02 -0.44325858243E+02 -0.17710408115E+03  0.18909240385E+03  0.47000000000E+01 0.  1.
<mgrwt>
<rscale>  0 0.26132778E+03</rscale>
<asrwt>0</asrwt>
<pdfrwt beam="1">  1       21 0.19979650E-02 0.26132778E+03</pdfrwt>
<pdfrwt beam="2">  1       21 0.20225374E+00 0.26132778E+03</pdfrwt>
<totfact> 0.15494099E+05</totfact>
</mgrwt>
</event>
<event>
 8    1  0.9123825E-006  0.2894716E+03  0.7546771E-02  0.1090625E+00
         21   -1    0    0  504  503  0.00000000000E+00  0.00000000000E+00  0.14254115920E+03  0.14254115920E+03  0.00000000000E+00 0.  1.
         21   -1    0    0  503  504 -0.00000000000E+00 -0.00000000000E+00 -0.14696426285E+03  0.14696426285E+03  0.00000000000E+00 0.  1.
         25    2    1    2    0    0 -0.72057351342E+01  0.44700076962E+02 -0.59433888804E+02  0.14562652501E+03  0.12499871259E+03 0.  0.
         25    2    1    2    0    0  0.72057351342E+01 -0.44700076962E+02  0.55010785149E+02  0.14387889704E+03  0.12499972412E+03 0.  0.
          5    1    3    3  501    0 -0.29081767511E+02 -0.30179869350E+01  0.29786693361E+02  0.42002315985E+02  0.47000000000E+01 0. -1.
         -5    1    3    3    0  501  0.21876032377E+02  0.47718063897E+02 -0.89220582164E+02  0.10362420903E+03  0.47000000000E+01 0. -1.
          5    1    4    4  502    0 -0.13690876499E+01 -0.37245971740E+02  0.94938608346E+02  0.10210076477E+03  0.47000000000E+01 0. -1.
         -5    1    4    4    0  502  0.85748227841E+01 -0.74541052220E+01 -0.39927823198E+02  0.41778132267E+02  0.47000000000E+01 0. -1.
<mgrwt>
<rscale>  0 0.28947163E+03</rscale>
<asrwt>0</asrwt>
<pdfrwt beam="1">  1       21 0.21929409E-01 0.28947163E+03</pdfrwt>
<pdfrwt beam="2">  1       21 0.22609887E-01 0.28947163E+03</pdfrwt>
<totfact> 0.34856304E+05</totfact>
</mgrwt>
</event>
<event>
 8    1  0.9123825E-006  0.3086125E+03  0.7546771E-02  0.1081013E+00
         21   -1    0    0  504  503  0.00000000000E+00  0.00000000000E+00  0.25164770575E+03  0.25164770575E+03  0.00000000000E+00 0.  1.
         21   -1    0    0  503  504 -0.00000000000E+00 -0.00000000000E+00 -0.94618062273E+02  0.94618062273E+02  0.00000000000E+00 0.  1.
         25    2    1    2    0    0  0.12464656724E+02  0.57341849827E+02  0.11880017137E+01  0.13804711281E+03  0.12494854381E+03 0.  0.
         25    2    1    2    0    0 -0.12464656724E+02 -0.57341849827E+02  0.15584164177E+03  0.20821865521E+03  0.12499974264E+03 0.  0.
          5    1    3    3  501    0 -0.13838141026E+02  0.68349739085E+01  0.56357113185E+02  0.58621030543E+02  0.47000000000E+01 0. -1.
         -5    1    3    3    0  501  0.26302797750E+02  0.50506875918E+02 -0.55169111471E+02  0.79426082272E+02  0.47000000000E+01 0. -1.
          5    1    4    4  502    0  0.27089331922E+02  0.22820047025E+02  0.10009814293E+02  0.37106237109E+02  0.47000000000E+01 0. -1.
         -5    1    4    4    0  502 -0.39553988646E+02 -0.80161896851E+02  0.14583182747E+03  0.17111241810E+03  0.47000000000E+01 0. -1.
<mgrwt>
<rscale>  0 0.30861250E+03</rscale>
<asrwt>0</asrwt>
<pdfrwt beam="1">  1       21 0.38715031E-01 0.30861250E+03</pdfrwt>
<pdfrwt beam="2">  1       21 0.14556625E-01 0.30861250E+03</pdfrwt>
<totfact> 0.25914331E+05</totfact>
</mgrwt>
</event>
<event>
 8    1  0.9123825E-006  0.3727979E+03  0.7546771E-02  0.1053628E+00
         21   -1    0    0  504  503  0.00000000000E+00  0.00000000000E+00  0.90658669905E+02  0.90658669905E+02  0.00000000000E+00 0.  1.
         21   -1    0    0  503  504 -0.00000000000E+00 -0.00000000000E+00 -0.38324594985E+03  0.38324594985E+03  0.00000000000E+00 0.  1.
         25    2    1    2    0    0 -0.85617758687E+02 -0.84636497968E+02 -0.23274508128E+03  0.29032996202E+03  0.12500990599E+03 0.  0.
         25    2    1    2    0    0  0.85617758687E+02  0.84636497968E+02 -0.59842198663E+02  0.18357465773E+03  0.12499931532E+03 0.  0.
          5    1    3    3  501    0 -0.10826491058E+03 -0.90407482074E+02 -0.15788262155E+03  0.21176358485E+03  0.47000000000E+01 0.  1.
         -5    1    3    3    0  501  0.22647151893E+02  0.57709841052E+01 -0.74862459726E+02  0.78566377177E+02  0.47000000000E+01 0.  1.
          5    1    4    4  502    0  0.10048268105E+03  0.19542881315E+02 -0.55406734014E+02  0.11649330270E+03  0.47000000000E+01 0.  1.
         -5    1    4    4    0  502 -0.14864922361E+02  0.65093616653E+02 -0.44354646495E+01  0.67081355029E+02  0.47000000000E+01 0.  1.
<mgrwt>
<rscale>  0 0.37279790E+03</rscale>
<asrwt>0</asrwt>
<pdfrwt beam="1">  1       21 0.13947488E-01 0.37279790E+03</pdfrwt>
<pdfrwt beam="2">  1       21 0.58960916E-01 0.37279790E+03</pdfrwt>
<totfact> 0.11426986E+05</totfact>
</mgrwt>
</event>
<event>
 8    1  0.9123825E-006  0.3806137E+03  0.7546771E-02  0.1050707E+00
         21   -1    0    0  504  503  0.00000000000E+00  0.00000000000E+00  0.14704184910E+04  0.14704184910E+04  0.00000000000E+00 0.  1.
         21   -1    0    0  503  504 -0.00000000000E+00 -0.00000000000E+00 -0.24630199044E+02  0.24630199044E+02  0.00000000000E+00 0.  1.
         25    2    1    2    0    0 -0.34585373120E+02 -0.13926546340E+03  0.72364269916E+03  0.74824830263E+03  0.12500299598E+03 0.  0.
         25    2    1    2    0    0  0.34585373120E+02  0.13926546340E+03  0.72214559284E+03  0.74680038746E+03  0.12500217649E+03 0.  0.
          5    1    3    3  501    0  0.39143074933E+02 -0.34273478702E+02  0.33243550602E+03  0.33651494368E+03  0.47000000000E+01 0. -1.
         -5    1    3    3    0  501 -0.73728448053E+02 -0.10499198470E+03  0.39120719314E+03  0.41173335895E+03  0.47000000000E+01 0. -1.
          5    1    4    4  502    0  0.19204331525E+02  0.84307251440E+02  0.16161280928E+03  0.18335023621E+03  0.47000000000E+01 0. -1.
         -5    1    4    4    0  502  0.15381041596E+02  0.54958211962E+02  0.56053278356E+03  0.56345015125E+03  0.47000000000E+01 0. -1.
<mgrwt>
<rscale>  0 0.38061372E+03</rscale>
<asrwt>0</asrwt>
<pdfrwt beam="1">  1       21 0.22621816E+00 0.38061372E+03</pdfrwt>
<pdfrwt beam="2">  1       21 0.37892625E-02 0.38061372E+03</pdfrwt>
<totfact> 0.35774338E+04</totfact>
</mgrwt>
</event>
<event>
 8    1  0.9123825E-006  0.4556503E+03  0.7546771E-02  0.1026050E+00
         21   -1    0    0  504  503  0.00000000000E+00  0.00000000000E+00  0.36057604083E+03  0.36057604083E+03  0.00000000000E+00 0.  1.
         21   -1    0    0  503  504 -0.00000000000E+00 -0.00000000000E+00 -0.14394825391E+03  0.14394825391E+03  0.00000000000E+00 0.  1.
         25    2    1    2    0    0  0.13107497404E+03  0.11149017586E+03  0.17895887313E+02  0.21343966493E+03  0.12500207858E+03 0.  0.
         25    2    1    2    0    0 -0.13107497404E+03 -0.11149017586E+03  0.19873189961E+03  0.29108462982E+03  0.12500074266E+03 0.  0.
          5    1    3    3  501    0  0.10838584885E+03  0.17979642567E+02  0.35397840699E+02  0.11552426976E+03  0.47000000000E+01 0.  1.
         -5    1    3    3    0  501  0.22689125192E+02  0.93510533290E+02 -0.17501953386E+02  0.97915395166E+02  0.47000000000E+01 0.  1.
          5    1    4    4  502    0 -0.28557875773E+02 -0.43331887984E+02  0.14966414106E+03  0.15847602312E+03  0.47000000000E+01 0.  1.
         -5    1    4    4    0  502 -0.10251709827E+03 -0.68158287873E+02  0.49067758549E+02  0.13260860670E+03  0.47000000000E+01 0.  1.
<mgrwt>
<rscale>  0 0.45565027E+03</rscale>
<asrwt>0</asrwt>
<pdfrwt beam="1">  1       21 0.55473237E-01 0.45565027E+03</pdfrwt>
<pdfrwt beam="2">  1       21 0.22145885E-01 0.45565027E+03</pdfrwt>
<totfact> 0.53771438E+04</totfact>
</mgrwt>
</event>
<event>
 8    1  0.9123825E-006  0.2735845E+03  0.7546771E-02  0.1099245E+00
         21   -1    0    0  504  503  0.00000000000E+00  0.00000000000E+00  0.16062810660E+03  0.16062810660E+03  0.00000000000E+00 0.  1.
         21   -1    0    0  503  504 -0.00000000000E+00 -0.00000000000E+00 -0.11649344118E+03  0.11649344118E+03  0.00000000000E+00 0.  1.
         25    2    1    2    0    0  0.50580616711E+02  0.54354201361E+01  0.44700653010E+02  0.14216578895E+03  0.12500008235E+03 0.  0.
         25    2    1    2    0    0 -0.50580616711E+02 -0.54354201361E+01 -0.56598758411E+00  0.13495575884E+03  0.12499917568E+03 0.  0.
          5    1    3    3  501    0 -0.22844869336E+02 -0.21258285257E+02  0.54811419101E+02  0.63247011082E+02  0.47000000000E+01 0.  1.
         -5    1    3    3    0  501  0.73425486047E+02  0.26693705393E+02 -0.10110766091E+02  0.78918777865E+02  0.47000000000E+01 0.  1.
          5    1    4    4  502    0  0.29905042767E+02  0.65665131052E+01 -0.34763028961E+02  0.46561667279E+02  0.47000000000E+01 0.  1.
         -5    1    4    4    0  502 -0.80485659478E+02 -0.12001933241E+02  0.34197041377E+02  0.88394091556E+02  0.47000000000E+01 0.  1.
<mgrwt>
<rscale>  0 0.27358451E+03</rscale>
<asrwt>0</asrwt>
<pdfrwt beam="1">  1       21 0.24712016E-01 0.27358451E+03</pdfrwt>
<pdfrwt beam="2">  1       21 0.17922068E-01 0.27358451E+03</pdfrwt>
<totfact> 0.43112012E+05</totfact>
</mgrwt>
</event>
<event>
 8    1  0.9123825E-006  0.3177530E+03  0.7546771E-02  0.1076688E+00
         21   -1    0    0  504  503  0.00000000000E+00  0.00000000000E+00  0.35097264955E+03  0.35097264955E+03  0.00000000000E+00 0.  1.
         21   -1    0    0  503  504 -0.00000000000E+00 -0.00000000000E+00 -0.71919408147E+02  0.71919408147E+02  0.00000000000E+00 0.  1.
         25    2    1    2    0    0  0.70572989171E+02  0.41342186129E+02  0.21152030661E+03  0.25895348324E+03  0.12500537278E+03 0.  0.
         25    2    1    2    0    0 -0.70572989171E+02 -0.41342186129E+02  0.67532934800E+02  0.16393857446E+03  0.12500174302E+03 0.  0.
          5    1    3    3  501    0  0.64485042518E+02 -0.29520775665E+02  0.14487499315E+03  0.16137115772E+03  0.47000000000E+01 0. -1.
         -5    1    3    3    0  501  0.60879466527E+01  0.70862961794E+02  0.66645313458E+02  0.97582325523E+02  0.47000000000E+01 0. -1.
          5    1    4    4  502    0 -0.21797106407E+02  0.44830560811E+02  0.26510770777E+02  0.56655132137E+02  0.47000000000E+01 0.  1.
         -5    1    4    4    0  502 -0.48775882764E+02 -0.86172746940E+02  0.41022164023E+02  0.10728344232E+03  0.47000000000E+01 0.  1.
<mgrwt>
<rscale>  0 0.31775302E+03</rscale>
<asrwt>0</asrwt>
<pdfrwt beam="1">  1       21 0.53995791E-01 0.31775302E+03</pdfrwt>
<pdfrwt beam="2">  1       21 0.11064525E-01 0.31775302E+03</pdfrwt>
<totfact> 0.21289706E+05</totfact>
</mgrwt>
</event>
<event>
 8    1  0.9123825E-006  0.4076826E+03  0.7546771E-02  0.1041151E+00
         21   -1    0    0  504  503  0.00000000000E+00  0.00000000000E+00  0.12112677464E+03  0.12112677464E+03  0.00000000000E+00 0. -1.
         21   -1    0    0  503  504 -0.00000000000E+00 -0.00000000000E+00 -0.34303959881E+03  0.34303959881E+03  0.00000000000E+00 0. -1.
         25    2    1    2    0    0  0.27200806797E+02 -0.15726714966E+03 -0.13528211739E+03  0.24370747828E+03  0.12497697160E+03 0.  0.
         25    2    1    2    0    0 -0.27200806797E+02  0.15726714966E+03 -0.86630706785E+02  0.22045889517E+03  0.12499761938E+03 0.  0.
          5    1    3    3  501    0  0.50424115000E+01  0.17734184979E+02  0.33291112674E+01  0.19315802143E+02  0.47000000000E+01 0. -1.
         -5    1    3    3    0  501  0.22158395297E+02 -0.17500133464E+03 -0.13861122866E+03  0.22439167613E+03  0.47000000000E+01 0. -1.
          5    1    4    4  502    0  0.36146743978E+02  0.10012931978E+03 -0.12397966033E+02  0.10727659271E+03  0.47000000000E+01 0.  1.
         -5    1    4    4    0  502 -0.63347550775E+02  0.57137829875E+02 -0.74232740751E+02  0.11318230247E+03  0.47000000000E+01 0.  1.
<mgrwt>
<rscale>  0 0.40768262E+03</rscale>
<asrwt>0</asrwt>
<pdfrwt beam="1">  1       21 0.18634888E-01 0.40768262E+03</pdfrwt>
<pdfrwt beam="2">  1       21 0.52775323E-01 0.40768262E+03</pdfrwt>
<totfact> 0.84012055E+04</totfact>
</mgrwt>
</event>
<event>
 8    1  0.9123825E-006  0.3177637E+03  0.7546771E-02  0.1076683E+00
         21   -1    0    0  504  503  0.00000000000E+00  0.00000000000E+00  0.40066973037E+02  0.40066973037E+02  0.00000000000E+00 0. -1.
         21   -1    0    0  503  504 -0.00000000000E+00 -0.00000000000E+00 -0.63003098840E+03  0.63003098840E+03  0.00000000000E+00 0. -1.
         25    2    1    2    0    0  0.34689576710E+02  0.73786760128E+02 -0.18007293930E+03  0.23387938824E+03  0.12500180829E+03 0.  0.
         25    2    1    2    0    0 -0.34689576710E+02 -0.73786760128E+02 -0.40989107606E+03  0.43621857319E+03  0.12501238603E+03 0.  0.
          5    1    3    3  501    0  0.50672628862E+02  0.72370664183E+02 -0.19328404302E+03  0.21257008170E+03  0.47000000000E+01 0.  1.
         -5    1    3    3    0  501 -0.15983052152E+02  0.14160959442E+01  0.13211103717E+02  0.21309306541E+02  0.47000000000E+01 0.  1.
          5    1    4    4  502    0 -0.67814135225E+02 -0.97212749459E+00 -0.21514232144E+03  0.22562803559E+03  0.47000000000E+01 0.  1.
         -5    1    4    4    0  502  0.33124558515E+02 -0.72814632633E+02 -0.19474875463E+03  0.21059053761E+03  0.47000000000E+01 0.  1.
<mgrwt>
<rscale>  0 0.31776365E+03</rscale>
<asrwt>0</asrwt>
<pdfrwt beam="1">  1       21 0.61641502E-02 0.31776365E+03</pdfrwt>
<pdfrwt beam="2">  1       21 0.96927837E-01 0.31776365E+03</pdfrwt>
<totfact> 0.16009603E+05</totfact>
</mgrwt>
</event>
<event>
 8    1  0.9123825E-006  0.2605353E+03  0.7546771E-02  0.1106822E+00
         21   -1    0    0  504  503  0.00000000000E+00  0.00000000000E+00  0.12726239962E+03  0.12726239962E+03  0.00000000000E+00 0. -1.
         21   -1    0    0  503  504 -0.00000000000E+00 -0.00000000000E+00 -0.13334383533E+03  0.13334383533E+03  0.00000000000E+00 0. -1.
         25    2    1    2    0    0  0.13412596570E+01  0.27669248842E+02 -0.27033931528E+02  0.13086748074E+03  0.12501231041E+03 0.  0.
         25    2    1    2    0    0 -0.13412596570E+01 -0.27669248842E+02  0.20952495825E+02  0.12973875421E+03  0.12500300378E+03 0.  0.
          5    1    3    3  501    0 -0.39818260212E+02  0.33512985052E+02 -0.58557386859E+02  0.78483575155E+02  0.47000000000E+01 0.  1.
         -5    1    3    3    0  501  0.41159519869E+02 -0.58437362101E+01  0.31523455331E+02  0.52383905589E+02  0.47000000000E+01 0.  1.
          5    1    4    4  502    0 -0.57931951124E+02 -0.22886062942E+02 -0.12435485935E+02  0.63691554766E+02  0.47000000000E+01 0.  1.
         -5    1    4    4    0  502  0.56590691467E+02 -0.47831858992E+01  0.33387981760E+02  0.66047199441E+02  0.47000000000E+01 0.  1.
<mgrwt>
<rscale>  0 0.26053527E+03</rscale>
<asrwt>0</asrwt>
<pdfrwt beam="1">  1       21 0.19578831E-01 0.26053527E+03</pdfrwt>
<pdfrwt beam="2">  1       21 0.20514436E-01 0.26053527E+03</pdfrwt>
<totfact> 0.52201325E+05</totfact>
</mgrwt>
</event>
<event>
 8    1  0.9123825E-006  0.2609194E+03  0.7546771E-02  0.1106592E+00
         21   -1    0    0  504  503  0.00000000000E+00  0.00000000000E+00  0.41369284268E+03  0.41369284268E+03  0.00000000000E+00 0. -1.
         21   -1    0    0  503  504 -0.00000000000E+00 -0.00000000000E+00 -0.41140990246E+02  0.41140990246E+02  0.00000000000E+00 0. -1.
         25    2    1    2    0    0  0.30851453635E+02 -0.18726561096E+02  0.20280692203E+03  0.24096308713E+03  0.12502026016E+03 0.  0.
         25    2    1    2    0    0 -0.30851453635E+02  0.18726561096E+02  0.16974493040E+03  0.21387074580E+03  0.12499943292E+03 0.  0.
          5    1    3    3  501    0 -0.98484038016E+01 -0.55114288784E+02  0.16522754758E+03  0.17451879086E+03  0.47000000000E+01 0. -1.
         -5    1    3    3    0  501  0.40699857437E+02  0.36387727688E+02  0.37579374457E+02  0.66444296266E+02  0.47000000000E+01 0. -1.
          5    1    4    4  502    0  0.30697684478E+01  0.59113912629E+02  0.34606021915E+02  0.68728050296E+02  0.47000000000E+01 0. -1.
         -5    1    4    4    0  502 -0.33921222083E+02 -0.40387351533E+02  0.13513890849E+03  0.14514269551E+03  0.47000000000E+01 0. -1.
<mgrwt>
<rscale>  0 0.26091940E+03</rscale>
<asrwt>0</asrwt>
<pdfrwt beam="1">  1       21 0.63645050E-01 0.26091940E+03</pdfrwt>
<pdfrwt beam="2">  1       21 0.63293834E-02 0.26091940E+03</pdfrwt>
<totfact> 0.40413713E+05</totfact>
</mgrwt>
</event>
<event>
 8    1  0.9123825E-006  0.2676629E+03  0.7546771E-02  0.1102625E+00
         21   -1    0    0  504  503  0.00000000000E+00  0.00000000000E+00  0.13008062391E+04  0.13008062391E+04  0.00000000000E+00 0. -1.
         21   -1    0    0  503  504 -0.00000000000E+00 -0.00000000000E+00 -0.13769042470E+02  0.13769042470E+02  0.00000000000E+00 0. -1.
         25    2    1    2    0    0 -0.41680051842E+02  0.23217748753E+02  0.66013269499E+03  0.67355631754E+03  0.12500658913E+03 0.  0.
         25    2    1    2    0    0  0.41680051842E+02 -0.23217748753E+02  0.62690450166E+03  0.64101896405E+03  0.12497906821E+03 0.  0.
          5    1    3    3  501    0  0.14504814174E+02  0.58153920191E+02  0.42559254663E+03  0.42981783794E+03  0.47000000000E+01 0. -1.
         -5    1    3    3    0  501 -0.56184866016E+02 -0.34936171438E+02  0.23454014836E+03  0.24373847960E+03  0.47000000000E+01 0. -1.
          5    1    4    4  502    0 -0.30784387378E+02 -0.50787313603E+01  0.41658244101E+03  0.41777564813E+03  0.47000000000E+01 0. -1.
         -5    1    4    4    0  502  0.72464439220E+02 -0.18139017393E+02  0.21032206066E+03  0.22324331592E+03  0.47000000000E+01 0. -1.
<mgrwt>
<rscale>  0 0.26766290E+03</rscale>
<asrwt>0</asrwt>
<pdfrwt beam="1">  1       21 0.20012394E+00 0.26766290E+03</pdfrwt>
<pdfrwt beam="2">  1       21 0.21183152E-02 0.26766290E+03</pdfrwt>
<totfact> 0.14493699E+05</totfact>
</mgrwt>
</event>
<event>
 8    1  0.9123825E-006  0.5350056E+03  0.7546771E-02  0.1005025E+00
         21   -1    0    0  504  503  0.00000000000E+00  0.00000000000E+00  0.71584318270E+03  0.71584318270E+03  0.00000000000E+00 0.  1.
         21   -1    0    0  503  504 -0.00000000000E+00 -0.00000000000E+00 -0.99962871959E+02  0.99962871959E+02  0.00000000000E+00 0.  1.
         25    2    1    2    0    0  0.20305545249E+01  0.92757417452E-01 -0.52670961460E+02  0.13566709575E+03  0.12500879542E+03 0.  0.
         25    2    1    2    0    0 -0.20305545249E+01 -0.92757417452E-01  0.66855127220E+03  0.68013895890E+03  0.12499627237E+03 0.  0.
          5    1    3    3  501    0 -0.53559886295E+02  0.27107639827E+02 -0.11628096815E+02  0.61325265531E+02  0.47000000000E+01 0.  1.
         -5    1    3    3    0  501  0.55590440820E+02 -0.27014882409E+02 -0.41042864646E+02  0.74341830220E+02  0.47000000000E+01 0.  1.
          5    1    4    4  502    0 -0.58739742491E+02 -0.10956596065E+02  0.45263188189E+03  0.45658308646E+03  0.47000000000E+01 0. -1.
         -5    1    4    4    0  502  0.56709187966E+02  0.10863838647E+02  0.21591939031E+03  0.22355587244E+03  0.47000000000E+01 0. -1.
<mgrwt>
<rscale>  0 0.53500557E+03</rscale>
<asrwt>0</asrwt>
<pdfrwt beam="1">  1       21 0.11012972E+00 0.53500557E+03</pdfrwt>
<pdfrwt beam="2">  1       21 0.15378904E-01 0.53500557E+03</pdfrwt>
<totfact> 0.21562697E+04</totfact>
</mgrwt>
</event>
<event>
 8    1  0.9123825E-006  0.3023799E+03  0.7546771E-02  0.1084057E+00
         21   -1    0    0  504  503  0.00000000000E+00  0.00000000000E+00  0.75223367829E+03  0.75223367829E+03  0.00000000000E+00 0.  1.
         21   -1    0    0  503  504 -0.00000000000E+00 -0.00000000000E+00 -0.30387368832E+02  0.30387368832E+02  0.00000000000E+00 0.  1.
         25    2    1    2    0    0  0.49430757658E+02  0.67560505347E+02  0.32211272824E+03  0.35551408011E+03  0.12500331906E+03 0.  0.
         25    2    1    2    0    0 -0.49430757658E+02 -0.67560505347E+02  0.39973358122E+03  0.42710696701E+03  0.12500241451E+03 0.  0.
          5    1    3    3  501    0  0.56569580709E+02  0.10103384682E+03  0.24645289565E+03  0.27233999970E+03  0.47000000000E+01 0. -1.
         -5    1    3    3    0  501 -0.71388230512E+01 -0.33473341470E+02  0.75659832589E+02  0.83174080404E+02  0.47000000000E+01 0. -1.
          5    1    4    4  502    0  0.37382294713E+02 -0.28929012567E+02  0.75465685239E+02  0.89171090465E+02  0.47000000000E+01 0.  1.
         -5    1    4    4    0  502 -0.86813052371E+02 -0.38631492779E+02  0.32426789598E+03  0.33793587655E+03  0.47000000000E+01 0.  1.
<mgrwt>
<rscale>  0 0.30237991E+03</rscale>
<asrwt>0</asrwt>
<pdfrwt beam="1">  1       21 0.11572824E+00 0.30237991E+03</pdfrwt>
<pdfrwt beam="2">  1       21 0.46749804E-02 0.30237991E+03</pdfrwt>
<totfact> 0.16788076E+05</totfact>
</mgrwt>
</event>
<event>
 8    1  0.9123825E-006  0.2995982E+03  0.7546771E-02  0.1085442E+00
         21   -1    0    0  504  503  0.00000000000E+00  0.00000000000E+00  0.35618287471E+03  0.35618287471E+03  0.00000000000E+00 0. -1.
         21   -1    0    0  503  504 -0.00000000000E+00 -0.00000000000E+00 -0.63000692255E+02  0.63000692255E+02  0.00000000000E+00 0. -1.
         25    2    1    2    0    0 -0.24685801501E+02  0.77732346833E+02  0.12874644442E+03  0.19711169733E+03  0.12500267091E+03 0.  0.
         25    2    1    2    0    0  0.24685801501E+02 -0.77732346833E+02  0.16443573803E+03  0.22207186963E+03  0.12500038720E+03 0.  0.
          5    1    3    3  501    0 -0.68994915056E+02  0.20965267736E+02  0.89276556463E+02  0.11485745204E+03  0.47000000000E+01 0.  1.
         -5    1    3    3    0  501  0.44309113555E+02  0.56767079097E+02  0.39469887959E+02  0.82254245293E+02  0.47000000000E+01 0.  1.
          5    1    4    4  502    0  0.10403722734E+02  0.30121234917E+02  0.73320378823E+02  0.80084294281E+02  0.47000000000E+01 0. -1.
         -5    1    4    4    0  502  0.14282078768E+02 -0.10785358175E+03  0.91115359207E+02  0.14198757535E+03  0.47000000000E+01 0. -1.
<mgrwt>
<rscale>  0 0.29959818E+03</rscale>
<asrwt>0</asrwt>
<pdfrwt beam="1">  1       21 0.54797364E-01 0.29959818E+03</pdfrwt>
<pdfrwt beam="2">  1       21 0.96924144E-02 0.29959818E+03</pdfrwt>
<totfact> 0.26244961E+05</totfact>
</mgrwt>
</event>
<event>
 8    1  0.9123825E-006  0.2783678E+03  0.7546771E-02  0.1096584E+00
         21   -1    0    0  504  503  0.00000000000E+00  0.00000000000E+00  0.96181043224E+02  0.96181043224E+02  0.00000000000E+00 0.  1.
         21   -1    0    0  503  504 -0.00000000000E+00 -0.00000000000E+00 -0.20141352683E+03  0.20141352683E+03  0.00000000000E+00 0.  1.
         25    2    1    2    0    0 -0.37758410463E+02  0.45526838414E+02 -0.35768465001E+02  0.14283000867E+03  0.12499055049E+03 0.  0.
         25    2    1    2    0    0  0.37758410463E+02 -0.45526838414E+02 -0.69464018600E+02  0.15476456137E+03  0.12501371525E+03 0.  0.
          5    1    3    3  501    0 -0.32528680503E+02  0.62998735789E+02 -0.72522769652E+02  0.10153126555E+03  0.47000000000E+01 0.  1.
         -5    1    3    3    0  501 -0.52297299593E+01 -0.17471897374E+02  0.36754304651E+02  0.41298743124E+02  0.47000000000E+01 0.  1.
          5    1    4    4  502    0  0.52078081580E+02 -0.20861195196E+02  0.20775466963E+02  0.60008550004E+02  0.47000000000E+01 0.  1.
         -5    1    4    4    0  502 -0.14319671117E+02 -0.24665643218E+02 -0.90239485563E+02  0.94756011371E+02  0.47000000000E+01 0.  1.
<mgrwt>
<rscale>  0 0.27836784E+03</rscale>
<asrwt>0</asrwt>
<pdfrwt beam="1">  1       21 0.14797084E-01 0.27836784E+03</pdfrwt>
<pdfrwt beam="2">  1       21 0.30986696E-01 0.27836784E+03</pdfrwt>
<totfact> 0.39506207E+05</totfact>
</mgrwt>
</event>
<event>
 8    1  0.9123825E-006  0.5795198E+03  0.7546771E-02  0.9948831E-01
         21   -1    0    0  504  503  0.00000000000E+00  0.00000000000E+00  0.36597347645E+03  0.36597347645E+03  0.00000000000E+00 0. -1.
         21   -1    0    0  503  504 -0.00000000000E+00 -0.00000000000E+00 -0.22941771815E+03  0.22941771815E+03  0.00000000000E+00 0. -1.
         25    2    1    2    0    0 -0.19453006919E+03  0.17449623349E+03  0.61373725165E+02  0.29611244696E+03  0.12499985512E+03 0.  0.
         25    2    1    2    0    0  0.19453006919E+03 -0.17449623349E+03  0.75182033138E+02  0.29927874764E+03  0.12499818944E+03 0.  0.
          5    1    3    3  501    0 -0.14349339020E+03  0.12773638235E+03 -0.15217232300E+02  0.19277082395E+03  0.47000000000E+01 0. -1.
         -5    1    3    3    0  501 -0.51036678993E+02  0.46759851141E+02  0.76590957465E+02  0.10334162301E+03  0.47000000000E+01 0. -1.
          5    1    4    4  502    0  0.13946588781E+03 -0.18527002256E+03  0.72093019647E+02  0.24288929290E+03  0.47000000000E+01 0. -1.
         -5    1    4    4    0  502  0.55064181382E+02  0.10773789071E+02  0.30890134913E+01  0.56389454746E+02  0.47000000000E+01 0. -1.
<mgrwt>
<rscale>  0 0.57951980E+03</rscale>
<asrwt>0</asrwt>
<pdfrwt beam="1">  1       21 0.56303612E-01 0.57951980E+03</pdfrwt>
<pdfrwt beam="2">  1       21 0.35295033E-01 0.57951980E+03</pdfrwt>
<totfact> 0.20196622E+04</totfact>
</mgrwt>
</event>
<event>
 8    1  0.9123825E-006  0.3195763E+03  0.7546771E-02  0.1075844E+00
         21   -1    0    0  504  503  0.00000000000E+00  0.00000000000E+00  0.55821670410E+02  0.55821670410E+02  0.00000000000E+00 0. -1.
         21   -1    0    0  503  504 -0.00000000000E+00 -0.00000000000E+00 -0.45738961906E+03  0.45738961906E+03  0.00000000000E+00 0. -1.
         25    2    1    2    0    0 -0.29643736664E+02  0.70797795940E+02 -0.99013470467E+02  0.17697636572E+03  0.12500355057E+03 0.  0.
         25    2    1    2    0    0  0.29643736664E+02 -0.70797795940E+02 -0.30255447818E+03  0.33623492375E+03  0.12499453047E+03 0.  0.
          5    1    3    3  501    0 -0.12828553891E+02  0.12806505996E+02 -0.11322958279E+03  0.11476762091E+03  0.47000000000E+01 0. -1.
         -5    1    3    3    0  501 -0.16815182773E+02  0.57991289944E+02  0.14216112324E+02  0.62208744809E+02  0.47000000000E+01 0. -1.
          5    1    4    4  502    0 -0.70865011983E+01  0.18332944358E+02 -0.17559400008E+03  0.17675309959E+03  0.47000000000E+01 0. -1.
         -5    1    4    4    0  502  0.36730237862E+02 -0.89130740298E+02 -0.12696047810E+03  0.15948182417E+03  0.47000000000E+01 0. -1.
<mgrwt>
<rscale>  0 0.31957630E+03</rscale>
<asrwt>0</asrwt>
<pdfrwt beam="1">  1       21 0.85879492E-02 0.31957630E+03</pdfrwt>
<pdfrwt beam="2">  1       21 0.70367635E-01 0.31957630E+03</pdfrwt>
<totfact> 0.18749623E+05</totfact>
</mgrwt>
</event>
<event>
 8    1  0.9123825E-006  0.2924020E+03  0.7546771E-02  0.1089102E+00
         21   -1    0    0  504  503  0.00000000000E+00  0.00000000000E+00  0.65185438736E+02  0.65185438736E+02  0.00000000000E+00 0. -1.
         21   -1    0    0  503  504 -0.00000000000E+00 -0.00000000000E+00 -0.32790664213E+03  0.32790664213E+03  0.00000000000E+00 0. -1.
         25    2    1    2    0    0  0.12646164289E+02 -0.64630574112E+02 -0.80843979070E+02  0.16278411876E+03  0.12500353510E+03 0.  0.
         25    2    1    2    0    0 -0.12646164289E+02  0.64630574112E+02 -0.18187722433E+03  0.23030796211E+03  0.12500158439E+03 0.  0.
          5    1    3    3  501    0 -0.47395484781E+02  0.47724215274E+01 -0.16600904488E+02  0.50663478115E+02  0.47000000000E+01 0. -1.
         -5    1    3    3    0  501  0.60041649069E+02 -0.69402995640E+02 -0.64243074582E+02  0.11212064064E+03  0.47000000000E+01 0. -1.
          5    1    4    4  502    0  0.10581458768E+02  0.93885199918E+02 -0.16234320204E+03  0.18789306342E+03  0.47000000000E+01 0.  1.
         -5    1    4    4    0  502 -0.23227623057E+02 -0.29254625806E+02 -0.19534022284E+02  0.42414898686E+02  0.47000000000E+01 0.  1.
<mgrwt>
<rscale>  0 0.29240204E+03</rscale>
<asrwt>0</asrwt>
<pdfrwt beam="1">  1       21 0.10028529E-01 0.29240204E+03</pdfrwt>
<pdfrwt beam="2">  1       21 0.50447175E-01 0.29240204E+03</pdfrwt>
<totfact> 0.29483571E+05</totfact>
</mgrwt>
</event>
<event>
 8    1  0.9123825E-006  0.2596685E+03  0.7546771E-02  0.1107343E+00
         21   -1    0    0  504  503  0.00000000000E+00  0.00000000000E+00  0.55928163874E+02  0.55928163874E+02  0.00000000000E+00 0.  1.
         21   -1    0    0  503  504 -0.00000000000E+00 -0.00000000000E+00 -0.30140321032E+03  0.30140321032E+03  0.00000000000E+00 0.  1.
         25    2    1    2    0    0  0.27907176606E+02 -0.18421685201E+02 -0.13697242724E+03  0.18842427051E+03  0.12499636356E+03 0.  0.
         25    2    1    2    0    0 -0.27907176606E+02  0.18421685201E+02 -0.10850261920E+03  0.16890710368E+03  0.12505447736E+03 0.  0.
          5    1    3    3  501    0  0.45921841235E+02  0.38912271205E+02 -0.34501027998E+02  0.69536977829E+02  0.47000000000E+01 0.  1.
         -5    1    3    3    0  501 -0.18014664628E+02 -0.57333956406E+02 -0.10247139924E+03  0.11888729268E+03  0.47000000000E+01 0.  1.
          5    1    4    4  502    0  0.48001058020E+01  0.13753890400E+02 -0.12889345538E+03  0.12979916547E+03  0.47000000000E+01 0.  1.
         -5    1    4    4    0  502 -0.32707282408E+02  0.46677948007E+01  0.20390836179E+02  0.39107938208E+02  0.47000000000E+01 0.  1.
<mgrwt>
<rscale>  0 0.25966847E+03</rscale>
<asrwt>0</asrwt>
<pdfrwt beam="1">  1       21 0.86043329E-02 0.25966847E+03</pdfrwt>
<pdfrwt beam="2">  1       21 0.46369724E-01 0.25966847E+03</pdfrwt>
<totfact> 0.46434995E+05</totfact>
</mgrwt>
</event>
<event>
 8    1  0.9123825E-006  0.3051326E+03  0.7546771E-02  0.1082703E+00
         21   -1    0    0  504  503  0.00000000000E+00  0.00000000000E+00  0.12894232980E+03  0.12894232980E+03  0.00000000000E+00 0.  1.
         21   -1    0    0  503  504 -0.00000000000E+00 -0.00000000000E+00 -0.18051855529E+03  0.18051855529E+03  0.00000000000E+00 0.  1.
         25    2    1    2    0    0  0.31775938025E+02 -0.65329688590E+02  0.23613621342E+02  0.14650016170E+03  0.12500806301E+03 0.  0.
         25    2    1    2    0    0 -0.31775938025E+02  0.65329688590E+02 -0.75189846829E+02  0.16296072339E+03  0.12500002341E+03 0.  0.
          5    1    3    3  501    0  0.36098587126E+02  0.10999941110E+02  0.52337903604E+02  0.64695075938E+02  0.47000000000E+01 0.  1.
         -5    1    3    3    0  501 -0.43226491013E+01 -0.76329629700E+02 -0.28724282263E+02  0.81805085764E+02  0.47000000000E+01 0.  1.
          5    1    4    4  502    0  0.44052719091E+02  0.49774663639E+02 -0.40744894997E+02  0.78105029723E+02  0.47000000000E+01 0. -1.
         -5    1    4    4    0  502 -0.75828657116E+02  0.15555024951E+02 -0.34444951832E+02  0.84855693668E+02  0.47000000000E+01 0. -1.
<mgrwt>
<rscale>  0 0.30513265E+03</rscale>
<asrwt>0</asrwt>
<pdfrwt beam="1">  1       21 0.19837282E-01 0.30513265E+03</pdfrwt>
<pdfrwt beam="2">  1       21 0.27772085E-01 0.30513265E+03</pdfrwt>
<totfact> 0.28258932E+05</totfact>
</mgrwt>
</event>
<event>
 8    1  0.9123825E-006  0.3524820E+03  0.7546771E-02  0.1061601E+00
         21   -1    0    0  504  503  0.00000000000E+00  0.00000000000E+00  0.52728146542E+03  0.52728146542E+03  0.00000000000E+00 0. -1.
         21   -1    0    0  503  504 -0.00000000000E+00 -0.00000000000E+00 -0.58907617228E+02  0.58907617228E+02  0.00000000000E+00 0. -1.
         25    2    1    2    0    0 -0.12967215012E+02  0.75811320449E+02  0.71929202814E+02  0.16344878007E+03  0.12500475398E+03 0.  0.
         25    2    1    2    0    0  0.12967215012E+02 -0.75811320449E+02  0.39644464538E+03  0.42274030258E+03  0.12500200638E+03 0.  0.
          5    1    3    3  501    0 -0.13212382236E+02  0.10292498022E+03  0.83814143040E+02  0.13347291549E+03  0.47000000000E+01 0.  1.
         -5    1    3    3    0  501  0.24516722433E+00 -0.27113659769E+02 -0.11884940226E+02  0.29975864579E+02  0.47000000000E+01 0.  1.
          5    1    4    4  502    0  0.46623653580E+02 -0.15133879741E+02  0.29897606350E+03  0.30300425069E+03  0.47000000000E+01 0.  1.
         -5    1    4    4    0  502 -0.33656438568E+02 -0.60677440708E+02  0.97468581878E+02  0.11973605189E+03  0.47000000000E+01 0.  1.
<mgrwt>
<rscale>  0 0.35248203E+03</rscale>
<asrwt>0</asrwt>
<pdfrwt beam="1">  1       21 0.81120222E-01 0.35248203E+03</pdfrwt>
<pdfrwt beam="2">  1       21 0.90627107E-02 0.35248203E+03</pdfrwt>
<totfact> 0.12251855E+05</totfact>
</mgrwt>
</event>
<event>
 8    1  0.9123825E-006  0.2790460E+03  0.7546771E-02  0.1096211E+00
         21   -1    0    0  504  503  0.00000000000E+00  0.00000000000E+00  0.41339927744E+02  0.41339927744E+02  0.00000000000E+00 0.  1.
         21   -1    0    0  503  504 -0.00000000000E+00 -0.00000000000E+00 -0.47089261910E+03  0.47089261910E+03  0.00000000000E+00 0.  1.
         25    2    1    2    0    0  0.86148229241E+01 -0.52202213474E+02 -0.27409441367E+03  0.30586207283E+03  0.12499829489E+03 0.  0.
         25    2    1    2    0    0 -0.86148229241E+01  0.52202213474E+02 -0.15545827769E+03  0.20637047402E+03  0.12498884021E+03 0.  0.
          5    1    3    3  501    0 -0.16770722623E+02  0.78597367870E+01 -0.22049944585E+03  0.22132584174E+03  0.47000000000E+01 0.  1.
         -5    1    3    3    0  501  0.25385545547E+02 -0.60061950261E+02 -0.53594967812E+02  0.84536231089E+02  0.47000000000E+01 0.  1.
          5    1    4    4  502    0  0.46970549470E+01 -0.30786813676E+02 -0.22718119046E+01  0.31577545042E+02  0.47000000000E+01 0. -1.
         -5    1    4    4    0  502 -0.13311877871E+02  0.82989027151E+02 -0.15318646579E+03  0.17479292898E+03  0.47000000000E+01 0. -1.
<mgrwt>
<rscale>  0 0.27904600E+03</rscale>
<asrwt>0</asrwt>
<pdfrwt beam="1">  1       21 0.63599890E-02 0.27904600E+03</pdfrwt>
<pdfrwt beam="2">  1       21 0.72445018E-01 0.27904600E+03</pdfrwt>
<totfact> 0.29978411E+05</totfact>
</mgrwt>
</event>
<event>
 8    1  0.9123825E-006  0.3770937E+03  0.7546771E-02  0.1052013E+00
         21   -1    0    0  504  503  0.00000000000E+00  0.00000000000E+00  0.14675266925E+03  0.14675266925E+03  0.00000000000E+00 0. -1.
         21   -1    0    0  503  504 -0.00000000000E+00 -0.00000000000E+00 -0.24224371628E+03  0.24224371628E+03  0.00000000000E+00 0. -1.
         25    2    1    2    0    0  0.72785010996E+02  0.10209191794E+02 -0.17206446118E+03  0.22501757847E+03  0.12499938559E+03 0.  0.
         25    2    1    2    0    0 -0.72785010996E+02 -0.10209191794E+02  0.76573414152E+02  0.16397880707E+03  0.12499470384E+03 0.  0.
          5    1    3    3  501    0 -0.26240778484E+02  0.21712936821E+00 -0.96083521171E+02  0.99713382458E+02  0.47000000000E+01 0. -1.
         -5    1    3    3    0  501  0.99025789480E+02  0.99920624256E+01 -0.75980940007E+02  0.12530419601E+03  0.47000000000E+01 0. -1.
          5    1    4    4  502    0 -0.58136647316E+02  0.50166461223E+02  0.64766756782E+02  0.10056523443E+03  0.47000000000E+01 0. -1.
         -5    1    4    4    0  502 -0.14648363681E+02 -0.60375653017E+02  0.11806657370E+02  0.63413572632E+02  0.47000000000E+01 0. -1.
<mgrwt>
<rscale>  0 0.37709369E+03</rscale>
<asrwt>0</asrwt>
<pdfrwt beam="1">  1       21 0.22577334E-01 0.37709369E+03</pdfrwt>
<pdfrwt beam="2">  1       21 0.37268263E-01 0.37709369E+03</pdfrwt>
<totfact> 0.12121357E+05</totfact>
</mgrwt>
</event>
<event>
 8    1  0.9123825E-006  0.2890424E+03  0.7546771E-02  0.1090850E+00
         21   -1    0    0  504  503  0.00000000000E+00  0.00000000000E+00  0.11834094241E+04  0.11834094241E+04  0.00000000000E+00 0.  1.
         21   -1    0    0  503  504 -0.00000000000E+00 -0.00000000000E+00 -0.17649330098E+02  0.17649330098E+02  0.00000000000E+00 0.  1.
         25    2    1    2    0    0 -0.16591456862E+02  0.40542101759E+02  0.34262044805E+03  0.36733037934E+03  0.12499559074E+03 0.  0.
         25    2    1    2    0    0  0.16591456862E+02 -0.40542101759E+02  0.82313964592E+03  0.83372837483E+03  0.12500075142E+03 0.  0.
          5    1    3    3  501    0 -0.23007607810E+01 -0.25199319885E+02  0.25725521434E+03  0.25853942548E+03  0.47000000000E+01 0.  1.
         -5    1    3    3    0  501 -0.14290696081E+02  0.65741421644E+02  0.85365233708E+02  0.10879095385E+03  0.47000000000E+01 0.  1.
          5    1    4    4  502    0 -0.15492384502E+02  0.16268806211E+02  0.61769418304E+03  0.61812044279E+03  0.47000000000E+01 0.  1.
         -5    1    4    4    0  502  0.32083841364E+02 -0.56810907970E+02  0.20544546288E+03  0.21560793204E+03  0.47000000000E+01 0.  1.
<mgrwt>
<rscale>  0 0.28904244E+03</rscale>
<asrwt>0</asrwt>
<pdfrwt beam="1">  1       21 0.18206293E+00 0.28904244E+03</pdfrwt>
<pdfrwt beam="2">  1       21 0.27152825E-02 0.28904244E+03</pdfrwt>
<totfact> 0.12596555E+05</totfact>
</mgrwt>
</event>
<event>
 8    1  0.9123825E-006  0.4892863E+03  0.7546771E-02  0.1016614E+00
         21   -1    0    0  504  503  0.00000000000E+00  0.00000000000E+00  0.16900253653E+03  0.16900253653E+03  0.00000000000E+00 0. -1.
         21   -1    0    0  503  504 -0.00000000000E+00 -0.00000000000E+00 -0.35413822805E+03  0.35413822805E+03  0.00000000000E+00 0. -1.
         25    2    1    2    0    0 -0.29322719582E+02 -0.17850047093E+03  0.22105510367E+02  0.22098528907E+03  0.12499441745E+03 0.  0.
         25    2    1    2    0    0  0.29322719582E+02  0.17850047093E+03 -0.20724120188E+03  0.30215547550E+03  0.12500710226E+03 0.  0.
          5    1    3    3  501    0  0.28537655006E+02  0.28135544943E+01  0.76954377073E+01  0.30060332727E+02  0.47000000000E+01 0.  1.
         -5    1    3    3    0  501 -0.57860374588E+02 -0.18131402542E+03  0.14410072659E+02  0.19092495635E+03  0.47000000000E+01 0.  1.
          5    1    4    4  502    0  0.19212544373E+02  0.74947528252E+02 -0.17773953257E+03  0.19390638280E+03  0.47000000000E+01 0. -1.
         -5    1    4    4    0  502  0.10110175208E+02  0.10355294267E+03 -0.29501669315E+02  0.10824909271E+03  0.47000000000E+01 0. -1.
<mgrwt>
<rscale>  0 0.48928625E+03</rscale>
<asrwt>0</asrwt>
<pdfrwt beam="1">  1       21 0.26000390E-01 0.48928625E+03</pdfrwt>
<pdfrwt beam="2">  1       21 0.54482804E-01 0.48928625E+03</pdfrwt>
<totfact> 0.40664292E+04</totfact>
</mgrwt>
</event>
<event>
 8    1  0.9123825E-006  0.3830610E+03  0.7546771E-02  0.1049808E+00
         21   -1    0    0  504  503  0.00000000000E+00  0.00000000000E+00  0.92505989622E+03  0.92505989622E+03  0.00000000000E+00 0. -1.
         21   -1    0    0  503  504 -0.00000000000E+00 -0.00000000000E+00 -0.39655736605E+02  0.39655736605E+02  0.00000000000E+00 0. -1.
         25    2    1    2    0    0  0.85637260935E+01  0.52505139120E+02  0.78273366095E+03  0.79443531903E+03  0.12500146035E+03 0.  0.
         25    2    1    2    0    0 -0.85637260935E+01 -0.52505139120E+02  0.10267049867E+03  0.17028031380E+03  0.12499610767E+03 0.  0.
          5    1    3    3  501    0  0.64821270995E+02  0.26774140329E+02  0.32485120215E+03  0.33236883924E+03  0.47000000000E+01 0. -1.
         -5    1    3    3    0  501 -0.56257544901E+02  0.25730998791E+02  0.45788245881E+03  0.46206647978E+03  0.47000000000E+01 0. -1.
          5    1    4    4  502    0 -0.21541913547E+02 -0.53010335893E+02  0.12863758955E+03  0.14086826895E+03  0.47000000000E+01 0. -1.
         -5    1    4    4    0  502  0.12978187453E+02  0.50519677245E+00 -0.25967090886E+02  0.29412044853E+02  0.47000000000E+01 0. -1.
<mgrwt>
<rscale>  0 0.38306100E+03</rscale>
<asrwt>0</asrwt>
<pdfrwt beam="1">  1       21 0.14231689E+00 0.38306100E+03</pdfrwt>
<pdfrwt beam="2">  1       21 0.61008832E-02 0.38306100E+03</pdfrwt>
<totfact> 0.61050937E+04</totfact>
</mgrwt>
</event>
<event>
 8    1  0.9123825E-006  0.2577896E+03  0.7546771E-02  0.1108479E+00
         21   -1    0    0  504  503  0.00000000000E+00  0.00000000000E+00  0.16189392861E+03  0.16189392861E+03  0.00000000000E+00 0.  1.
         21   -1    0    0  503  504 -0.00000000000E+00 -0.00000000000E+00 -0.10262194592E+03  0.10262194592E+03  0.00000000000E+00 0.  1.
         25    2    1    2    0    0 -0.19970382780E+02 -0.13198459725E+02  0.86383281149E+01  0.12753199866E+03  0.12496709344E+03 0.  0.
         25    2    1    2    0    0  0.19970382780E+02  0.13198459725E+02  0.50633654574E+02  0.13698387587E+03  0.12501119848E+03 0.  0.
          5    1    3    3  501    0 -0.22773608285E+02  0.42749111272E+02 -0.31932951757E+02  0.58205903110E+02  0.47000000000E+01 0.  1.
         -5    1    3    3    0  501  0.28032255050E+01 -0.55947570998E+02  0.40571279871E+02  0.69326095550E+02  0.47000000000E+01 0.  1.
          5    1    4    4  502    0  0.21822935322E+02  0.34406604320E+02  0.86090288355E+02  0.95360802618E+02  0.47000000000E+01 0.  1.
         -5    1    4    4    0  502 -0.18525525417E+01 -0.21208144595E+02 -0.35456633781E+02  0.41623073254E+02  0.47000000000E+01 0.  1.
<mgrwt>
<rscale>  0 0.25778960E+03</rscale>
<asrwt>0</asrwt>
<pdfrwt beam="1">  1       21 0.24906758E-01 0.25778960E+03</pdfrwt>
<pdfrwt beam="2">  1       21 0.15787992E-01 0.25778960E+03</pdfrwt>
<totfact> 0.53851053E+05</totfact>
</mgrwt>
</event>
<event>
 8    1  0.9123825E-006  0.3973331E+03  0.7546771E-02  0.1044707E+00
         21   -1    0    0  504  503  0.00000000000E+00  0.00000000000E+00  0.12500342051E+04  0.12500342051E+04  0.00000000000E+00 0. -1.
         21   -1    0    0  503  504 -0.00000000000E+00 -0.00000000000E+00 -0.31573857805E+02  0.31573857805E+02  0.00000000000E+00 0. -1.
         25    2    1    2    0    0 -0.76373554455E+02 -0.12623627623E+02  0.10401723318E+04  0.10505127850E+04  0.12500542294E+03 0.  0.
         25    2    1    2    0    0  0.76373554455E+02  0.12623627623E+02  0.17828801549E+03  0.23109527792E+03  0.12500454078E+03 0.  0.
          5    1    3    3  501    0  0.31096950775E+02 -0.10966161506E+02  0.39794077204E+03  0.39933222396E+03  0.47000000000E+01 0.  1.
         -5    1    3    3    0  501 -0.10747050523E+03 -0.16574661168E+01  0.64223155981E+03  0.65118056106E+03  0.47000000000E+01 0.  1.
          5    1    4    4  502    0  0.95515662395E+02 -0.86209607455E+01  0.17784701174E+03  0.20211188068E+03  0.47000000000E+01 0.  1.
         -5    1    4    4    0  502 -0.19142107940E+02  0.21244588369E+02  0.44100374793E+00  0.28983397241E+02  0.47000000000E+01 0.  1.
<mgrwt>
<rscale>  0 0.39733312E+03</rscale>
<asrwt>0</asrwt>
<pdfrwt beam="1">  1       21 0.19231292E+00 0.39733312E+03</pdfrwt>
<pdfrwt beam="2">  1       21 0.48575175E-02 0.39733312E+03</pdfrwt>
<totfact> 0.38658256E+04</totfact>
</mgrwt>
</event>
<event>
 8    1  0.9123825E-006  0.3185230E+03  0.7546771E-02  0.1076331E+00
         21   -1    0    0  504  503  0.00000000000E+00  0.00000000000E+00  0.58962378280E+02  0.58962378280E+02  0.00000000000E+00 0.  1.
         21   -1    0    0  503  504 -0.00000000000E+00 -0.00000000000E+00 -0.43017644072E+03  0.43017644072E+03  0.00000000000E+00 0.  1.
         25    2    1    2    0    0  0.95106170920E+02 -0.19381497203E+02 -0.15818004702E+03  0.22375530028E+03  0.12499872379E+03 0.  0.
         25    2    1    2    0    0 -0.95106170920E+02  0.19381497203E+02 -0.21303401542E+03  0.26538351871E+03  0.12499637634E+03 0.  0.
          5    1    3    3  501    0  0.90267128200E+02 -0.81313939520E+01 -0.17810827275E+03  0.19989727567E+03  0.47000000000E+01 0.  1.
         -5    1    3    3    0  501  0.48390427199E+01 -0.11250103251E+02  0.19928225728E+02  0.23858024610E+02  0.47000000000E+01 0.  1.
          5    1    4    4  502    0 -0.62069476349E+02 -0.20854671198E+02 -0.20140328454E+03  0.21183226909E+03  0.47000000000E+01 0. -1.
         -5    1    4    4    0  502 -0.33036694571E+02  0.40236168401E+02 -0.11630730885E+02  0.53551249627E+02  0.47000000000E+01 0. -1.
<mgrwt>
<rscale>  0 0.31852300E+03</rscale>
<asrwt>0</asrwt>
<pdfrwt beam="1">  1       21 0.90711350E-02 0.31852300E+03</pdfrwt>
<pdfrwt beam="2">  1       21 0.66180992E-01 0.31852300E+03</pdfrwt>
<totfact> 0.19508228E+05</totfact>
</mgrwt>
</event>
<event>
 8    1  0.9123825E-006  0.2966298E+03  0.7546771E-02  0.1086938E+00
         21   -1    0    0  504  503  0.00000000000E+00  0.00000000000E+00  0.53975101206E+02  0.53975101206E+02  0.00000000000E+00 0.  1.
         21   -1    0    0  503  504 -0.00000000000E+00 -0.00000000000E+00 -0.40754547425E+03  0.40754547425E+03  0.00000000000E+00 0.  1.
         25    2    1    2    0    0 -0.36129072943E+00  0.50309363784E+02 -0.80355166199E+02  0.15688560507E+03  0.12499991091E+03 0.  0.
         25    2    1    2    0    0  0.36129072943E+00 -0.50309363784E+02 -0.27321520685E+03  0.30463497039E+03  0.12499901326E+03 0.  0.
          5    1    3    3  501    0 -0.57485923353E+02  0.39494950038E+02 -0.67463873356E+02  0.97149095057E+02  0.47000000000E+01 0.  1.
         -5    1    3    3    0  501  0.57124632623E+02  0.10814413746E+02 -0.12891292844E+02  0.59736510010E+02  0.47000000000E+01 0.  1.
          5    1    4    4  502    0  0.35263841676E+02 -0.71529567331E+02 -0.10773305928E+03  0.13412128688E+03  0.47000000000E+01 0.  1.
         -5    1    4    4    0  502 -0.34902550947E+02  0.21220203547E+02 -0.16548214757E+03  0.17051368351E+03  0.47000000000E+01 0.  1.
<mgrwt>
<rscale>  0 0.29662979E+03</rscale>
<asrwt>0</asrwt>
<pdfrwt beam="1">  1       21 0.83038614E-02 0.29662979E+03</pdfrwt>
<pdfrwt beam="2">  1       21 0.62699306E-01 0.29662979E+03</pdfrwt>
<totfact> 0.25807388E+05</totfact>
</mgrwt>
</event>
<event>
 8    1  0.9123825E-006  0.3285440E+03  0.7546771E-02  0.1071783E+00
         21   -1    0    0  504  503  0.00000000000E+00  0.00000000000E+00  0.21818457455E+03  0.21818457455E+03  0.00000000000E+00 0. -1.
         21   -1    0    0  503  504 -0.00000000000E+00 -0.00000000000E+00 -0.12368099803E+03  0.12368099803E+03  0.00000000000E+00 0. -1.
         25    2    1    2    0    0  0.27930357104E+02 -0.17106714484E+02 -0.58293247726E+02  0.14175820263E+03  0.12499816301E+03 0.  0.
         25    2    1    2    0    0 -0.27930357104E+02  0.17106714484E+02  0.15279682424E+03  0.20010736995E+03  0.12499338175E+03 0.  0.
          5    1    3    3  501    0  0.10006484335E+02  0.64042586191E+01 -0.94170034698E+02  0.95032782198E+02  0.47000000000E+01 0.  1.
         -5    1    3    3    0  501  0.17923872769E+02 -0.23510973103E+02  0.35876786973E+02  0.46725420435E+02  0.47000000000E+01 0.  1.
          5    1    4    4  502    0  0.43812640726E+01 -0.51328676932E+02  0.46635746522E+02  0.69647766685E+02  0.47000000000E+01 0. -1.
         -5    1    4    4    0  502 -0.32311621177E+02  0.68435391416E+02  0.10616107772E+03  0.13045960326E+03  0.47000000000E+01 0. -1.
<mgrwt>
<rscale>  0 0.32854398E+03</rscale>
<asrwt>0</asrwt>
<pdfrwt beam="1">  1       21 0.33566858E-01 0.32854398E+03</pdfrwt>
<pdfrwt beam="2">  1       21 0.19027846E-01 0.32854398E+03</pdfrwt>
<totfact> 0.20922281E+05</totfact>
</mgrwt>
</event>
<event>
 8    1  0.9123825E-006  0.7150645E+03  0.7546771E-02  0.9691811E-01
         21   -1    0    0  504  503  0.00000000000E+00  0.00000000000E+00  0.10280986189E+04  0.10280986189E+04  0.00000000000E+00 0. -1.
         21   -1    0    0  503  504 -0.00000000000E+00 -0.00000000000E+00 -0.12433566210E+03  0.12433566210E+03  0.00000000000E+00 0. -1.
         25    2    1    2    0    0 -0.25862660388E+02 -0.26616265296E+03  0.77699061070E+03  0.83117426071E+03  0.12499923009E+03 0.  0.
         25    2    1    2    0    0  0.25862660388E+02  0.26616265296E+03  0.12677234613E+03  0.32126002031E+03  0.12500135150E+03 0.  0.
          5    1    3    3  501    0  0.46833408913E+02 -0.15284227568E+03  0.44681139679E+03  0.47456995662E+03  0.47000000000E+01 0.  1.
         -5    1    3    3    0  501 -0.72696069302E+02 -0.11332037728E+03  0.33017921391E+03  0.35660430409E+03  0.47000000000E+01 0.  1.
          5    1    4    4  502    0 -0.31618878597E+02  0.24957359899E+02 -0.42424349668E+01  0.40776360202E+02  0.47000000000E+01 0. -1.
         -5    1    4    4    0  502  0.57481538985E+02  0.24120529306E+03  0.13101478109E+03  0.28048366011E+03  0.47000000000E+01 0. -1.
<mgrwt>
<rscale>  0 0.71506454E+03</rscale>
<asrwt>0</asrwt>
<pdfrwt beam="1">  1       21 0.15816901E+00 0.71506454E+03</pdfrwt>
<pdfrwt beam="2">  1       21 0.19128564E-01 0.71506454E+03</pdfrwt>
<totfact> 0.52780566E+03</totfact>
</mgrwt>
</event>
<event>
 8    1  0.9123825E-006  0.2807922E+03  0.7546771E-02  0.1095257E+00
         21   -1    0    0  504  503  0.00000000000E+00  0.00000000000E+00  0.82913465276E+02  0.82913465276E+02  0.00000000000E+00 0. -1.
         21   -1    0    0  503  504 -0.00000000000E+00 -0.00000000000E+00 -0.23773054109E+03  0.23773054109E+03  0.00000000000E+00 0. -1.
         25    2    1    2    0    0 -0.19686397844E+02  0.28094051872E+01 -0.14677945313E+03  0.19381641750E+03  0.12500059525E+03 0.  0.
         25    2    1    2    0    0  0.19686397844E+02 -0.28094051872E+01 -0.80376226842E+01  0.12682758887E+03  0.12500074761E+03 0.  0.
          5    1    3    3  501    0 -0.57622555941E+02  0.13005905660E+02 -0.22491270699E+02  0.63383434688E+02  0.47000000000E+01 0. -1.
         -5    1    3    3    0  501  0.37936158097E+02 -0.10196500473E+02 -0.12428818243E+03  0.13043298282E+03  0.47000000000E+01 0. -1.
          5    1    4    4  502    0 -0.40932375375E+02  0.31982374288E+02  0.12871271747E+02  0.53722353405E+02  0.47000000000E+01 0.  1.
         -5    1    4    4    0  502  0.60618773220E+02 -0.34791779475E+02 -0.20908894431E+02  0.73105235462E+02  0.47000000000E+01 0.  1.
<mgrwt>
<rscale>  0 0.28079219E+03</rscale>
<asrwt>0</asrwt>
<pdfrwt beam="1">  1       21 0.12755918E-01 0.28079219E+03</pdfrwt>
<pdfrwt beam="2">  1       21 0.36573929E-01 0.28079219E+03</pdfrwt>
<totfact> 0.37198790E+05</totfact>
</mgrwt>
</event>
<event>
 8    1  0.9123825E-006  0.2708816E+03  0.7546771E-02  0.1100776E+00
         21   -1    0    0  504  503  0.00000000000E+00  0.00000000000E+00  0.10771690459E+03  0.10771690459E+03  0.00000000000E+00 0. -1.
         21   -1    0    0  503  504 -0.00000000000E+00 -0.00000000000E+00 -0.17030023857E+03  0.17030023857E+03  0.00000000000E+00 0. -1.
         25    2    1    2    0    0  0.32253474330E+01 -0.39787568841E+02  0.31413101680E+01  0.13125728177E+03  0.12500061075E+03 0.  0.
         25    2    1    2    0    0 -0.32253474330E+01  0.39787568841E+02 -0.65724644142E+02  0.14675986139E+03  0.12500109826E+03 0.  0.
          5    1    3    3  501    0 -0.15081443596E+02  0.31704524220E+02  0.35850264583E+02  0.50397998647E+02  0.47000000000E+01 0. -1.
         -5    1    3    3    0  501  0.18306791029E+02 -0.71492093060E+02 -0.32708954415E+02  0.80859283121E+02  0.47000000000E+01 0. -1.
          5    1    4    4  502    0  0.35330044660E+02 -0.28871046674E+02 -0.47025188328E+02  0.65690240744E+02  0.47000000000E+01 0.  1.
         -5    1    4    4    0  502 -0.38555392093E+02  0.68658615514E+02 -0.18699455813E+02  0.81069620645E+02  0.47000000000E+01 0.  1.
<mgrwt>
<rscale>  0 0.27088163E+03</rscale>
<asrwt>0</asrwt>
<pdfrwt beam="1">  1       21 0.16571831E-01 0.27088163E+03</pdfrwt>
<pdfrwt beam="2">  1       21 0.26200037E-01 0.27088163E+03</pdfrwt>
<totfact> 0.44565672E+05</totfact>
</mgrwt>
</event>
<event>
 8    1  0.9123825E-006  0.2799149E+03  0.7546771E-02  0.1095735E+00
         21   -1    0    0  504  503  0.00000000000E+00  0.00000000000E+00  0.56627499018E+02  0.56627499018E+02  0.00000000000E+00 0.  1.
         21   -1    0    0  503  504 -0.00000000000E+00 -0.00000000000E+00 -0.34591111364E+03  0.34591111364E+03  0.00000000000E+00 0.  1.
         25    2    1    2    0    0  0.31219068336E+02  0.47460564460E+02 -0.18366636351E+03  0.22931540422E+03  0.12500034448E+03 0.  0.
         25    2    1    2    0    0 -0.31219068336E+02 -0.47460564460E+02 -0.10561725111E+03  0.17322320844E+03  0.12499656316E+03 0.  0.
          5    1    3    3  501    0 -0.45676309482E+02  0.11286313472E+02 -0.96651460707E+02  0.10759786697E+03  0.47000000000E+01 0.  1.
         -5    1    3    3    0  501  0.76895377818E+02  0.36174250988E+02 -0.87014902800E+02  0.12171753725E+03  0.47000000000E+01 0.  1.
          5    1    4    4  502    0 -0.68193850655E+02 -0.64176169244E+02 -0.57017212584E+02  0.10973620413E+03  0.47000000000E+01 0. -1.
         -5    1    4    4    0  502  0.36974782320E+02  0.16715604784E+02 -0.48600038528E+02  0.63487004306E+02  0.47000000000E+01 0. -1.
<mgrwt>
<rscale>  0 0.27991485E+03</rscale>
<asrwt>0</asrwt>
<pdfrwt beam="1">  1       21 0.87119229E-02 0.27991485E+03</pdfrwt>
<pdfrwt beam="2">  1       21 0.53217095E-01 0.27991485E+03</pdfrwt>
<totfact> 0.33883449E+05</totfact>
</mgrwt>
</event>
<event>
 8    1  0.9123825E-006  0.2807701E+03  0.7546771E-02  0.1095269E+00
         21   -1    0    0  504  503  0.00000000000E+00  0.00000000000E+00  0.69530668586E+03  0.69530668586E+03  0.00000000000E+00 0. -1.
         21   -1    0    0  503  504 -0.00000000000E+00 -0.00000000000E+00 -0.28344272744E+02  0.28344272744E+02  0.00000000000E+00 0. -1.
         25    2    1    2    0    0 -0.34721178062E+02 -0.52605477650E+02  0.36042940491E+03  0.38666420644E+03  0.12500782431E+03 0.  0.
         25    2    1    2    0    0  0.34721178062E+02  0.52605477650E+02  0.30653300821E+03  0.33698675216E+03  0.12499875809E+03 0.  0.
          5    1    3    3  501    0 -0.82629801404E+01 -0.91240204222E+02  0.26120403076E+03  0.27684415723E+03  0.47000000000E+01 0.  1.
         -5    1    3    3    0  501 -0.26458197922E+02  0.38634726572E+02  0.99225374146E+02  0.10982004921E+03  0.47000000000E+01 0.  1.
          5    1    4    4  502    0 -0.63049825211E+01 -0.33849299185E+02  0.36212868967E+02  0.50189538140E+02  0.47000000000E+01 0.  1.
         -5    1    4    4    0  502  0.41026160583E+02  0.86454776835E+02  0.27032013924E+03  0.28679721402E+03  0.47000000000E+01 0.  1.
<mgrwt>
<rscale>  0 0.28077010E+03</rscale>
<asrwt>0</asrwt>
<pdfrwt beam="1">  1       21 0.10697025E+00 0.28077010E+03</pdfrwt>
<pdfrwt beam="2">  1       21 0.43606579E-02 0.28077010E+03</pdfrwt>
<totfact> 0.23058187E+05</totfact>
</mgrwt>
</event>
<event>
 8    1  0.9123825E-006  0.6106950E+03  0.7546771E-02  0.9883463E-01
         21   -1    0    0  504  503  0.00000000000E+00  0.00000000000E+00  0.23623822852E+03  0.23623822852E+03  0.00000000000E+00 0.  1.
         21   -1    0    0  503  504 -0.00000000000E+00 -0.00000000000E+00 -0.39467399214E+03  0.39467399214E+03  0.00000000000E+00 0.  1.
         25    2    1    2    0    0  0.42519504458E+02 -0.15540218250E+03 -0.31401592486E+03  0.37441991945E+03  0.12500611357E+03 0.  0.
         25    2    1    2    0    0 -0.42519504458E+02  0.15540218250E+03  0.15558016125E+03  0.25649230121E+03  0.12500146968E+03 0.  0.
          5    1    3    3  501    0 -0.62486375713E+00  0.12437047502E+02 -0.90905277286E+02  0.91874534251E+02  0.47000000000E+01 0.  1.
         -5    1    3    3    0  501  0.43144368215E+02 -0.16783923000E+03 -0.22311064758E+03  0.28254538520E+03  0.47000000000E+01 0.  1.
          5    1    4    4  502    0  0.20726915903E+02 -0.66609495932E+01 -0.11322947320E+01  0.22301241752E+02  0.47000000000E+01 0. -1.
         -5    1    4    4    0  502 -0.63246420361E+02  0.16206313209E+03  0.15671245598E+03  0.23419105946E+03  0.47000000000E+01 0. -1.
<mgrwt>
<rscale>  0 0.61069496E+03</rscale>
<asrwt>0</asrwt>
<pdfrwt beam="1">  1       21 0.36344344E-01 0.61069496E+03</pdfrwt>
<pdfrwt beam="2">  1       21 0.60719074E-01 0.61069496E+03</pdfrwt>
<totfact> 0.16019284E+04</totfact>
</mgrwt>
</event>
<event>
 8    1  0.9123825E-006  0.3708948E+03  0.7546771E-02  0.1054351E+00
         21   -1    0    0  504  503  0.00000000000E+00  0.00000000000E+00  0.11071328008E+03  0.11071328008E+03  0.00000000000E+00 0.  1.
         21   -1    0    0  503  504 -0.00000000000E+00 -0.00000000000E+00 -0.31062889602E+03  0.31062889602E+03  0.00000000000E+00 0.  1.
         25    2    1    2    0    0  0.69567248018E+02 -0.50868670514E+02  0.20965872791E+02  0.15331055036E+03  0.12504932384E+03 0.  0.
         25    2    1    2    0    0 -0.69567248018E+02  0.50868670514E+02 -0.22088148873E+03  0.26803162574E+03  0.12500038678E+03 0.  0.
          5    1    3    3  501    0 -0.17627706497E+02 -0.70631591750E+00 -0.33993074719E+02  0.38585671529E+02  0.47000000000E+01 0.  1.
         -5    1    3    3    0  501  0.87194954515E+02 -0.50162354596E+02  0.54958947510E+02  0.11472487883E+03  0.47000000000E+01 0.  1.
          5    1    4    4  502    0  0.76963899583E+01 -0.20411423806E+01  0.13059155200E+02  0.16001006692E+02  0.47000000000E+01 0.  1.
         -5    1    4    4    0  502 -0.77263637977E+02  0.52909812894E+02 -0.23394064393E+03  0.25203061905E+03  0.47000000000E+01 0.  1.
<mgrwt>
<rscale>  0 0.37089483E+03</rscale>
<asrwt>0</asrwt>
<pdfrwt beam="1">  1       21 0.17032813E-01 0.37089483E+03</pdfrwt>
<pdfrwt beam="2">  1       21 0.47789060E-01 0.37089483E+03</pdfrwt>
<totfact> 0.12372625E+05</totfact>
</mgrwt>
</event>
<event>
 8    1  0.9123825E-006  0.2776813E+03  0.7546771E-02  0.1096962E+00
         21   -1    0    0  504  503  0.00000000000E+00  0.00000000000E+00  0.20310022437E+03  0.20310022437E+03  0.00000000000E+00 0.  1.
         21   -1    0    0  503  504 -0.00000000000E+00 -0.00000000000E+00 -0.94912406537E+02  0.94912406537E+02  0.00000000000E+00 0.  1.
         25    2    1    2    0    0 -0.24537938670E+02  0.14409432608E+01  0.11333042638E+03  0.17051003752E+03  0.12500280236E+03 0.  0.
         25    2    1    2    0    0  0.24537938670E+02 -0.14409432608E+01 -0.51426085449E+01  0.12750259339E+03  0.12500511249E+03 0.  0.
          5    1    3    3  501    0 -0.36583514721E+02  0.37656336176E+02  0.20257979227E+01  0.52749853656E+02  0.47000000000E+01 0. -1.
         -5    1    3    3    0  501  0.12045576051E+02 -0.36215392915E+02  0.11130462846E+03  0.11776018386E+03  0.47000000000E+01 0. -1.
          5    1    4    4  502    0 -0.39228403403E+02  0.85770068422E+01  0.33168394890E+02  0.52294025467E+02  0.47000000000E+01 0.  1.
         -5    1    4    4    0  502  0.63766342073E+02 -0.10017950103E+02 -0.38311003435E+02  0.75208567928E+02  0.47000000000E+01 0.  1.
<mgrwt>
<rscale>  0 0.27768134E+03</rscale>
<asrwt>0</asrwt>
<pdfrwt beam="1">  1       21 0.31246188E-01 0.27768134E+03</pdfrwt>
<pdfrwt beam="2">  1       21 0.14601909E-01 0.27768134E+03</pdfrwt>
<totfact> 0.39823602E+05</totfact>
</mgrwt>
</event>
<event>
 8    1  0.9123825E-006  0.4116100E+03  0.7546771E-02  0.1039832E+00
         21   -1    0    0  504  503  0.00000000000E+00  0.00000000000E+00  0.20747359742E+03  0.20747359742E+03  0.00000000000E+00 0.  1.
         21   -1    0    0  503  504 -0.00000000000E+00 -0.00000000000E+00 -0.20414978805E+03  0.20414978805E+03  0.00000000000E+00 0.  1.
         25    2    1    2    0    0 -0.73250478617E+02  0.13579178545E+03 -0.52514649020E+02  0.20540606531E+03  0.12501528583E+03 0.  0.
         25    2    1    2    0    0  0.73250478617E+02 -0.13579178545E+03  0.55838458389E+02  0.20621732015E+03  0.12491040021E+03 0.  0.
          5    1    3    3  501    0 -0.17765019465E+02  0.12251238236E+03  0.53648953640E+01  0.12399899939E+03  0.47000000000E+01 0.  1.
         -5    1    3    3    0  501 -0.55485459152E+02  0.13279403092E+02 -0.57879544384E+02  0.81407065921E+02  0.47000000000E+01 0.  1.
          5    1    4    4  502    0 -0.24316235167E+02 -0.84501309928E+01  0.35998974808E+02  0.44505058069E+02  0.47000000000E+01 0. -1.
         -5    1    4    4    0  502  0.97566713784E+02 -0.12734165446E+03  0.19839483580E+02  0.16171226208E+03  0.47000000000E+01 0. -1.
<mgrwt>
<rscale>  0 0.41160997E+03</rscale>
<asrwt>0</asrwt>
<pdfrwt beam="1">  1       21 0.31919015E-01 0.41160997E+03</pdfrwt>
<pdfrwt beam="2">  1       21 0.31407660E-01 0.41160997E+03</pdfrwt>
<totfact> 0.86244795E+04</totfact>
</mgrwt>
</event>
<event>
 8    1  0.9123825E-006  0.3728238E+03  0.7546771E-02  0.1053618E+00
         21   -1    0    0  504  503  0.00000000000E+00  0.00000000000E+00  0.19197099446E+03  0.19197099446E+03  0.00000000000E+00 0. -1.
         21   -1    0    0  503  504 -0.00000000000E+00 -0.00000000000E+00 -0.18101377768E+03  0.18101377768E+03  0.00000000000E+00 0. -1.
         25    2    1    2    0    0  0.12022881766E+03  0.37501782945E+02 -0.51663008367E+02  0.18481633262E+03  0.12500663203E+03 0.  0.
         25    2    1    2    0    0 -0.12022881766E+03 -0.37501782945E+02  0.62620225143E+02  0.18816843952E+03  0.12499886686E+03 0.  0.
          5    1    3    3  501    0  0.43178370665E+01  0.34912314802E+01 -0.62979960297E+02  0.63398720911E+02  0.47000000000E+01 0. -1.
         -5    1    3    3    0  501  0.11591098059E+03  0.34010551465E+02  0.11316951930E+02  0.12141761171E+03  0.47000000000E+01 0. -1.
          5    1    4    4  502    0  0.70507012042E+01 -0.14130062340E+01  0.54894702577E+02  0.55562823408E+02  0.47000000000E+01 0. -1.
         -5    1    4    4    0  502 -0.12727951886E+03 -0.36088776712E+02  0.77255225663E+01  0.13260561611E+03  0.47000000000E+01 0. -1.
<mgrwt>
<rscale>  0 0.37282379E+03</rscale>
<asrwt>0</asrwt>
<pdfrwt beam="1">  1       21 0.29533999E-01 0.37282379E+03</pdfrwt>
<pdfrwt beam="2">  1       21 0.27848274E-01 0.37282379E+03</pdfrwt>
<totfact> 0.12869184E+05</totfact>
</mgrwt>
</event>
<event>
 8    1  0.9123825E-006  0.2751166E+03  0.7546771E-02  0.1098386E+00
         21   -1    0    0  504  503  0.00000000000E+00  0.00000000000E+00  0.12438395391E+02  0.12438395391E+02  0.00000000000E+00 0.  1.
         21   -1    0    0  503  504 -0.00000000000E+00 -0.00000000000E+00 -0.15212797953E+04  0.15212797953E+04  0.00000000000E+00 0.  1.
         25    2    1    2    0    0  0.52588320681E+02  0.11463070553E+02 -0.64283125403E+03  0.65708015683E+03  0.12500151153E+03 0.  0.
         25    2    1    2    0    0 -0.52588320681E+02 -0.11463070553E+02 -0.86601014583E+03  0.87663803381E+03  0.12499494463E+03 0.  0.
          5    1    3    3  501    0 -0.13917811010E+02 -0.44847862995E+02 -0.17939338781E+03  0.18549693762E+03  0.47000000000E+01 0. -1.
         -5    1    3    3    0  501  0.66506131691E+02  0.56310933548E+02 -0.46343786622E+03  0.47158321921E+03  0.47000000000E+01 0. -1.
          5    1    4    4  502    0  0.19033017710E+02  0.19467946586E+02 -0.51997750831E+02  0.58882194243E+02  0.47000000000E+01 0. -1.
         -5    1    4    4    0  502 -0.71621338391E+02 -0.30931017139E+02 -0.81401239500E+03  0.81775583957E+03  0.47000000000E+01 0. -1.
<mgrwt>
<rscale>  0 0.27511655E+03</rscale>
<asrwt>0</asrwt>
<pdfrwt beam="1">  1       21 0.19135994E-02 0.27511655E+03</pdfrwt>
<pdfrwt beam="2">  1       21 0.23404303E+00 0.27511655E+03</pdfrwt>
<totfact> 0.10440255E+05</totfact>
</mgrwt>
</event>
<event>
 8    1  0.9123825E-006  0.3342531E+03  0.7546771E-02  0.1069270E+00
         21   -1    0    0  504  503  0.00000000000E+00  0.00000000000E+00  0.97648345024E+02  0.97648345024E+02  0.00000000000E+00 0.  1.
         21   -1    0    0  503  504 -0.00000000000E+00 -0.00000000000E+00 -0.28603952731E+03  0.28603952731E+03  0.00000000000E+00 0.  1.
         25    2    1    2    0    0 -0.10309757632E+03 -0.35515680835E+02 -0.70645604158E+02  0.18027531230E+03  0.12497164883E+03 0.  0.
         25    2    1    2    0    0  0.10309757632E+03  0.35515680835E+02 -0.11774557813E+03  0.20341256003E+03  0.12498869781E+03 0.  0.
          5    1    3    3  501    0 -0.96838412548E+02  0.28731053033E+02 -0.44248665885E+02  0.11037747046E+03  0.47000000000E+01 0.  1.
         -5    1    3    3    0  501 -0.62591637706E+01 -0.64246733867E+02 -0.26396938273E+02  0.69897841840E+02  0.47000000000E+01 0.  1.
          5    1    4    4  502    0  0.93464522018E+02 -0.30787470292E+02 -0.74749230779E+02  0.12366496151E+03  0.47000000000E+01 0.  1.
         -5    1    4    4    0  502  0.96330543006E+01  0.66303151127E+02 -0.42996347347E+02  0.79747598519E+02  0.47000000000E+01 0.  1.
<mgrwt>
<rscale>  0 0.33425312E+03</rscale>
<asrwt>0</asrwt>
<pdfrwt beam="1">  1       21 0.15022822E-01 0.33425312E+03</pdfrwt>
<pdfrwt beam="2">  1       21 0.44006081E-01 0.33425312E+03</pdfrwt>
<totfact> 0.18698730E+05</totfact>
</mgrwt>
</event>
<event>
 8    1  0.9123825E-006  0.3637568E+03  0.7546771E-02  0.1057106E+00
         21   -1    0    0  504  503  0.00000000000E+00  0.00000000000E+00  0.64163881673E+03  0.64163881673E+03  0.00000000000E+00 0. -1.
         21   -1    0    0  503  504 -0.00000000000E+00 -0.00000000000E+00 -0.51555090556E+02  0.51555090556E+02  0.00000000000E+00 0. -1.
         25    2    1    2    0    0  0.37160467301E+02  0.67898794671E+01  0.53629989519E+03  0.55196926292E+03  0.12500194733E+03 0.  0.
         25    2    1    2    0    0 -0.37160467301E+02 -0.67898794671E+01  0.53783830985E+02  0.14122464437E+03  0.12499878762E+03 0.  0.
          5    1    3    3  501    0  0.33286319772E+02 -0.50064054751E+02  0.39437815613E+03  0.39896191384E+03  0.47000000000E+01 0.  1.
         -5    1    3    3    0  501  0.38741475288E+01  0.56853934218E+02  0.14192173905E+03  0.15300734908E+03  0.47000000000E+01 0.  1.
          5    1    4    4  502    0 -0.77170840603E+02 -0.25918692212E+02  0.51758531620E+02  0.96582362990E+02  0.47000000000E+01 0.  1.
         -5    1    4    4    0  502  0.40010373302E+02  0.19128812744E+02  0.20252993648E+01  0.44642281375E+02  0.47000000000E+01 0.  1.
<mgrwt>
<rscale>  0 0.36375677E+03</rscale>
<asrwt>0</asrwt>
<pdfrwt beam="1">  1       21 0.98713658E-01 0.36375677E+03</pdfrwt>
<pdfrwt beam="2">  1       21 0.79315529E-02 0.36375677E+03</pdfrwt>
<totfact> 0.97507319E+04</totfact>
</mgrwt>
</event>
<event>
 8    1  0.9123825E-006  0.3492857E+03  0.7546771E-02  0.1062909E+00
         21   -1    0    0  504  503  0.00000000000E+00  0.00000000000E+00  0.17252281310E+03  0.17252281310E+03  0.00000000000E+00 0. -1.
         21   -1    0    0  503  504 -0.00000000000E+00 -0.00000000000E+00 -0.17678891632E+03  0.17678891632E+03  0.00000000000E+00 0. -1.
         25    2    1    2    0    0 -0.89620306407E+02 -0.52733813761E+02  0.61616357964E+02  0.17387591059E+03  0.12499440900E+03 0.  0.
         25    2    1    2    0    0  0.89620306407E+02  0.52733813761E+02 -0.65882461182E+02  0.17543581883E+03  0.12499829360E+03 0.  0.
          5    1    3    3  501    0 -0.72688285035E+02 -0.90260819901E+01  0.92097138898E+02  0.11776684563E+03  0.47000000000E+01 0. -1.
         -5    1    3    3    0  501 -0.16932021373E+02 -0.43707731771E+02 -0.30480780933E+02  0.56109064960E+02  0.47000000000E+01 0. -1.
          5    1    4    4  502    0  0.23521908588E+01  0.68908833237E+02 -0.49629584053E+02  0.85083169389E+02  0.47000000000E+01 0.  1.
         -5    1    4    4    0  502  0.87268115549E+02 -0.16175019476E+02 -0.16252877129E+02  0.90352649443E+02  0.47000000000E+01 0.  1.
<mgrwt>
<rscale>  0 0.34928568E+03</rscale>
<asrwt>0</asrwt>
<pdfrwt beam="1">  1       21 0.26541971E-01 0.34928568E+03</pdfrwt>
<pdfrwt beam="2">  1       21 0.27198295E-01 0.34928568E+03</pdfrwt>
<totfact> 0.16701102E+05</totfact>
</mgrwt>
</event>
<event>
 8    1  0.9123825E-006  0.3010892E+03  0.7546771E-02  0.1084697E+00
         21   -1    0    0  504  503  0.00000000000E+00  0.00000000000E+00  0.33977085838E+02  0.33977085838E+02  0.00000000000E+00 0.  1.
         21   -1    0    0  503  504 -0.00000000000E+00 -0.00000000000E+00 -0.66702811839E+03  0.66702811839E+03  0.00000000000E+00 0.  1.
         25    2    1    2    0    0  0.61628110564E+02 -0.67225679025E+01 -0.18490322399E+03  0.23163708617E+03  0.12499328189E+03 0.  0.
         25    2    1    2    0    0 -0.61628110564E+02  0.67225679025E+01 -0.44814780856E+03  0.46936811806E+03  0.12500701979E+03 0.  0.
          5    1    3    3  501    0 -0.21963307949E+02  0.38081324830E+02 -0.51240700432E+02  0.67677718472E+02  0.47000000000E+01 0.  1.
         -5    1    3    3    0  501  0.83591418513E+02 -0.44803892732E+02 -0.13366252356E+03  0.16395936770E+03  0.47000000000E+01 0.  1.
          5    1    4    4  502    0 -0.78509076302E+02  0.15854950075E+02 -0.44117934726E+03  0.44841538885E+03  0.47000000000E+01 0. -1.
         -5    1    4    4    0  502  0.16880965738E+02 -0.91323821728E+01 -0.69684612998E+01  0.20952729209E+02  0.47000000000E+01 0. -1.
<mgrwt>
<rscale>  0 0.30108917E+03</rscale>
<asrwt>0</asrwt>
<pdfrwt beam="1">  1       21 0.52272444E-02 0.30108917E+03</pdfrwt>
<pdfrwt beam="2">  1       21 0.10261970E+00 0.30108917E+03</pdfrwt>
<totfact> 0.18623364E+05</totfact>
</mgrwt>
</event>
<event>
 8    1  0.9123825E-006  0.2531614E+03  0.7546771E-02  0.1111323E+00
         21   -1    0    0  504  503  0.00000000000E+00  0.00000000000E+00  0.59588040102E+02  0.59588040102E+02  0.00000000000E+00 0. -1.
         21   -1    0    0  503  504 -0.00000000000E+00 -0.00000000000E+00 -0.26889073638E+03  0.26889073638E+03  0.00000000000E+00 0. -1.
         25    2    1    2    0    0  0.35089563759E+00 -0.53596881733E+01 -0.79616495168E+02  0.14829426771E+03  0.12499421645E+03 0.  0.
         25    2    1    2    0    0 -0.35089563759E+00  0.53596881733E+01 -0.12968620111E+03  0.18018450878E+03  0.12497638601E+03 0.  0.
          5    1    3    3  501    0  0.12565029575E+02 -0.13919965499E+02 -0.11129740376E+03  0.11296392119E+03  0.47000000000E+01 0.  1.
         -5    1    3    3    0  501 -0.12214133938E+02  0.85602773253E+01  0.31680908589E+02  0.35330346514E+02  0.47000000000E+01 0.  1.
          5    1    4    4  502    0 -0.29157220870E+02  0.23899556364E+02 -0.13922456113E+03  0.14431528244E+03  0.47000000000E+01 0.  1.
         -5    1    4    4    0  502  0.28806325232E+02 -0.18539868191E+02  0.95383600247E+01  0.35869226335E+02  0.47000000000E+01 0.  1.
<mgrwt>
<rscale>  0 0.25316139E+03</rscale>
<asrwt>0</asrwt>
<pdfrwt beam="1">  1       21 0.91673908E-02 0.25316139E+03</pdfrwt>
<pdfrwt beam="2">  1       21 0.41367805E-01 0.25316139E+03</pdfrwt>
<totfact> 0.52594149E+05</totfact>
</mgrwt>
</event>
<event>
 8    1  0.9123825E-006  0.2690706E+03  0.7546771E-02  0.1101813E+00
         21   -1    0    0  504  503  0.00000000000E+00  0.00000000000E+00  0.50558494915E+03  0.50558494915E+03  0.00000000000E+00 0. -1.
         21   -1    0    0  503  504 -0.00000000000E+00 -0.00000000000E+00 -0.35799609909E+02  0.35799609909E+02  0.00000000000E+00 0. -1.
         25    2    1    2    0    0 -0.13041200659E+02 -0.44129499179E+02  0.19673061096E+03  0.23758106908E+03  0.12499738192E+03 0.  0.
         25    2    1    2    0    0  0.13041200659E+02  0.44129499179E+02  0.27305472829E+03  0.30380348998E+03  0.12498075961E+03 0.  0.
          5    1    3    3  501    0 -0.23288254603E+02 -0.48745371785E+02  0.21155457979E+03  0.21839387423E+03  0.47000000000E+01 0. -1.
         -5    1    3    3    0  501  0.10247053943E+02  0.46158726062E+01 -0.14823968829E+02  0.19187194852E+02  0.47000000000E+01 0. -1.
          5    1    4    4  502    0 -0.16956626658E+02 -0.35510741278E+02  0.43049537021E+02  0.58514037388E+02  0.47000000000E+01 0. -1.
         -5    1    4    4    0  502  0.29997827317E+02  0.79640240457E+02  0.23000519126E+03  0.24528945259E+03  0.47000000000E+01 0. -1.
<mgrwt>
<rscale>  0 0.26907058E+03</rscale>
<asrwt>0</asrwt>
<pdfrwt beam="1">  1       21 0.77782295E-01 0.26907058E+03</pdfrwt>
<pdfrwt beam="2">  1       21 0.55076326E-02 0.26907058E+03</pdfrwt>
<totfact> 0.32801609E+05</totfact>
</mgrwt>
</event>
<event>
 8    1  0.9123825E-006  0.3492570E+03  0.7546771E-02  0.1062920E+00
         21   -1    0    0  504  503  0.00000000000E+00  0.00000000000E+00  0.19361574341E+02  0.19361574341E+02  0.00000000000E+00 0.  1.
         21   -1    0    0  503  504 -0.00000000000E+00 -0.00000000000E+00 -0.15750328032E+04  0.15750328032E+04  0.00000000000E+00 0.  1.
         25    2    1    2    0    0 -0.12050349425E+02 -0.80293929358E+02 -0.36250633013E+03  0.39195523905E+03  0.12500297605E+03 0.  0.
         25    2    1    2    0    0  0.12050349425E+02  0.80293929358E+02 -0.11931648987E+04  0.12024391385E+04  0.12500032081E+03 0.  0.
          5    1    3    3  501    0  0.41991853902E+02 -0.82688692220E+02 -0.25766697707E+03  0.27388884002E+03  0.47000000000E+01 0.  1.
         -5    1    3    3    0  501 -0.54042203327E+02  0.23947628618E+01 -0.10483935306E+03  0.11806639903E+03  0.47000000000E+01 0.  1.
          5    1    4    4  502    0 -0.32132824848E+02  0.15216511468E+02 -0.96527443773E+02  0.10297425919E+03  0.47000000000E+01 0. -1.
         -5    1    4    4    0  502  0.44183174273E+02  0.65077417890E+02 -0.10966374550E+04  0.10994648793E+04  0.47000000000E+01 0. -1.
<mgrwt>
<rscale>  0 0.34925701E+03</rscale>
<asrwt>0</asrwt>
<pdfrwt beam="1">  1       21 0.29787042E-02 0.34925701E+03</pdfrwt>
<pdfrwt beam="2">  1       21 0.24231270E+00 0.34925701E+03</pdfrwt>
<totfact> 0.43202104E+04</totfact>
</mgrwt>
</event>
<event>
 8    1  0.9123825E-006  0.2628537E+03  0.7546771E-02  0.1105441E+00
         21   -1    0    0  504  503  0.00000000000E+00  0.00000000000E+00  0.96583250728E+01  0.96583250728E+01  0.00000000000E+00 0.  1.
         21   -1    0    0  503  504 -0.00000000000E+00 -0.00000000000E+00 -0.17884066497E+04  0.17884066497E+04  0.00000000000E+00 0.  1.
         25    2    1    2    0    0 -0.16386821373E+02  0.29016516250E+02 -0.10481570139E+04  0.10561080477E+04  0.12498238470E+03 0.  0.
         25    2    1    2    0    0  0.16386821373E+02 -0.29016516250E+02 -0.73059131071E+03  0.74195692706E+03  0.12500372874E+03 0.  0.
          5    1    3    3  501    0 -0.54182340840E+02  0.29643231533E+02 -0.92784013155E+03  0.92990528924E+03  0.47000000000E+01 0.  1.
         -5    1    3    3    0  501  0.37795519467E+02 -0.62671528336E+00 -0.12031688234E+03  0.12620275845E+03  0.47000000000E+01 0.  1.
          5    1    4    4  502    0  0.43811210819E+02 -0.30471128045E+02 -0.69350201822E+03  0.69556814987E+03  0.47000000000E+01 0.  1.
         -5    1    4    4    0  502 -0.27424389446E+02  0.14546117957E+01 -0.37089292489E+02  0.46388777191E+02  0.47000000000E+01 0.  1.
<mgrwt>
<rscale>  0 0.26285367E+03</rscale>
<asrwt>0</asrwt>
<pdfrwt beam="1">  1       21 0.14858964E-02 0.26285367E+03</pdfrwt>
<pdfrwt beam="2">  1       21 0.27513944E+00 0.26285367E+03</pdfrwt>
<totfact> 0.90161718E+04</totfact>
</mgrwt>
</event>
<event>
 8    1  0.9123825E-006  0.3787007E+03  0.7546771E-02  0.1051415E+00
         21   -1    0    0  504  503  0.00000000000E+00  0.00000000000E+00  0.61920762242E+03  0.61920762242E+03  0.00000000000E+00 0. -1.
         21   -1    0    0  503  504 -0.00000000000E+00 -0.00000000000E+00 -0.57902303417E+02  0.57902303417E+02  0.00000000000E+00 0. -1.
         25    2    1    2    0    0 -0.12407989331E+03 -0.29627971636E+02  0.39308412672E+03  0.43175629448E+03  0.12499892208E+03 0.  0.
         25    2    1    2    0    0  0.12407989331E+03  0.29627971636E+02  0.16822119228E+03  0.24535363135E+03  0.12500559290E+03 0.  0.
          5    1    3    3  501    0 -0.11214011384E+03 -0.17361934733E+02  0.15060725881E+03  0.18863053389E+03  0.47000000000E+01 0.  1.
         -5    1    3    3    0  501 -0.11939779475E+02 -0.12266036903E+02  0.24247686791E+03  0.24312576059E+03  0.47000000000E+01 0.  1.
          5    1    4    4  502    0  0.65471534721E+02  0.28523864657E+02  0.17213090808E+03  0.18641693118E+03  0.47000000000E+01 0.  1.
         -5    1    4    4    0  502  0.58608358589E+02  0.11041069795E+01 -0.39097158031E+01  0.58936700166E+02  0.47000000000E+01 0.  1.
<mgrwt>
<rscale>  0 0.37870066E+03</rscale>
<asrwt>0</asrwt>
<pdfrwt beam="1">  1       21 0.95262706E-01 0.37870066E+03</pdfrwt>
<pdfrwt beam="2">  1       21 0.89080471E-02 0.37870066E+03</pdfrwt>
<totfact> 0.86136299E+04</totfact>
</mgrwt>
</event>
<event>
 8    1  0.9123825E-006  0.4610830E+03  0.7546771E-02  0.1024468E+00
         21   -1    0    0  504  503  0.00000000000E+00  0.00000000000E+00  0.35570295089E+03  0.35570295089E+03  0.00000000000E+00 0.  1.
         21   -1    0    0  503  504 -0.00000000000E+00 -0.00000000000E+00 -0.14942068655E+03  0.14942068655E+03  0.00000000000E+00 0.  1.
         25    2    1    2    0    0  0.18807500739E+03 -0.40403578487E+02  0.78162880478E+02  0.24236126916E+03  0.12499956538E+03 0.  0.
         25    2    1    2    0    0 -0.18807500739E+03  0.40403578487E+02  0.12811938387E+03  0.26276236829E+03  0.12499931243E+03 0.  0.
          5    1    3    3  501    0  0.12103348568E+02  0.17103779504E+02 -0.22897308332E+02  0.31391193809E+02  0.47000000000E+01 0.  1.
         -5    1    3    3    0  501  0.17597165882E+03 -0.57507357991E+02  0.10106018881E+03  0.21097007535E+03  0.47000000000E+01 0.  1.
          5    1    4    4  502    0 -0.63865461512E+02 -0.44865464601E+02  0.35738538279E+02  0.85971159154E+02  0.47000000000E+01 0. -1.
         -5    1    4    4    0  502 -0.12420954587E+03  0.85269043088E+02  0.92380845587E+02  0.17679120913E+03  0.47000000000E+01 0. -1.
<mgrwt>
<rscale>  0 0.46108298E+03</rscale>
<asrwt>0</asrwt>
<pdfrwt beam="1">  1       21 0.54723531E-01 0.46108298E+03</pdfrwt>
<pdfrwt beam="2">  1       21 0.22987798E-01 0.46108298E+03</pdfrwt>
<totfact> 0.51475555E+04</totfact>
</mgrwt>
</event>
<event>
 8    1  0.9123825E-006  0.3281916E+03  0.7546771E-02  0.1071940E+00
         21   -1    0    0  504  503  0.00000000000E+00  0.00000000000E+00  0.54818028437E+03  0.54818028437E+03  0.00000000000E+00 0.  1.
         21   -1    0    0  503  504 -0.00000000000E+00 -0.00000000000E+00 -0.49121493382E+02  0.49121493382E+02  0.00000000000E+00 0.  1.
         25    2    1    2    0    0  0.29004222418E+02 -0.75541633433E+02  0.12403929141E+03  0.19379980776E+03  0.12499934550E+03 0.  0.
         25    2    1    2    0    0 -0.29004222418E+02  0.75541633433E+02  0.37501949958E+03  0.40350196999E+03  0.12500572555E+03 0.  0.
          5    1    3    3  501    0  0.12608228454E+02 -0.10822549737E+03  0.74618136003E+02  0.13214265748E+03  0.47000000000E+01 0.  1.
         -5    1    3    3    0  501  0.16395993964E+02  0.32683863933E+02  0.49421155407E+02  0.61657150286E+02  0.47000000000E+01 0.  1.
          5    1    4    4  502    0 -0.35948264996E+02  0.29629810291E+02  0.34465854811E+03  0.34782439276E+03  0.47000000000E+01 0.  1.
         -5    1    4    4    0  502  0.69440425771E+01  0.45911823142E+02  0.30360951463E+02  0.55677577222E+02  0.47000000000E+01 0.  1.
<mgrwt>
<rscale>  0 0.32819162E+03</rscale>
<asrwt>0</asrwt>
<pdfrwt beam="1">  1       21 0.84335424E-01 0.32819162E+03</pdfrwt>
<pdfrwt beam="2">  1       21 0.75571532E-02 0.32819162E+03</pdfrwt>
<totfact> 0.15524886E+05</totfact>
</mgrwt>
</event>
<event>
 8    1  0.9123825E-006  0.5202598E+03  0.7546771E-02  0.1008622E+00
         21   -1    0    0  504  503  0.00000000000E+00  0.00000000000E+00  0.64343900085E+03  0.64343900085E+03  0.00000000000E+00 0.  1.
         21   -1    0    0  503  504 -0.00000000000E+00 -0.00000000000E+00 -0.10516547143E+03  0.10516547143E+03  0.00000000000E+00 0.  1.
         25    2    1    2    0    0  0.13779951779E+03 -0.18149455227E+03  0.28432707466E+03  0.38522617917E+03  0.12501337578E+03 0.  0.
         25    2    1    2    0    0 -0.13779951779E+03  0.18149455227E+03  0.25394645476E+03  0.36337829311E+03  0.12500400959E+03 0.  0.
          5    1    3    3  501    0  0.12738216307E+03 -0.20058918761E+03  0.25987077810E+03  0.35216068628E+03  0.47000000000E+01 0.  1.
         -5    1    3    3    0  501  0.10417354724E+02  0.19094635339E+02  0.24456296563E+02  0.33065492885E+02  0.47000000000E+01 0.  1.
          5    1    4    4  502    0 -0.11771393907E+03  0.52005063149E+02  0.12780598877E+03  0.18143196744E+03  0.47000000000E+01 0.  1.
         -5    1    4    4    0  502 -0.20085578723E+02  0.12948948912E+03  0.12614046599E+03  0.18194632567E+03  0.47000000000E+01 0.  1.
<mgrwt>
<rscale>  0 0.52025980E+03</rscale>
<asrwt>0</asrwt>
<pdfrwt beam="1">  1       21 0.98990613E-01 0.52025980E+03</pdfrwt>
<pdfrwt beam="2">  1       21 0.16179304E-01 0.52025980E+03</pdfrwt>
<totfact> 0.25598286E+04</totfact>
</mgrwt>
</event>
<event>
 8    1  0.9123825E-006  0.2647528E+03  0.7546771E-02  0.1104321E+00
         21   -1    0    0  504  503  0.00000000000E+00  0.00000000000E+00  0.48681958850E+03  0.48681958850E+03  0.00000000000E+00 0. -1.
         21   -1    0    0  503  504 -0.00000000000E+00 -0.00000000000E+00 -0.35995903718E+02  0.35995903718E+02  0.00000000000E+00 0. -1.
         25    2    1    2    0    0 -0.22468580514E+02  0.22180430343E+02  0.28468680909E+03  0.31252137264E+03  0.12500488186E+03 0.  0.
         25    2    1    2    0    0  0.22468580514E+02 -0.22180430343E+02  0.16613687569E+03  0.21029411957E+03  0.12500138664E+03 0.  0.
          5    1    3    3  501    0 -0.38483788056E+02  0.61761452011E+02  0.23871105736E+03  0.24960075681E+03  0.47000000000E+01 0.  1.
         -5    1    3    3    0  501  0.16015207542E+02 -0.39581021667E+02  0.45975751734E+02  0.62920615829E+02  0.47000000000E+01 0.  1.
          5    1    4    4  502    0 -0.13248169914E+02  0.23276797168E+02  0.14658557652E+03  0.14908636604E+03  0.47000000000E+01 0.  1.
         -5    1    4    4    0  502  0.35716750428E+02 -0.45457227511E+02  0.19551299165E+02  0.61207753538E+02  0.47000000000E+01 0.  1.
<mgrwt>
<rscale>  0 0.26475280E+03</rscale>
<asrwt>0</asrwt>
<pdfrwt beam="1">  1       21 0.74895316E-01 0.26475280E+03</pdfrwt>
<pdfrwt beam="2">  1       21 0.55378317E-02 0.26475280E+03</pdfrwt>
<totfact> 0.35427909E+05</totfact>
</mgrwt>
</event>
<event>
 8    1  0.9123825E-006  0.2886669E+03  0.7546771E-02  0.1091047E+00
         21   -1    0    0  504  503  0.00000000000E+00  0.00000000000E+00  0.18788036033E+03  0.18788036033E+03  0.00000000000E+00 0. -1.
         21   -1    0    0  503  504 -0.00000000000E+00 -0.00000000000E+00 -0.11087981290E+03  0.11087981290E+03  0.00000000000E+00 0. -1.
         25    2    1    2    0    0 -0.52645968747E+02 -0.47463926306E+02  0.24494775302E+02  0.14576849966E+03  0.12499615654E+03 0.  0.
         25    2    1    2    0    0  0.52645968747E+02  0.47463926306E+02  0.52505772133E+02  0.15299167357E+03  0.12500069500E+03 0.  0.
          5    1    3    3  501    0 -0.40430662051E+02  0.38834063344E+02  0.63097187600E+01  0.56609411413E+02  0.47000000000E+01 0.  1.
         -5    1    3    3    0  501 -0.12215306696E+02 -0.86297989650E+02  0.18185056542E+02  0.89159088245E+02  0.47000000000E+01 0.  1.
          5    1    4    4  502    0 -0.99276453622E+00 -0.38511526206E+02  0.30069551357E+02  0.49095734549E+02  0.47000000000E+01 0.  1.
         -5    1    4    4    0  502  0.53638733283E+02  0.85975452512E+02  0.22436220777E+02  0.10389593902E+03  0.47000000000E+01 0.  1.
<mgrwt>
<rscale>  0 0.28866686E+03</rscale>
<asrwt>0</asrwt>
<pdfrwt beam="1">  1       21 0.28904671E-01 0.28866686E+03</pdfrwt>
<pdfrwt beam="2">  1       21 0.17058433E-01 0.28866686E+03</pdfrwt>
<totfact> 0.34772103E+05</totfact>
</mgrwt>
</event>
<event>
 8    1  0.9123825E-006  0.5019717E+03  0.7546771E-02  0.1013266E+00
         21   -1    0    0  504  503  0.00000000000E+00  0.00000000000E+00  0.61120052170E+03  0.61120052170E+03  0.00000000000E+00 0.  1.
         21   -1    0    0  503  504 -0.00000000000E+00 -0.00000000000E+00 -0.10306585279E+03  0.10306585279E+03  0.00000000000E+00 0.  1.
         25    2    1    2    0    0  0.15014020146E+03  0.11696430407E+03  0.10384538510E+03  0.25026207687E+03  0.12499805835E+03 0.  0.
         25    2    1    2    0    0 -0.15014020146E+03 -0.11696430407E+03  0.40428928381E+03  0.46400429762E+03  0.12500973838E+03 0.  0.
          5    1    3    3  501    0  0.14667065820E+03  0.13206131884E+03  0.64455238850E+02  0.20767532768E+03  0.47000000000E+01 0. -1.
         -5    1    3    3    0  501  0.34695432642E+01 -0.15097014771E+02  0.39390146251E+02  0.42586749197E+02  0.47000000000E+01 0. -1.
          5    1    4    4  502    0 -0.13075661969E+03 -0.44227821452E+02  0.17688364196E+03  0.22441770557E+03  0.47000000000E+01 0.  1.
         -5    1    4    4    0  502 -0.19383581778E+02 -0.72736482617E+02  0.22740564185E+03  0.23958659205E+03  0.47000000000E+01 0.  1.
<mgrwt>
<rscale>  0 0.50197172E+03</rscale>
<asrwt>0</asrwt>
<pdfrwt beam="1">  1       21 0.94030847E-01 0.50197172E+03</pdfrwt>
<pdfrwt beam="2">  1       21 0.15856285E-01 0.50197172E+03</pdfrwt>
<totfact> 0.30214274E+04</totfact>
</mgrwt>
</event>
<event>
 8    1  0.9123825E-006  0.3995409E+03  0.7546771E-02  0.1043939E+00
         21   -1    0    0  504  503  0.00000000000E+00  0.00000000000E+00  0.25837648400E+03  0.25837648400E+03  0.00000000000E+00 0.  1.
         21   -1    0    0  503  504 -0.00000000000E+00 -0.00000000000E+00 -0.15445767161E+03  0.15445767161E+03  0.00000000000E+00 0.  1.
         25    2    1    2    0    0  0.37792339455E+01  0.12862048541E+03 -0.38861046061E+02  0.18355470322E+03  0.12499854517E+03 0.  0.
         25    2    1    2    0    0 -0.37792339455E+01 -0.12862048541E+03  0.14277985845E+03  0.22927945239E+03  0.12500186972E+03 0.  0.
          5    1    3    3  501    0  0.59743657904E+02  0.95426804426E+02 -0.13210556471E+02  0.11345566740E+03  0.47000000000E+01 0.  1.
         -5    1    3    3    0  501 -0.55964423959E+02  0.33193680982E+02 -0.25650489590E+02  0.70099035816E+02  0.47000000000E+01 0.  1.
          5    1    4    4  502    0  0.34928999530E+02 -0.98467093890E+02  0.34198664153E+02  0.11003382306E+03  0.47000000000E+01 0.  1.
         -5    1    4    4    0  502 -0.38708233476E+02 -0.30153391518E+02  0.10858119430E+03  0.11924562933E+03  0.47000000000E+01 0.  1.
<mgrwt>
<rscale>  0 0.39954089E+03</rscale>
<asrwt>0</asrwt>
<pdfrwt beam="1">  1       21 0.39750228E-01 0.39954089E+03</pdfrwt>
<pdfrwt beam="2">  1       21 0.23762719E-01 0.39954089E+03</pdfrwt>
<totfact> 0.95843160E+04</totfact>
</mgrwt>
</event>
<event>
 8    1  0.9123825E-006  0.4699448E+03  0.7546771E-02  0.1021936E+00
         21   -1    0    0  504  503  0.00000000000E+00  0.00000000000E+00  0.57461696144E+02  0.57461696144E+02  0.00000000000E+00 0.  1.
         21   -1    0    0  503  504 -0.00000000000E+00 -0.00000000000E+00 -0.96084937329E+03  0.96084937329E+03  0.00000000000E+00 0.  1.
         25    2    1    2    0    0  0.16878409533E+03 -0.84812258141E+01 -0.22416341452E+03  0.30730187437E+03  0.12500081423E+03 0.  0.
         25    2    1    2    0    0 -0.16878409533E+03  0.84812258141E+01 -0.67922426263E+03  0.71100919507E+03  0.12501389720E+03 0.  0.
          5    1    3    3  501    0  0.12815157187E+03  0.78995642917E+00 -0.67097981137E+02  0.14473312847E+03  0.47000000000E+01 0.  1.
         -5    1    3    3    0  501  0.40632523459E+02 -0.92711822433E+01 -0.15706543338E+03  0.16256874591E+03  0.47000000000E+01 0.  1.
          5    1    4    4  502    0 -0.15871971047E+03  0.37274519666E+02 -0.43023726107E+03  0.46011686246E+03  0.47000000000E+01 0.  1.
         -5    1    4    4    0  502 -0.10064384860E+02 -0.28793293852E+02 -0.24898700156E+03  0.25089233260E+03  0.47000000000E+01 0.  1.
<mgrwt>
<rscale>  0 0.46994483E+03</rscale>
<asrwt>0</asrwt>
<pdfrwt beam="1">  1       21 0.88402615E-02 0.46994483E+03</pdfrwt>
<pdfrwt beam="2">  1       21 0.14782297E+00 0.46994483E+03</pdfrwt>
<totfact> 0.28018112E+04</totfact>
</mgrwt>
</event>
<event>
 8    1  0.9123825E-006  0.3160315E+03  0.7546771E-02  0.1077490E+00
         21   -1    0    0  504  503  0.00000000000E+00  0.00000000000E+00  0.64553709067E+03  0.64553709067E+03  0.00000000000E+00 0. -1.
         21   -1    0    0  503  504 -0.00000000000E+00 -0.00000000000E+00 -0.38679379153E+02  0.38679379153E+02  0.00000000000E+00 0. -1.
         25    2    1    2    0    0  0.19837893198E+02  0.32189048399E+02  0.11082394279E+03  0.17128024546E+03  0.12500119738E+03 0.  0.
         25    2    1    2    0    0 -0.19837893198E+02 -0.32189048399E+02  0.49603376872E+03  0.51293622436E+03  0.12499757477E+03 0.  0.
          5    1    3    3  501    0  0.38428055442E+02 -0.12660743119E+02 -0.91698603251E+01  0.41751481408E+02  0.47000000000E+01 0. -1.
         -5    1    3    3    0  501 -0.18590162244E+02  0.44849791519E+02  0.11999380312E+03  0.12952876405E+03  0.47000000000E+01 0. -1.
          5    1    4    4  502    0 -0.32700867268E+02  0.19954634738E+01  0.27706315015E+02  0.43163161217E+02  0.47000000000E+01 0.  1.
         -5    1    4    4    0  502  0.12862974070E+02 -0.34184511873E+02  0.46832745371E+03  0.46977306314E+03  0.47000000000E+01 0.  1.
<mgrwt>
<rscale>  0 0.31603148E+03</rscale>
<asrwt>0</asrwt>
<pdfrwt beam="1">  1       21 0.99313390E-01 0.31603148E+03</pdfrwt>
<pdfrwt beam="2">  1       21 0.59506742E-02 0.31603148E+03</pdfrwt>
<totfact> 0.16062319E+05</totfact>
</mgrwt>
</event>
<event>
 8    1  0.9123825E-006  0.3557478E+03  0.7546771E-02  0.1060280E+00
         21   -1    0    0  504  503  0.00000000000E+00  0.00000000000E+00  0.90295150894E+02  0.90295150894E+02  0.00000000000E+00 0. -1.
         21   -1    0    0  503  504 -0.00000000000E+00 -0.00000000000E+00 -0.35039679606E+03  0.35039679606E+03  0.00000000000E+00 0. -1.
         25    2    1    2    0    0  0.98673659737E+02 -0.31785784626E+01 -0.32009564082E+02  0.16247998237E+03  0.12501415117E+03 0.  0.
         25    2    1    2    0    0 -0.98673659737E+02  0.31785784626E+01 -0.22809208108E+03  0.27821196458E+03  0.12501721999E+03 0.  0.
          5    1    3    3  501    0  0.12246729749E+03  0.19495102856E+00 -0.48000448467E+00  0.12255854669E+03  0.47000000000E+01 0.  1.
         -5    1    3    3    0  501 -0.23793637758E+02 -0.33735294912E+01 -0.31529559597E+02  0.39921435688E+02  0.47000000000E+01 0.  1.
          5    1    4    4  502    0 -0.87140918280E+02 -0.47109344173E+02 -0.18854573704E+03  0.21303618215E+03  0.47000000000E+01 0.  1.
         -5    1    4    4    0  502 -0.11532741457E+02  0.50287922635E+02 -0.39546344041E+02  0.65175782431E+02  0.47000000000E+01 0.  1.
<mgrwt>
<rscale>  0 0.35574784E+03</rscale>
<asrwt>0</asrwt>
<pdfrwt beam="1">  1       21 0.13891562E-01 0.35574784E+03</pdfrwt>
<pdfrwt beam="2">  1       21 0.53907200E-01 0.35574784E+03</pdfrwt>
<totfact> 0.14018634E+05</totfact>
</mgrwt>
</event>
<event>
 8    1  0.9123825E-006  0.3165727E+03  0.7546771E-02  0.1077238E+00
         21   -1    0    0  504  503  0.00000000000E+00  0.00000000000E+00  0.12189585068E+03  0.12189585068E+03  0.00000000000E+00 0.  1.
         21   -1    0    0  503  504 -0.00000000000E+00 -0.00000000000E+00 -0.20554080029E+03  0.20554080029E+03  0.00000000000E+00 0.  1.
         25    2    1    2    0    0 -0.91658866928E+02  0.25215622656E+02 -0.21334602042E+02  0.15848774063E+03  0.12500409263E+03 0.  0.
         25    2    1    2    0    0  0.91658866928E+02 -0.25215622656E+02 -0.62310347567E+02  0.16894891034E+03  0.12499591745E+03 0.  0.
          5    1    3    3  501    0 -0.65006840887E+02 -0.23431575037E+01 -0.70450268516E+02  0.96003698278E+02  0.47000000000E+01 0. -1.
         -5    1    3    3    0  501 -0.26652026041E+02  0.27558780159E+02  0.49115666474E+02  0.62484042356E+02  0.47000000000E+01 0. -1.
          5    1    4    4  502    0 -0.19999257564E+02  0.25496145290E+02 -0.37138229579E+01  0.32953091034E+02  0.47000000000E+01 0.  1.
         -5    1    4    4    0  502  0.11165812449E+03 -0.50711767946E+02 -0.58596524609E+02  0.13599581931E+03  0.47000000000E+01 0.  1.
<mgrwt>
<rscale>  0 0.31657271E+03</rscale>
<asrwt>0</asrwt>
<pdfrwt beam="1">  1       21 0.18753208E-01 0.31657271E+03</pdfrwt>
<pdfrwt beam="2">  1       21 0.31621661E-01 0.31657271E+03</pdfrwt>
<totfact> 0.24274791E+05</totfact>
</mgrwt>
</event>
<event>
 8    1  0.9123825E-006  0.3329190E+03  0.7546771E-02  0.1069853E+00
         21   -1    0    0  504  503  0.00000000000E+00  0.00000000000E+00  0.24151282765E+03  0.24151282765E+03  0.00000000000E+00 0.  1.
         21   -1    0    0  503  504 -0.00000000000E+00 -0.00000000000E+00 -0.11473000522E+03  0.11473000522E+03  0.00000000000E+00 0.  1.
         25    2    1    2    0    0  0.96753964450E+02 -0.51018528714E+02  0.51669931326E+02  0.17394680400E+03  0.12499395549E+03 0.  0.
         25    2    1    2    0    0 -0.96753964450E+02  0.51018528714E+02  0.75112891108E+02  0.18229602887E+03  0.12500270325E+03 0.  0.
          5    1    3    3  501    0  0.29739916353E+02  0.23670918529E+02  0.62089132108E+02  0.72951527295E+02  0.47000000000E+01 0. -1.
         -5    1    3    3    0  501  0.67014048097E+02 -0.74689447243E+02 -0.10419200782E+02  0.10099527671E+03  0.47000000000E+01 0. -1.
          5    1    4    4  502    0 -0.35315190797E+02  0.42521561310E+02  0.10075465227E+03  0.11501667632E+03  0.47000000000E+01 0.  1.
         -5    1    4    4    0  502 -0.61438773653E+02  0.84969674042E+01 -0.25641761166E+02  0.67279352544E+02  0.47000000000E+01 0.  1.
<mgrwt>
<rscale>  0 0.33291902E+03</rscale>
<asrwt>0</asrwt>
<pdfrwt beam="1">  1       21 0.37155819E-01 0.33291902E+03</pdfrwt>
<pdfrwt beam="2">  1       21 0.17650770E-01 0.33291902E+03</pdfrwt>
<totfact> 0.19616138E+05</totfact>
</mgrwt>
</event>
<event>
 8    1  0.9123825E-006  0.3737275E+03  0.7546771E-02  0.1053277E+00
         21   -1    0    0  504  503  0.00000000000E+00  0.00000000000E+00  0.19679525054E+03  0.19679525054E+03  0.00000000000E+00 0. -1.
         21   -1    0    0  503  504 -0.00000000000E+00 -0.00000000000E+00 -0.17743347295E+03  0.17743347295E+03  0.00000000000E+00 0. -1.
         25    2    1    2    0    0 -0.11029269923E+03  0.84420421523E+02  0.90005087913E+01  0.18708273024E+03  0.12501060643E+03 0.  0.
         25    2    1    2    0    0  0.11029269923E+03 -0.84420421523E+02  0.10361268795E+02  0.18714599325E+03  0.12499991930E+03 0.  0.
          5    1    3    3  501    0 -0.87327860714E+02  0.11632263765E+03  0.17540130963E+02  0.14658396052E+03  0.47000000000E+01 0. -1.
         -5    1    3    3    0  501 -0.22964838516E+02 -0.31902216126E+02 -0.85396221716E+01  0.40498769718E+02  0.47000000000E+01 0. -1.
          5    1    4    4  502    0  0.10100048894E+03 -0.72031359669E+01 -0.20362492920E+02  0.10339102985E+03  0.47000000000E+01 0. -1.
         -5    1    4    4    0  502  0.92922102851E+01 -0.77217285556E+02  0.30723761716E+02  0.83754963403E+02  0.47000000000E+01 0. -1.
<mgrwt>
<rscale>  0 0.37372752E+03</rscale>
<asrwt>0</asrwt>
<pdfrwt beam="1">  1       21 0.30276192E-01 0.37372752E+03</pdfrwt>
<pdfrwt beam="2">  1       21 0.27297458E-01 0.37372752E+03</pdfrwt>
<totfact> 0.12739523E+05</totfact>
</mgrwt>
</event>
<event>
 8    1  0.9123825E-006  0.2642272E+03  0.7546771E-02  0.1104630E+00
         21   -1    0    0  504  503  0.00000000000E+00  0.00000000000E+00  0.15749744623E+03  0.15749744623E+03  0.00000000000E+00 0.  1.
         21   -1    0    0  503  504 -0.00000000000E+00 -0.00000000000E+00 -0.11082088883E+03  0.11082088883E+03  0.00000000000E+00 0.  1.
         25    2    1    2    0    0  0.35784542413E+02  0.10421103857E+02  0.20432911935E+01  0.13045389478E+03  0.12499964297E+03 0.  0.
         25    2    1    2    0    0 -0.35784542413E+02 -0.10421103857E+02  0.44633266208E+02  0.13786444027E+03  0.12500137022E+03 0.  0.
          5    1    3    3  501    0 -0.12070585556E+02 -0.50368514635E+02  0.84149866916E+01  0.52683852396E+02  0.47000000000E+01 0. -1.
         -5    1    3    3    0  501  0.47855127969E+02  0.60789618492E+02 -0.63716954981E+01  0.77770042387E+02  0.47000000000E+01 0. -1.
          5    1    4    4  502    0  0.22985334450E+02  0.20254403958E+01  0.68969411412E+02  0.72878650640E+02  0.47000000000E+01 0. -1.
         -5    1    4    4    0  502 -0.58769876863E+02 -0.12446544253E+02 -0.24336145204E+02  0.64985789629E+02  0.47000000000E+01 0. -1.
<mgrwt>
<rscale>  0 0.26422723E+03</rscale>
<asrwt>0</asrwt>
<pdfrwt beam="1">  1       21 0.24230377E-01 0.26422723E+03</pdfrwt>
<pdfrwt beam="2">  1       21 0.17049367E-01 0.26422723E+03</pdfrwt>
<totfact> 0.49204783E+05</totfact>
</mgrwt>
</event>
<event>
 8    1  0.9123825E-006  0.3326681E+03  0.7546771E-02  0.1069962E+00
         21   -1    0    0  504  503  0.00000000000E+00  0.00000000000E+00  0.15918023075E+02  0.15918023075E+02  0.00000000000E+00 0. -1.
         21   -1    0    0  503  504 -0.00000000000E+00 -0.00000000000E+00 -0.17380942047E+04  0.17380942047E+04  0.00000000000E+00 0. -1.
         25    2    1    2    0    0  0.10801359976E+03 -0.12095552673E+02 -0.94081326960E+03  0.95528439059E+03  0.12500167409E+03 0.  0.
         25    2    1    2    0    0 -0.10801359976E+03  0.12095552673E+02 -0.78136291203E+03  0.79872783719E+03  0.12499966989E+03 0.  0.
          5    1    3    3  501    0  0.10646464405E+03  0.11538614078E+02 -0.90923681834E+03  0.91553347393E+03  0.47000000000E+01 0. -1.
         -5    1    3    3    0  501  0.15489557085E+01 -0.23634166751E+02 -0.31576451258E+02  0.39750916667E+02  0.47000000000E+01 0. -1.
          5    1    4    4  502    0 -0.11990533109E+02 -0.38770035548E+02 -0.89695216944E+02  0.98560694413E+02  0.47000000000E+01 0. -1.
         -5    1    4    4    0  502 -0.96023066654E+02  0.50865588220E+02 -0.69166769509E+03  0.70016714277E+03  0.47000000000E+01 0. -1.
<mgrwt>
<rscale>  0 0.33266814E+03</rscale>
<asrwt>0</asrwt>
<pdfrwt beam="1">  1       21 0.24489274E-02 0.33266814E+03</pdfrwt>
<pdfrwt beam="2">  1       21 0.26739902E+00 0.33266814E+03</pdfrwt>
<totfact> 0.42567363E+04</totfact>
</mgrwt>
</event>
<event>
 8    1  0.9123825E-006  0.2925382E+03  0.7546771E-02  0.1089031E+00
         21   -1    0    0  504  503  0.00000000000E+00  0.00000000000E+00  0.20099196150E+02  0.20099196150E+02  0.00000000000E+00 0.  1.
         21   -1    0    0  503  504 -0.00000000000E+00 -0.00000000000E+00 -0.10644532263E+04  0.10644532263E+04  0.00000000000E+00 0.  1.
         25    2    1    2    0    0 -0.33189153079E+01 -0.75715785715E+02 -0.50314818510E+03  0.52395349726E+03  0.12500110288E+03 0.  0.
         25    2    1    2    0    0  0.33189153079E+01  0.75715785715E+02 -0.54120584510E+03  0.56059892523E+03  0.12499397105E+03 0.  0.
          5    1    3    3  501    0 -0.28912496454E+02  0.22443503748E+02 -0.22159787095E+03  0.22464939288E+03  0.47000000000E+01 0. -1.
         -5    1    3    3    0  501  0.25593581146E+02 -0.98159289463E+02 -0.28155031415E+03  0.29930410439E+03  0.47000000000E+01 0. -1.
          5    1    4    4  502    0  0.11417619824E+02  0.53459712456E+01  0.12545250501E+01  0.13513152264E+02  0.47000000000E+01 0.  1.
         -5    1    4    4    0  502 -0.80987045163E+01  0.70369814469E+02 -0.54246037015E+03  0.54708577297E+03  0.47000000000E+01 0.  1.
<mgrwt>
<rscale>  0 0.29253823E+03</rscale>
<asrwt>0</asrwt>
<pdfrwt beam="1">  1       21 0.30921837E-02 0.29253823E+03</pdfrwt>
<pdfrwt beam="2">  1       21 0.16376205E+00 0.29253823E+03</pdfrwt>
<totfact> 0.13659737E+05</totfact>
</mgrwt>
</event>
<event>
 8    1  0.9123825E-006  0.4536837E+03  0.7546771E-02  0.1026629E+00
         21   -1    0    0  504  503  0.00000000000E+00  0.00000000000E+00  0.38674808469E+02  0.38674808469E+02  0.00000000000E+00 0.  1.
         21   -1    0    0  503  504 -0.00000000000E+00 -0.00000000000E+00 -0.13305102714E+04  0.13305102714E+04  0.00000000000E+00 0.  1.
         25    2    1    2    0    0 -0.10634470069E+03 -0.11283611363E+03 -0.31823878401E+03  0.37542631916E+03  0.12501125378E+03 0.  0.
         25    2    1    2    0    0  0.10634470069E+03  0.11283611363E+03 -0.97359667894E+03  0.99375876072E+03  0.12499918944E+03 0.  0.
          5    1    3    3  501    0 -0.49961937020E+02  0.14125719691E+02 -0.14003365327E+03  0.14942304091E+03  0.47000000000E+01 0.  1.
         -5    1    3    3    0  501 -0.56382763671E+02 -0.12696183332E+03 -0.17820513074E+03  0.22600327826E+03  0.47000000000E+01 0.  1.
          5    1    4    4  502    0  0.75134765402E+02 -0.28532840454E+01 -0.28448164341E+03  0.29428773274E+03  0.47000000000E+01 0.  1.
         -5    1    4    4    0  502  0.31209935289E+02  0.11568939768E+03 -0.68911503553E+03  0.69947102798E+03  0.47000000000E+01 0.  1.
<mgrwt>
<rscale>  0 0.45368372E+03</rscale>
<asrwt>0</asrwt>
<pdfrwt beam="1">  1       21 0.59499700E-02 0.45368372E+03</pdfrwt>
<pdfrwt beam="2">  1       21 0.20469391E+00 0.45368372E+03</pdfrwt>
<totfact> 0.22086649E+04</totfact>
</mgrwt>
</event>
<event>
 8    1  0.9123825E-006  0.2527172E+03  0.7546771E-02  0.1111600E+00
         21   -1    0    0  504  503  0.00000000000E+00  0.00000000000E+00  0.24103713814E+03  0.24103713814E+03  0.00000000000E+00 0. -1.
         21   -1    0    0  503  504 -0.00000000000E+00 -0.00000000000E+00 -0.66240802925E+02  0.66240802925E+02  0.00000000000E+00 0. -1.
         25    2    1    2    0    0 -0.73104196427E+00 -0.15244318616E+01  0.65023506769E+02  0.14091112637E+03  0.12500012315E+03 0.  0.
         25    2    1    2    0    0  0.73104196427E+00  0.15244318616E+01  0.10977282844E+03  0.16636681470E+03  0.12499993941E+03 0.  0.
          5    1    3    3  501    0 -0.14024275724E+02  0.33353470463E+01  0.10091331473E+03  0.10204602853E+03  0.47000000000E+01 0. -1.
         -5    1    3    3    0  501  0.13293233760E+02 -0.48597789080E+01 -0.35889807956E+02  0.38865097838E+02  0.47000000000E+01 0. -1.
          5    1    4    4  502    0  0.49861959076E+02 -0.36297280490E+02  0.44360080934E+02  0.76115795433E+02  0.47000000000E+01 0.  1.
         -5    1    4    4    0  502 -0.49130917112E+02  0.37821712352E+02  0.65412747511E+02  0.90251019265E+02  0.47000000000E+01 0.  1.
<mgrwt>
<rscale>  0 0.25271718E+03</rscale>
<asrwt>0</asrwt>
<pdfrwt beam="1">  1       21 0.37082636E-01 0.25271718E+03</pdfrwt>
<pdfrwt beam="2">  1       21 0.10190893E-01 0.25271718E+03</pdfrwt>
<totfact> 0.54417753E+05</totfact>
</mgrwt>
</event>
<event>
 8    1  0.9123825E-006  0.3946407E+03  0.7546771E-02  0.1045651E+00
         21   -1    0    0  504  503  0.00000000000E+00  0.00000000000E+00  0.22900137009E+04  0.22900137009E+04  0.00000000000E+00 0. -1.
         21   -1    0    0  503  504 -0.00000000000E+00 -0.00000000000E+00 -0.17002221041E+02  0.17002221041E+02  0.00000000000E+00 0. -1.
         25    2    1    2    0    0  0.11429260590E+03 -0.44626804412E+02  0.16676675021E+04  0.16768407996E+04  0.12500327236E+03 0.  0.
         25    2    1    2    0    0 -0.11429260590E+03  0.44626804412E+02  0.60534397773E+03  0.63017512235E+03  0.12500000804E+03 0.  0.
          5    1    3    3  501    0  0.75072437201E+02  0.21072914028E+02  0.44744264848E+03  0.45421025110E+03  0.47000000000E+01 0.  1.
         -5    1    3    3    0  501  0.39220168701E+02 -0.65699718440E+02  0.12202248537E+04  0.12226305485E+04  0.47000000000E+01 0.  1.
          5    1    4    4  502    0 -0.28355212617E+02  0.77759568447E+02  0.29244776214E+03  0.30397097254E+03  0.47000000000E+01 0.  1.
         -5    1    4    4    0  502 -0.85937393285E+02 -0.33132764034E+02  0.31289621560E+03  0.32620414981E+03  0.47000000000E+01 0.  1.
<mgrwt>
<rscale>  0 0.39464069E+03</rscale>
<asrwt>0</asrwt>
<pdfrwt beam="1">  1       21 0.35230956E+00 0.39464069E+03</pdfrwt>
<pdfrwt beam="2">  1       21 0.26157281E-02 0.39464069E+03</pdfrwt>
<totfact> 0.11455622E+04</totfact>
</mgrwt>
</event>
<event>
 8    1  0.9123825E-006  0.2894175E+03  0.7546771E-02  0.1090654E+00
         21   -1    0    0  504  503  0.00000000000E+00  0.00000000000E+00  0.39935162727E+03  0.39935162727E+03  0.00000000000E+00 0. -1.
         21   -1    0    0  503  504 -0.00000000000E+00 -0.00000000000E+00 -0.52436551803E+02  0.52436551803E+02  0.00000000000E+00 0. -1.
         25    2    1    2    0    0  0.18701957230E+01  0.55706459910E+02  0.10008646522E+03  0.16955490933E+03  0.12499943780E+03 0.  0.
         25    2    1    2    0    0 -0.18701957230E+01 -0.55706459910E+02  0.24682861025E+03  0.28223326974E+03  0.12499819360E+03 0.  0.
          5    1    3    3  501    0  0.62287911916E+02  0.40263956862E+02  0.53374243559E+02  0.91497923848E+02  0.47000000000E+01 0. -1.
         -5    1    3    3    0  501 -0.60417716193E+02  0.15442503048E+02  0.46712221658E+02  0.78056985483E+02  0.47000000000E+01 0. -1.
          5    1    4    4  502    0  0.97350748196E+01  0.12279914768E+01  0.21602768241E+03  0.21630147760E+03  0.47000000000E+01 0.  1.
         -5    1    4    4    0  502 -0.11605270543E+02 -0.56934451387E+02  0.30800927839E+02  0.65931792140E+02  0.47000000000E+01 0.  1.
<mgrwt>
<rscale>  0 0.28941750E+03</rscale>
<asrwt>0</asrwt>
<pdfrwt beam="1">  1       21 0.61438710E-01 0.28941750E+03</pdfrwt>
<pdfrwt beam="2">  1       21 0.80671621E-02 0.28941750E+03</pdfrwt>
<totfact> 0.28428698E+05</totfact>
</mgrwt>
</event>
<event>
 8    1  0.9123825E-006  0.2589937E+03  0.7546771E-02  0.1107749E+00
         21   -1    0    0  504  503  0.00000000000E+00  0.00000000000E+00  0.15118532247E+03  0.15118532247E+03  0.00000000000E+00 0.  1.
         21   -1    0    0  503  504 -0.00000000000E+00 -0.00000000000E+00 -0.11091976494E+03  0.11091976494E+03  0.00000000000E+00 0.  1.
         25    2    1    2    0    0  0.12176540484E+02 -0.25271256225E+01  0.51971170579E+02  0.13594988422E+03  0.12500685559E+03 0.  0.
         25    2    1    2    0    0 -0.12176540484E+02  0.25271256225E+01 -0.11705613050E+02  0.12615520320E+03  0.12499383751E+03 0.  0.
          5    1    3    3  501    0 -0.15047603333E+02 -0.18095973406E+02  0.86088164701E+02  0.89370894150E+02  0.47000000000E+01 0. -1.
         -5    1    3    3    0  501  0.27224143817E+02  0.15568847783E+02 -0.34116994122E+02  0.46578990068E+02  0.47000000000E+01 0. -1.
          5    1    4    4  502    0 -0.45060389177E+02 -0.47414255115E+02 -0.79244170231E+01  0.66056314202E+02  0.47000000000E+01 0. -1.
         -5    1    4    4    0  502  0.32883848693E+02  0.49941380737E+02 -0.37811960265E+01  0.60098888993E+02  0.47000000000E+01 0. -1.
<mgrwt>
<rscale>  0 0.25899375E+03</rscale>
<asrwt>0</asrwt>
<pdfrwt beam="1">  1       21 0.23259280E-01 0.25899375E+03</pdfrwt>
<pdfrwt beam="2">  1       21 0.17064579E-01 0.25899375E+03</pdfrwt>
<totfact> 0.53168437E+05</totfact>
</mgrwt>
</event>
<event>
 8    1  0.9123825E-006  0.3885077E+03  0.7546771E-02  0.1047833E+00
         21   -1    0    0  504  503  0.00000000000E+00  0.00000000000E+00  0.11984551442E+03  0.11984551442E+03  0.00000000000E+00 0.  1.
         21   -1    0    0  503  504 -0.00000000000E+00 -0.00000000000E+00 -0.31486005628E+03  0.31486005628E+03  0.00000000000E+00 0.  1.
         25    2    1    2    0    0 -0.10405853272E+03 -0.28327876686E+02 -0.21204378822E+03  0.26873528759E+03  0.12500175935E+03 0.  0.
         25    2    1    2    0    0  0.10405853272E+03  0.28327876686E+02  0.17029246364E+02  0.16597028312E+03  0.12500197125E+03 0.  0.
          5    1    3    3  501    0 -0.30224037272E+02  0.29701316835E+02 -0.70607914540E+01  0.43215800661E+02  0.47000000000E+01 0. -1.
         -5    1    3    3    0  501 -0.73834495450E+02 -0.58029193521E+02 -0.20498299677E+03  0.22551948693E+03  0.47000000000E+01 0. -1.
          5    1    4    4  502    0  0.10632163431E+03  0.56669041672E+02  0.42163304414E+02  0.12773215901E+03  0.47000000000E+01 0.  1.
         -5    1    4    4    0  502 -0.22631015851E+01 -0.28341164986E+02 -0.25134058050E+02  0.38238124112E+02  0.47000000000E+01 0.  1.
<mgrwt>
<rscale>  0 0.38850774E+03</rscale>
<asrwt>0</asrwt>
<pdfrwt beam="1">  1       21 0.18437771E-01 0.38850774E+03</pdfrwt>
<pdfrwt beam="2">  1       21 0.48440009E-01 0.38850774E+03</pdfrwt>
<totfact> 0.10325930E+05</totfact>
</mgrwt>
</event>
<event>
 8    1  0.9123825E-006  0.2672477E+03  0.7546771E-02  0.1102865E+00
         21   -1    0    0  504  503  0.00000000000E+00  0.00000000000E+00  0.57265006455E+02  0.57265006455E+02  0.00000000000E+00 0. -1.
         21   -1    0    0  503  504 -0.00000000000E+00 -0.00000000000E+00 -0.31180177429E+03  0.31180177429E+03  0.00000000000E+00 0. -1.
         25    2    1    2    0    0  0.37303358689E+02 -0.21084900677E+02 -0.15478281207E+03  0.20351840055E+03  0.12500362732E+03 0.  0.
         25    2    1    2    0    0 -0.37303358689E+02  0.21084900677E+02 -0.99753955763E+02  0.16554838020E+03  0.12497720148E+03 0.  0.
          5    1    3    3  501    0 -0.37301959179E+02 -0.39763431352E+02 -0.71841346371E+02  0.90309665484E+02  0.47000000000E+01 0.  1.
         -5    1    3    3    0  501  0.74605317869E+02  0.18678530676E+02 -0.82941465702E+02  0.11320873507E+03  0.47000000000E+01 0.  1.
          5    1    4    4  502    0 -0.63360092162E+02  0.42388938738E+02 -0.10634619557E+03  0.13093099984E+03  0.47000000000E+01 0.  1.
         -5    1    4    4    0  502  0.26056733472E+02 -0.21304038062E+02  0.65922398107E+01  0.34617380356E+02  0.47000000000E+01 0.  1.
<mgrwt>
<rscale>  0 0.26724768E+03</rscale>
<asrwt>0</asrwt>
<pdfrwt beam="1">  1       21 0.88100010E-02 0.26724768E+03</pdfrwt>
<pdfrwt beam="2">  1       21 0.47969503E-01 0.26724768E+03</pdfrwt>
<totfact> 0.41443888E+05</totfact>
</mgrwt>
</event>
<event>
 8    1  0.9123825E-006  0.2835873E+03  0.7546771E-02  0.1093746E+00
         21   -1    0    0  504  503  0.00000000000E+00  0.00000000000E+00  0.61025304415E+03  0.61025304415E+03  0.00000000000E+00 0.  1.
         21   -1    0    0  503  504 -0.00000000000E+00 -0.00000000000E+00 -0.32946067593E+02  0.32946067593E+02  0.00000000000E+00 0.  1.
         25    2    1    2    0    0 -0.10287837674E+02 -0.17923839172E+02  0.43302114187E+03  0.45117583893E+03  0.12500089885E+03 0.  0.
         25    2    1    2    0    0  0.10287837674E+02  0.17923839172E+02  0.14428583468E+03  0.19202327281E+03  0.12500972600E+03 0.  0.
          5    1    3    3  501    0 -0.53305290923E+02 -0.48018054272E+02  0.28910441294E+03  0.29791045494E+03  0.47000000000E+01 0. -1.
         -5    1    3    3    0  501  0.43017453249E+02  0.30094215099E+02  0.14391672893E+03  0.15326538400E+03  0.47000000000E+01 0. -1.
          5    1    4    4  502    0  0.55927016091E+02  0.19253455400E+02  0.13166943421E+03  0.14442110850E+03  0.47000000000E+01 0.  1.
         -5    1    4    4    0  502 -0.45639178417E+02 -0.13296162275E+01  0.12616400467E+02  0.47602164307E+02  0.47000000000E+01 0.  1.
<mgrwt>
<rscale>  0 0.28358729E+03</rscale>
<asrwt>0</asrwt>
<pdfrwt beam="1">  1       21 0.93885075E-01 0.28358729E+03</pdfrwt>
<pdfrwt beam="2">  1       21 0.50686262E-02 0.28358729E+03</pdfrwt>
<totfact> 0.24388894E+05</totfact>
</mgrwt>
</event>
<event>
 8    1  0.9123825E-006  0.3381390E+03  0.7546771E-02  0.1067591E+00
         21   -1    0    0  504  503  0.00000000000E+00  0.00000000000E+00  0.14373363862E+03  0.14373363862E+03  0.00000000000E+00 0. -1.
         21   -1    0    0  503  504 -0.00000000000E+00 -0.00000000000E+00 -0.19887130099E+03  0.19887130099E+03  0.00000000000E+00 0. -1.
         25    2    1    2    0    0 -0.19202187697E+02 -0.10571355846E+03 -0.65688629182E+02  0.17743694646E+03  0.12499917404E+03 0.  0.
         25    2    1    2    0    0  0.19202187697E+02  0.10571355846E+03  0.10550966809E+02  0.16516799315E+03  0.12500025042E+03 0.  0.
          5    1    3    3  501    0  0.48753329995E+02 -0.48569123144E+02 -0.37555406633E+01  0.69079960873E+02  0.47000000000E+01 0.  1.
         -5    1    3    3    0  501 -0.67955517691E+02 -0.57144435312E+02 -0.61933088519E+02  0.10835698559E+03  0.47000000000E+01 0.  1.
          5    1    4    4  502    0  0.40319793321E+02  0.55383071725E+02 -0.48919856224E+02  0.84310217057E+02  0.47000000000E+01 0. -1.
         -5    1    4    4    0  502 -0.21117605625E+02  0.50330486731E+02  0.59470823034E+02  0.80857776090E+02  0.47000000000E+01 0. -1.
<mgrwt>
<rscale>  0 0.33813900E+03</rscale>
<asrwt>0</asrwt>
<pdfrwt beam="1">  1       21 0.22112868E-01 0.33813900E+03</pdfrwt>
<pdfrwt beam="2">  1       21 0.30595585E-01 0.33813900E+03</pdfrwt>
<totfact> 0.18884927E+05</totfact>
</mgrwt>
</event>
<event>
 8    1  0.9123825E-006  0.3036738E+03  0.7546771E-02  0.1083418E+00
         21   -1    0    0  504  503  0.00000000000E+00  0.00000000000E+00  0.16794802767E+03  0.16794802767E+03  0.00000000000E+00 0.  1.
         21   -1    0    0  503  504 -0.00000000000E+00 -0.00000000000E+00 -0.13727128954E+03  0.13727128954E+03  0.00000000000E+00 0.  1.
         25    2    1    2    0    0 -0.85995256831E+02 -0.53876367696E+01  0.17678260708E+02  0.15283999155E+03  0.12499332497E+03 0.  0.
         25    2    1    2    0    0  0.85995256831E+02  0.53876367696E+01  0.12998477429E+02  0.15237932566E+03  0.12500515048E+03 0.  0.
          5    1    3    3  501    0  0.23864569606E+02 -0.13871005863E+02  0.30974362885E+02  0.41754324833E+02  0.47000000000E+01 0.  1.
         -5    1    3    3    0  501 -0.10985982644E+03  0.84833690933E+01 -0.13296102177E+02  0.11108566671E+03  0.47000000000E+01 0.  1.
          5    1    4    4  502    0  0.48164139681E+02  0.63787502422E+02 -0.54101478903E+01  0.80249545274E+02  0.47000000000E+01 0. -1.
         -5    1    4    4    0  502  0.37831117150E+02 -0.58399865652E+02  0.18408625319E+02  0.72129780391E+02  0.47000000000E+01 0. -1.
<mgrwt>
<rscale>  0 0.30367379E+03</rscale>
<asrwt>0</asrwt>
<pdfrwt beam="1">  1       21 0.25838158E-01 0.30367379E+03</pdfrwt>
<pdfrwt beam="2">  1       21 0.21118660E-01 0.30367379E+03</pdfrwt>
<totfact> 0.28893050E+05</totfact>
</mgrwt>
</event>
<event>
 8    1  0.9123825E-006  0.2633167E+03  0.7546771E-02  0.1105167E+00
         21   -1    0    0  504  503  0.00000000000E+00  0.00000000000E+00  0.18303798214E+03  0.18303798214E+03  0.00000000000E+00 0.  1.
         21   -1    0    0  503  504 -0.00000000000E+00 -0.00000000000E+00 -0.94701208996E+02  0.94701208996E+02  0.00000000000E+00 0.  1.
         25    2    1    2    0    0 -0.39456575287E+01 -0.12450985660E+02  0.85528392180E+02  0.15202183334E+03  0.12499974675E+03 0.  0.
         25    2    1    2    0    0  0.39456575287E+01  0.12450985660E+02  0.28083809639E+01  0.12571735779E+03  0.12500548704E+03 0.  0.
          5    1    3    3  501    0 -0.31197326970E+02  0.48309171561E+02  0.29155828976E+02  0.64646744932E+02  0.47000000000E+01 0.  1.
         -5    1    3    3    0  501  0.27251669442E+02 -0.60760157221E+02  0.56372563204E+02  0.87375088413E+02  0.47000000000E+01 0.  1.
          5    1    4    4  502    0 -0.52030194075E+02 -0.30095570332E+01  0.31181208402E+02  0.60914335639E+02  0.47000000000E+01 0.  1.
         -5    1    4    4    0  502  0.55975851604E+02  0.15460542693E+02 -0.28372827438E+02  0.64803022151E+02  0.47000000000E+01 0.  1.
<mgrwt>
<rscale>  0 0.26331668E+03</rscale>
<asrwt>0</asrwt>
<pdfrwt beam="1">  1       21 0.28159690E-01 0.26331668E+03</pdfrwt>
<pdfrwt beam="2">  1       21 0.14569417E-01 0.26331668E+03</pdfrwt>
<totfact> 0.49164597E+05</totfact>
</mgrwt>
</event>
<event>
 8    1  0.9123825E-006  0.2785859E+03  0.7546771E-02  0.1096464E+00
         21   -1    0    0  504  503  0.00000000000E+00  0.00000000000E+00  0.59953191436E+02  0.59953191436E+02  0.00000000000E+00 0.  1.
         21   -1    0    0  503  504 -0.00000000000E+00 -0.00000000000E+00 -0.32362798012E+03  0.32362798012E+03  0.00000000000E+00 0.  1.
         25    2    1    2    0    0  0.66127926100E+01  0.50300563358E+02 -0.17969722176E+03  0.22469482400E+03  0.12499118659E+03 0.  0.
         25    2    1    2    0    0 -0.66127926100E+01 -0.50300563358E+02 -0.83977566926E+02  0.15888634755E+03  0.12497505348E+03 0.  0.
          5    1    3    3  501    0  0.60038882594E+02  0.52076871128E+02 -0.12394732903E+03  0.14731496293E+03  0.47000000000E+01 0. -1.
         -5    1    3    3    0  501 -0.53426089984E+02 -0.17763077697E+01 -0.55749892727E+02  0.77379861070E+02  0.47000000000E+01 0. -1.
          5    1    4    4  502    0  0.23064818709E+02 -0.12468340867E+02 -0.10342961161E+03  0.10680458765E+03  0.47000000000E+01 0.  1.
         -5    1    4    4    0  502 -0.29677611319E+02 -0.37832222491E+02  0.19452044683E+02  0.52081759902E+02  0.47000000000E+01 0.  1.
<mgrwt>
<rscale>  0 0.27858593E+03</rscale>
<asrwt>0</asrwt>
<pdfrwt beam="1">  1       21 0.92235677E-02 0.27858593E+03</pdfrwt>
<pdfrwt beam="2">  1       21 0.49788921E-01 0.27858593E+03</pdfrwt>
<totfact> 0.35269135E+05</totfact>
</mgrwt>
</event>
<event>
 8    1  0.9123825E-006  0.3249405E+03  0.7546771E-02  0.1073398E+00
         21   -1    0    0  504  503  0.00000000000E+00  0.00000000000E+00  0.15737929043E+04  0.15737929043E+04  0.00000000000E+00 0.  1.
         21   -1    0    0  503  504 -0.00000000000E+00 -0.00000000000E+00 -0.16772594475E+02  0.16772594475E+02  0.00000000000E+00 0.  1.
         25    2    1    2    0    0 -0.88565993229E+02 -0.36346469282E+02  0.97474804775E+03  0.98738233652E+03  0.12500048361E+03 0.  0.
         25    2    1    2    0    0  0.88565993229E+02  0.36346469282E+02  0.58227226208E+03  0.60318316226E+03  0.12499575614E+03 0.  0.
          5    1    3    3  501    0 -0.11379710489E+03 -0.22641207590E+01  0.66057396341E+03  0.67032451728E+03  0.47000000000E+01 0.  1.
         -5    1    3    3    0  501  0.25231111665E+02 -0.34082348523E+02  0.31417408434E+03  0.31705781925E+03  0.47000000000E+01 0.  1.
          5    1    4    4  502    0  0.26247388821E+02 -0.28804655780E+02  0.37569831702E+03  0.37774323160E+03  0.47000000000E+01 0. -1.
         -5    1    4    4    0  502  0.62318604408E+02  0.65151125062E+02  0.20657394507E+03  0.22543993065E+03  0.47000000000E+01 0. -1.
<mgrwt>
<rscale>  0 0.32494055E+03</rscale>
<asrwt>0</asrwt>
<pdfrwt beam="1">  1       21 0.24212187E+00 0.32494055E+03</pdfrwt>
<pdfrwt beam="2">  1       21 0.25804004E-02 0.32494055E+03</pdfrwt>
<totfact> 0.55629794E+04</totfact>
</mgrwt>
</event>
<event>
 8    1  0.9123825E-006  0.2693427E+03  0.7546771E-02  0.1101656E+00
         21   -1    0    0  504  503  0.00000000000E+00  0.00000000000E+00  0.91700432305E+03  0.91700432305E+03  0.00000000000E+00 0. -1.
         21   -1    0    0  503  504 -0.00000000000E+00 -0.00000000000E+00 -0.19777855565E+02  0.19777855565E+02  0.00000000000E+00 0. -1.
         25    2    1    2    0    0  0.27870765939E+02 -0.35965135197E+02  0.52166065682E+03  0.53835361489E+03  0.12499801294E+03 0.  0.
         25    2    1    2    0    0 -0.27870765939E+02  0.35965135197E+02  0.37556581066E+03  0.39842856373E+03  0.12500148684E+03 0.  0.
          5    1    3    3  501    0  0.74513084069E+02 -0.19781631676E+02  0.23312073552E+03  0.24558273551E+03  0.47000000000E+01 0. -1.
         -5    1    3    3    0  501 -0.46642318131E+02 -0.16183503521E+02  0.28853992130E+03  0.29277087938E+03  0.47000000000E+01 0. -1.
          5    1    4    4  502    0 -0.57290814390E+02  0.11418353962E+02  0.73973427648E+02  0.94375707778E+02  0.47000000000E+01 0. -1.
         -5    1    4    4    0  502  0.29420048451E+02  0.24546781234E+02  0.30159238301E+03  0.30405285595E+03  0.47000000000E+01 0. -1.
<mgrwt>
<rscale>  0 0.26934275E+03</rscale>
<asrwt>0</asrwt>
<pdfrwt beam="1">  1       21 0.14107756E+00 0.26934275E+03</pdfrwt>
<pdfrwt beam="2">  1       21 0.30427477E-02 0.26934275E+03</pdfrwt>
<totfact> 0.21104816E+05</totfact>
</mgrwt>
</event>
<event>
 8    1  0.9123825E-006  0.2992154E+03  0.7546771E-02  0.1085633E+00
         21   -1    0    0  504  503  0.00000000000E+00  0.00000000000E+00  0.45847316355E+03  0.45847316355E+03  0.00000000000E+00 0.  1.
         21   -1    0    0  503  504 -0.00000000000E+00 -0.00000000000E+00 -0.48819567136E+02  0.48819567136E+02  0.00000000000E+00 0.  1.
         25    2    1    2    0    0 -0.56895903351E+02  0.28195609365E+02  0.11632930007E+03  0.18218397121E+03  0.12500542830E+03 0.  0.
         25    2    1    2    0    0  0.56895903351E+02 -0.28195609365E+02  0.29332429635E+03  0.32510875948E+03  0.12499770582E+03 0.  0.
          5    1    3    3  501    0 -0.37322530290E+02 -0.14904200337E+02  0.12712194322E+03  0.13340609020E+03  0.47000000000E+01 0.  1.
         -5    1    3    3    0  501 -0.19573373061E+02  0.43099809703E+02 -0.10792643148E+02  0.48777881006E+02  0.47000000000E+01 0.  1.
          5    1    4    4  502    0  0.36149012160E+02  0.31544308928E+02  0.23177892808E+03  0.23673900398E+03  0.47000000000E+01 0.  1.
         -5    1    4    4    0  502  0.20746891190E+02 -0.59739918293E+02  0.61545368271E+02  0.88369755501E+02  0.47000000000E+01 0.  1.
<mgrwt>
<rscale>  0 0.29921538E+03</rscale>
<asrwt>0</asrwt>
<pdfrwt beam="1">  1       21 0.70534330E-01 0.29921538E+03</pdfrwt>
<pdfrwt beam="2">  1       21 0.75107029E-02 0.29921538E+03</pdfrwt>
<totfact> 0.23717800E+05</totfact>
</mgrwt>
</event>
<event>
 8    1  0.9123825E-006  0.2708388E+03  0.7546771E-02  0.1100800E+00
         21   -1    0    0  504  503  0.00000000000E+00  0.00000000000E+00  0.13503625996E+03  0.13503625996E+03  0.00000000000E+00 0.  1.
         21   -1    0    0  503  504 -0.00000000000E+00 -0.00000000000E+00 -0.13580366830E+03  0.13580366830E+03  0.00000000000E+00 0.  1.
         25    2    1    2    0    0  0.49152356624E+02  0.94018095670E+01 -0.14828809165E+02  0.13546257451E+03  0.12500346926E+03 0.  0.
         25    2    1    2    0    0 -0.49152356624E+02 -0.94018095670E+01  0.14061400826E+02  0.13537735374E+03  0.12499982692E+03 0.  0.
          5    1    3    3  501    0 -0.21846420436E+02  0.46489130359E+02  0.76227236613E+01  0.52141166494E+02  0.47000000000E+01 0. -1.
         -5    1    3    3    0  501  0.70998777060E+02 -0.37087320792E+02 -0.22451532827E+02  0.83321408016E+02  0.47000000000E+01 0. -1.
          5    1    4    4  502    0 -0.62602117431E+02  0.45686933974E+02  0.55231464913E+01  0.77839040268E+02  0.47000000000E+01 0. -1.
         -5    1    4    4    0  502  0.13449760807E+02 -0.55088743540E+02  0.85382543344E+01  0.57538313476E+02  0.47000000000E+01 0. -1.
<mgrwt>
<rscale>  0 0.27083884E+03</rscale>
<asrwt>0</asrwt>
<pdfrwt beam="1">  1       21 0.20774809E-01 0.27083884E+03</pdfrwt>
<pdfrwt beam="2">  1       21 0.20892872E-01 0.27083884E+03</pdfrwt>
<totfact> 0.45022121E+05</totfact>
</mgrwt>
</event>
<event>
 8    1  0.9123825E-006  0.3158045E+03  0.7546771E-02  0.1077597E+00
         21   -1    0    0  504  503  0.00000000000E+00  0.00000000000E+00  0.89115332310E+01  0.89115332310E+01  0.00000000000E+00 0.  1.
         21   -1    0    0  503  504 -0.00000000000E+00 -0.00000000000E+00 -0.27978489431E+04  0.27978489431E+04  0.00000000000E+00 0.  1.
         25    2    1    2    0    0  0.88091161816E+02 -0.39370531965E+02 -0.13969176494E+04  0.14058129247E+04  0.12498387284E+03 0.  0.
         25    2    1    2    0    0 -0.88091161816E+02  0.39370531965E+02 -0.13920197604E+04  0.14009475516E+04  0.12499974923E+03 0.  0.
          5    1    3    3  501    0  0.78811753225E+02  0.24829457579E+02 -0.10175925897E+04  0.10209527722E+04  0.47000000000E+01 0.  1.
         -5    1    3    3    0  501  0.92794085909E+01 -0.64199989544E+02 -0.37932505972E+03  0.38486015254E+03  0.47000000000E+01 0.  1.
          5    1    4    4  502    0 -0.11993191202E+03  0.24899949766E+02 -0.10675948968E+04  0.10746090566E+04  0.47000000000E+01 0. -1.
         -5    1    4    4    0  502  0.31840750199E+02  0.14470582198E+02 -0.32442486366E+03  0.32633849494E+03  0.47000000000E+01 0. -1.
<mgrwt>
<rscale>  0 0.31580452E+03</rscale>
<asrwt>0</asrwt>
<pdfrwt beam="1">  1       21 0.13710046E-02 0.31580452E+03</pdfrwt>
<pdfrwt beam="2">  1       21 0.43043847E+00 0.31580452E+03</pdfrwt>
<totfact> 0.11199307E+04</totfact>
</mgrwt>
</event>
<event>
 8    1  0.9123825E-006  0.3121330E+03  0.7546771E-02  0.1079328E+00
         21   -1    0    0  504  503  0.00000000000E+00  0.00000000000E+00  0.15349565356E+03  0.15349565356E+03  0.00000000000E+00 0.  1.
         21   -1    0    0  503  504 -0.00000000000E+00 -0.00000000000E+00 -0.15868035390E+03  0.15868035390E+03  0.00000000000E+00 0.  1.
         25    2    1    2    0    0  0.92879540754E+02  0.89851402512E+01  0.24835313793E+01  0.15600230699E+03  0.12499283988E+03 0.  0.
         25    2    1    2    0    0 -0.92879540754E+02 -0.89851402512E+01 -0.76682317213E+01  0.15617370047E+03  0.12499632437E+03 0.  0.
          5    1    3    3  501    0  0.75328898553E+02 -0.29719882377E+02  0.47431681671E+02  0.93965785219E+02  0.47000000000E+01 0. -1.
         -5    1    3    3    0  501  0.17550642201E+02  0.38705022628E+02 -0.44948150292E+02  0.62036521767E+02  0.47000000000E+01 0. -1.
          5    1    4    4  502    0 -0.11036465456E+03  0.23681428692E+02 -0.23859255369E+02  0.11546653675E+03  0.47000000000E+01 0. -1.
         -5    1    4    4    0  502  0.17485113810E+02 -0.32666568944E+02  0.16191023648E+02  0.40707163722E+02  0.47000000000E+01 0. -1.
<mgrwt>
<rscale>  0 0.31213295E+03</rscale>
<asrwt>0</asrwt>
<pdfrwt beam="1">  1       21 0.23614716E-01 0.31213295E+03</pdfrwt>
<pdfrwt beam="2">  1       21 0.24412362E-01 0.31213295E+03</pdfrwt>
<totfact> 0.26007502E+05</totfact>
</mgrwt>
</event>
<event>
 8    1  0.9123825E-006  0.3747559E+03  0.7546771E-02  0.1052889E+00
         21   -1    0    0  504  503  0.00000000000E+00  0.00000000000E+00  0.58988359031E+03  0.58988359031E+03  0.00000000000E+00 0. -1.
         21   -1    0    0  503  504 -0.00000000000E+00 -0.00000000000E+00 -0.59521067350E+02  0.59521067350E+02  0.00000000000E+00 0. -1.
         25    2    1    2    0    0 -0.18766000835E+02 -0.10836578258E+03  0.41417783215E+03  0.44638672287E+03  0.12499009597E+03 0.  0.
         25    2    1    2    0    0  0.18766000835E+02  0.10836578258E+03  0.11618469080E+03  0.20301793478E+03  0.12498837484E+03 0.  0.
          5    1    3    3  501    0  0.45326708018E+02 -0.62299672406E+02  0.12786538365E+03  0.14935664022E+03  0.47000000000E+01 0. -1.
         -5    1    3    3    0  501 -0.64092708854E+02 -0.46066110169E+02  0.28631244850E+03  0.29703008265E+03  0.47000000000E+01 0. -1.
          5    1    4    4  502    0 -0.44001627514E+02  0.90995216984E+02  0.69895961607E+02  0.12297889326E+03  0.47000000000E+01 0.  1.
         -5    1    4    4    0  502  0.62767628349E+02  0.17370565591E+02  0.46288729195E+02  0.80039041524E+02  0.47000000000E+01 0.  1.
<mgrwt>
<rscale>  0 0.37475593E+03</rscale>
<asrwt>0</asrwt>
<pdfrwt beam="1">  1       21 0.90751318E-01 0.37475593E+03</pdfrwt>
<pdfrwt beam="2">  1       21 0.91570877E-02 0.37475593E+03</pdfrwt>
<totfact> 0.92109110E+04</totfact>
</mgrwt>
</event>
<event>
 8    1  0.9123825E-006  0.3729815E+03  0.7546771E-02  0.1053559E+00
         21   -1    0    0  504  503  0.00000000000E+00  0.00000000000E+00  0.31596618569E+03  0.31596618569E+03  0.00000000000E+00 0.  1.
         21   -1    0    0  503  504 -0.00000000000E+00 -0.00000000000E+00 -0.11007128701E+03  0.11007128701E+03  0.00000000000E+00 0.  1.
         25    2    1    2    0    0 -0.40001969740E+02 -0.12935708432E+03  0.13566189144E+03  0.22882906284E+03  0.12500071344E+03 0.  0.
         25    2    1    2    0    0  0.40001969740E+02  0.12935708432E+03  0.70233007242E+02  0.19720840986E+03  0.12500027506E+03 0.  0.
          5    1    3    3  501    0 -0.74912306753E+02 -0.41663345721E+02  0.41243694471E+02  0.95240854750E+02  0.47000000000E+01 0.  1.
         -5    1    3    3    0  501  0.34910337014E+02 -0.87693738603E+02  0.94418196972E+02  0.13358820809E+03  0.47000000000E+01 0.  1.
          5    1    4    4  502    0  0.50493752233E+02  0.38011660326E+02  0.82819012130E+02  0.10428606861E+03  0.47000000000E+01 0. -1.
         -5    1    4    4    0  502 -0.10491782493E+02  0.91345423998E+02 -0.12586004888E+02  0.92922341255E+02  0.47000000000E+01 0. -1.
<mgrwt>
<rscale>  0 0.37298153E+03</rscale>
<asrwt>0</asrwt>
<pdfrwt beam="1">  1       21 0.48610182E-01 0.37298153E+03</pdfrwt>
<pdfrwt beam="2">  1       21 0.16934044E-01 0.37298153E+03</pdfrwt>
<totfact> 0.12061401E+05</totfact>
</mgrwt>
</event>
<event>
 8    1  0.9123825E-006  0.4982601E+03  0.7546771E-02  0.1014234E+00
         21   -1    0    0  504  503  0.00000000000E+00  0.00000000000E+00  0.60437817229E+02  0.60437817229E+02  0.00000000000E+00 0. -1.
         21   -1    0    0  503  504 -0.00000000000E+00 -0.00000000000E+00 -0.10269360367E+04  0.10269360367E+04  0.00000000000E+00 0. -1.
         25    2    1    2    0    0 -0.74344437834E+02 -0.18670127162E+03 -0.65308074926E+03  0.69464018992E+03  0.12500427252E+03 0.  0.
         25    2    1    2    0    0  0.74344437834E+02  0.18670127162E+03 -0.31341747020E+03  0.39273366399E+03  0.12499903977E+03 0.  0.
          5    1    3    3  501    0  0.33568196532E+02 -0.68639092640E+02 -0.22062093570E+03  0.23352480837E+03  0.47000000000E+01 0. -1.
         -5    1    3    3    0  501 -0.10791263437E+03 -0.11806217898E+03 -0.43245981356E+03  0.46111538155E+03  0.47000000000E+01 0. -1.
          5    1    4    4  502    0  0.82962792947E+02  0.15277435721E+03 -0.31222798504E+03  0.35739506694E+03  0.47000000000E+01 0. -1.
         -5    1    4    4    0  502 -0.86183551125E+01  0.33926914410E+02 -0.11894851605E+01  0.35338597046E+02  0.47000000000E+01 0. -1.
<mgrwt>
<rscale>  0 0.49826006E+03</rscale>
<asrwt>0</asrwt>
<pdfrwt beam="1">  1       21 0.92981258E-02 0.49826006E+03</pdfrwt>
<pdfrwt beam="2">  1       21 0.15799016E+00 0.49826006E+03</pdfrwt>
<totfact> 0.21169913E+04</totfact>
</mgrwt>
</event>
<event>
 8    1  0.9123825E-006  0.2610130E+03  0.7546771E-02  0.1106536E+00
         21   -1    0    0  504  503  0.00000000000E+00  0.00000000000E+00  0.31430364354E+02  0.31430364354E+02  0.00000000000E+00 0. -1.
         21   -1    0    0  503  504 -0.00000000000E+00 -0.00000000000E+00 -0.54189446147E+03  0.54189446147E+03  0.00000000000E+00 0. -1.
         25    2    1    2    0    0  0.97553014010E+01  0.27984330709E+01 -0.33454787643E+03  0.35728240713E+03  0.12500175874E+03 0.  0.
         25    2    1    2    0    0 -0.97553014010E+01 -0.27984330709E+01 -0.17591622069E+03  0.21604241870E+03  0.12499925136E+03 0.  0.
          5    1    3    3  501    0 -0.23816671803E+02  0.12916285269E+02 -0.31626888276E+03  0.31746206148E+03  0.47000000000E+01 0.  1.
         -5    1    3    3    0  501  0.33571973204E+02 -0.10117852198E+02 -0.18278993674E+02  0.39820345649E+02  0.47000000000E+01 0.  1.
          5    1    4    4  502    0 -0.40336071038E+02  0.26879569885E+02 -0.16466886389E+03  0.17171905729E+03  0.47000000000E+01 0.  1.
         -5    1    4    4    0  502  0.30580769638E+02 -0.29678002956E+02 -0.11247356804E+02  0.44323361404E+02  0.47000000000E+01 0.  1.
<mgrwt>
<rscale>  0 0.26101295E+03</rscale>
<asrwt>0</asrwt>
<pdfrwt beam="1">  1       21 0.48354410E-02 0.26101295E+03</pdfrwt>
<pdfrwt beam="2">  1       21 0.83368374E-01 0.26101295E+03</pdfrwt>
<totfact> 0.35041560E+05</totfact>
</mgrwt>
</event>
<event>
 8    1  0.9123825E-006  0.2943752E+03  0.7546771E-02  0.1088087E+00
         21   -1    0    0  504  503  0.00000000000E+00  0.00000000000E+00  0.29751216337E+02  0.29751216337E+02  0.00000000000E+00 0. -1.
         21   -1    0    0  503  504 -0.00000000000E+00 -0.00000000000E+00 -0.72817818694E+03  0.72817818694E+03  0.00000000000E+00 0. -1.
         25    2    1    2    0    0 -0.34710981543E+02  0.67575178426E+02 -0.39183596092E+03  0.41824690618E+03  0.12499518903E+03 0.  0.
         25    2    1    2    0    0  0.34710981543E+02 -0.67575178426E+02 -0.30659100968E+03  0.33968249709E+03  0.12495957201E+03 0.  0.
          5    1    3    3  501    0  0.23829638843E+02  0.69428374222E+02 -0.12514981746E+03  0.14516445035E+03  0.47000000000E+01 0.  1.
         -5    1    3    3    0  501 -0.58540620386E+02 -0.18531957961E+01 -0.26668614347E+03  0.27308245584E+03  0.47000000000E+01 0.  1.
          5    1    4    4  502    0  0.18209594839E+02  0.33293937158E+00 -0.24701569958E+03  0.24773079347E+03  0.47000000000E+01 0.  1.
         -5    1    4    4    0  502  0.16501386704E+02 -0.67908117797E+02 -0.59575310095E+02  0.91951703621E+02  0.47000000000E+01 0.  1.
<mgrwt>
<rscale>  0 0.29437518E+03</rscale>
<asrwt>0</asrwt>
<pdfrwt beam="1">  1       21 0.45771104E-02 0.29437518E+03</pdfrwt>
<pdfrwt beam="2">  1       21 0.11202741E+00 0.29437518E+03</pdfrwt>
<totfact> 0.18897631E+05</totfact>
</mgrwt>
</event>
<event>
 8    1  0.9123825E-006  0.6799818E+03  0.7546771E-02  0.9752092E-01
         21   -1    0    0  504  503  0.00000000000E+00  0.00000000000E+00  0.67672067221E+03  0.67672067221E+03  0.00000000000E+00 0. -1.
         21   -1    0    0  503  504 -0.00000000000E+00 -0.00000000000E+00 -0.17081467585E+03  0.17081467585E+03  0.00000000000E+00 0. -1.
         25    2    1    2    0    0 -0.12538085600E+03  0.52343349183E+02 -0.10289079508E+03  0.21135618522E+03  0.12499894426E+03 0.  0.
         25    2    1    2    0    0  0.12538085600E+03 -0.52343349183E+02  0.60879679143E+03  0.63617916283E+03  0.12502083312E+03 0.  0.
          5    1    3    3  501    0 -0.66405076484E+02  0.51274936787E+01  0.17611835245E+02  0.69052097107E+02  0.47000000000E+01 0.  1.
         -5    1    3    3    0  501 -0.58975779512E+02  0.47215855504E+02 -0.12050263032E+03  0.14230408812E+03  0.47000000000E+01 0.  1.
          5    1    4    4  502    0  0.84533630247E+02 -0.86515578679E+02  0.50638356685E+03  0.52065082999E+03  0.47000000000E+01 0.  1.
         -5    1    4    4    0  502  0.40847225748E+02  0.34172229496E+02  0.10241322458E+03  0.11552833284E+03  0.47000000000E+01 0.  1.
<mgrwt>
<rscale>  0 0.67998183E+03</rscale>
<asrwt>0</asrwt>
<pdfrwt beam="1">  1       21 0.10411087E+00 0.67998183E+03</pdfrwt>
<pdfrwt beam="2">  1       21 0.26279181E-01 0.67998183E+03</pdfrwt>
<totfact> 0.86142372E+03</totfact>
</mgrwt>
</event>
<event>
 8    1  0.9123825E-006  0.2956130E+03  0.7546771E-02  0.1087454E+00
         21   -1    0    0  504  503  0.00000000000E+00  0.00000000000E+00  0.57002551346E+03  0.57002551346E+03  0.00000000000E+00 0.  1.
         21   -1    0    0  503  504 -0.00000000000E+00 -0.00000000000E+00 -0.38325931790E+02  0.38325931790E+02  0.00000000000E+00 0.  1.
         25    2    1    2    0    0 -0.49328863395E+01 -0.61383913970E+02  0.16442634676E+03  0.21552924052E+03  0.12499804698E+03 0.  0.
         25    2    1    2    0    0  0.49328863395E+01  0.61383913970E+02  0.36727323492E+03  0.39282220474E+03  0.12500934839E+03 0.  0.
          5    1    3    3  501    0  0.31564077229E+02 -0.74961392742E+02  0.15512523878E+03  0.17521823843E+03  0.47000000000E+01 0. -1.
         -5    1    3    3    0  501 -0.36496963569E+02  0.13577478773E+02  0.93011079789E+01  0.40311002086E+02  0.47000000000E+01 0. -1.
          5    1    4    4  502    0  0.31854188244E+02  0.71527395728E+02  0.11702691546E+03  0.14088380528E+03  0.47000000000E+01 0. -1.
         -5    1    4    4    0  502 -0.26921301905E+02 -0.10143481758E+02  0.25024631945E+03  0.25193839945E+03  0.47000000000E+01 0. -1.
<mgrwt>
<rscale>  0 0.29561298E+03</rscale>
<asrwt>0</asrwt>
<pdfrwt beam="1">  1       21 0.87696227E-01 0.29561298E+03</pdfrwt>
<pdfrwt beam="2">  1       21 0.58962976E-02 0.29561298E+03</pdfrwt>
<totfact> 0.22005619E+05</totfact>
</mgrwt>
</event>
<event>
 8    1  0.9123825E-006  0.2636884E+03  0.7546771E-02  0.1104947E+00
         21   -1    0    0  504  503  0.00000000000E+00  0.00000000000E+00  0.40450459136E+02  0.40450459136E+02  0.00000000000E+00 0.  1.
         21   -1    0    0  503  504 -0.00000000000E+00 -0.00000000000E+00 -0.42973286062E+03  0.42973286062E+03  0.00000000000E+00 0.  1.
         25    2    1    2    0    0  0.22115656974E+02  0.35358775922E+02 -0.20192448147E+03  0.24111884996E+03  0.12500183307E+03 0.  0.
         25    2    1    2    0    0 -0.22115656974E+02 -0.35358775922E+02 -0.18735792001E+03  0.22906446980E+03  0.12501278260E+03 0.  0.
          5    1    3    3  501    0  0.30516187253E+02  0.37428344550E+01  0.50613892976E+01  0.31511175095E+02  0.47000000000E+01 0.  1.
         -5    1    3    3    0  501 -0.84005302791E+01  0.31615941467E+02 -0.20698587077E+03  0.20960767486E+03  0.47000000000E+01 0.  1.
          5    1    4    4  502    0  0.42522866810E+02  0.14276946224E+02 -0.98882712960E+02  0.10868259436E+03  0.47000000000E+01 0. -1.
         -5    1    4    4    0  502 -0.64638523785E+02 -0.49635722145E+02 -0.88475207051E+02  0.12038187543E+03  0.47000000000E+01 0. -1.
<mgrwt>
<rscale>  0 0.26368839E+03</rscale>
<asrwt>0</asrwt>
<pdfrwt beam="1">  1       21 0.62231473E-02 0.26368839E+03</pdfrwt>
<pdfrwt beam="2">  1       21 0.66112750E-01 0.26368839E+03</pdfrwt>
<totfact> 0.38261155E+05</totfact>
</mgrwt>
</event>
<event>
 8    1  0.9123825E-006  0.3388147E+03  0.7546771E-02  0.1067302E+00
         21   -1    0    0  504  503  0.00000000000E+00  0.00000000000E+00  0.51114522276E+02  0.51114522276E+02  0.00000000000E+00 0. -1.
         21   -1    0    0  503  504 -0.00000000000E+00 -0.00000000000E+00 -0.56146180059E+03  0.56146180059E+03  0.00000000000E+00 0. -1.
         25    2    1    2    0    0  0.27462012630E+02 -0.31652045005E+02 -0.44751475881E+03  0.46653018373E+03  0.12499975555E+03 0.  0.
         25    2    1    2    0    0 -0.27462012630E+02  0.31652045005E+02 -0.62832519509E+02  0.14604613914E+03  0.12500214062E+03 0.  0.
          5    1    3    3  501    0 -0.39097235041E+01  0.27861564171E+02 -0.32849896465E+03  0.32973506406E+03  0.47000000000E+01 0. -1.
         -5    1    3    3    0  501  0.31371736134E+02 -0.59513609175E+02 -0.11901579416E+03  0.13679511967E+03  0.47000000000E+01 0. -1.
          5    1    4    4  502    0  0.24162480022E+02 -0.72239521134E+01  0.25714931292E+02  0.36322976424E+02  0.47000000000E+01 0.  1.
         -5    1    4    4    0  502 -0.51624492652E+02  0.38875997118E+02 -0.88547450801E+02  0.10972316272E+03  0.47000000000E+01 0.  1.
<mgrwt>
<rscale>  0 0.33881471E+03</rscale>
<asrwt>0</asrwt>
<pdfrwt beam="1">  1       21 0.78637726E-02 0.33881471E+03</pdfrwt>
<pdfrwt beam="2">  1       21 0.86378740E-01 0.33881471E+03</pdfrwt>
<totfact> 0.13658701E+05</totfact>
</mgrwt>
</event>
<event>
 8    1  0.9123825E-006  0.2737127E+03  0.7546771E-02  0.1099173E+00
         21   -1    0    0  504  503  0.00000000000E+00  0.00000000000E+00  0.17716319839E+04  0.17716319839E+04  0.00000000000E+00 0.  1.
         21   -1    0    0  503  504 -0.00000000000E+00 -0.00000000000E+00 -0.10571979054E+02  0.10571979054E+02  0.00000000000E+00 0.  1.
         25    2    1    2    0    0  0.28082842640E+02 -0.45147266014E+02  0.98903922451E+03  0.99832385598E+03  0.12500004846E+03 0.  0.
         25    2    1    2    0    0 -0.28082842640E+02  0.45147266014E+02  0.77202078035E+03  0.78388010699E+03  0.12500006065E+03 0.  0.
          5    1    3    3  501    0 -0.14277763186E+02  0.13183400103E+02  0.27107964927E+02  0.33683650668E+02  0.47000000000E+01 0. -1.
         -5    1    3    3    0  501  0.42360605826E+02 -0.58330666116E+02  0.96193125958E+03  0.96464020531E+03  0.47000000000E+01 0. -1.
          5    1    4    4  502    0 -0.48901861627E+02  0.48668228920E+02  0.20313279112E+03  0.21458100896E+03  0.47000000000E+01 0. -1.
         -5    1    4    4    0  502  0.20819018987E+02 -0.35209629069E+01  0.56888798923E+03  0.56929909803E+03  0.47000000000E+01 0. -1.
<mgrwt>
<rscale>  0 0.27371267E+03</rscale>
<asrwt>0</asrwt>
<pdfrwt beam="1">  1       21 0.27255853E+00 0.27371267E+03</pdfrwt>
<pdfrwt beam="2">  1       21 0.16264597E-02 0.27371267E+03</pdfrwt>
<totfact> 0.80120318E+04</totfact>
</mgrwt>
</event>
<event>
 8    1  0.9123825E-006  0.2681360E+03  0.7546771E-02  0.1102351E+00
         21   -1    0    0  504  503  0.00000000000E+00  0.00000000000E+00  0.21559587959E+03  0.21559587959E+03  0.00000000000E+00 0. -1.
         21   -1    0    0  503  504 -0.00000000000E+00 -0.00000000000E+00 -0.83370028414E+02  0.83370028414E+02  0.00000000000E+00 0. -1.
         25    2    1    2    0    0  0.70889403191E+01 -0.44118353708E+02  0.45184762445E+02  0.14022650311E+03  0.12500050883E+03 0.  0.
         25    2    1    2    0    0 -0.70889403191E+01  0.44118353708E+02  0.87041088730E+02  0.15873940490E+03  0.12500146131E+03 0.  0.
          5    1    3    3  501    0 -0.13415576958E+02  0.38905270315E+02 -0.37417739752E+01  0.41589525555E+02  0.47000000000E+01 0. -1.
         -5    1    3    3    0  501  0.20504517277E+02 -0.83023624023E+02  0.48926536420E+02  0.98636977553E+02  0.47000000000E+01 0. -1.
          5    1    4    4  502    0 -0.26045891153E+02 -0.58965939908E+01  0.99911216254E+02  0.10352535631E+03  0.47000000000E+01 0.  1.
         -5    1    4    4    0  502  0.18956950834E+02  0.50014947698E+02 -0.12870127524E+02  0.55214048581E+02  0.47000000000E+01 0.  1.
<mgrwt>
<rscale>  0 0.26813604E+03</rscale>
<asrwt>0</asrwt>
<pdfrwt beam="1">  1       21 0.33168597E-01 0.26813604E+03</pdfrwt>
<pdfrwt beam="2">  1       21 0.12826158E-01 0.26813604E+03</pdfrwt>
<totfact> 0.44887323E+05</totfact>
</mgrwt>
</event>
<event>
 8    1  0.9123825E-006  0.6567840E+03  0.7546771E-02  0.9794132E-01
         21   -1    0    0  504  503  0.00000000000E+00  0.00000000000E+00  0.17331824199E+04  0.17331824199E+04  0.00000000000E+00 0.  1.
         21   -1    0    0  503  504 -0.00000000000E+00 -0.00000000000E+00 -0.62221559556E+02  0.62221559556E+02  0.00000000000E+00 0.  1.
         25    2    1    2    0    0 -0.21296813732E+03 -0.52960114072E+02  0.14092440195E+04  0.14316963626E+04  0.12500226718E+03 0.  0.
         25    2    1    2    0    0  0.21296813732E+03  0.52960114072E+02  0.26171684085E+03  0.36370761693E+03  0.12500929818E+03 0.  0.
          5    1    3    3  501    0 -0.74971708137E+01 -0.20778296806E+02  0.43033452979E+03  0.43092672546E+03  0.47000000000E+01 0.  1.
         -5    1    3    3    0  501 -0.20547096651E+03 -0.32181817267E+02  0.97890948973E+03  0.10007696371E+04  0.47000000000E+01 0.  1.
          5    1    4    4  502    0  0.22063936181E+02 -0.12525198152E+02 -0.78101761271E+01  0.26958982171E+02  0.47000000000E+01 0.  1.
         -5    1    4    4    0  502  0.19090420114E+03  0.65485312225E+02  0.26952701698E+03  0.33674863476E+03  0.47000000000E+01 0.  1.
<mgrwt>
<rscale>  0 0.65678402E+03</rscale>
<asrwt>0</asrwt>
<pdfrwt beam="1">  1       21 0.26664341E+00 0.65678402E+03</pdfrwt>
<pdfrwt beam="2">  1       21 0.95725490E-02 0.65678402E+03</pdfrwt>
<totfact> 0.36181191E+03</totfact>
</mgrwt>
</event>
<event>
 8    1  0.9123825E-006  0.3135971E+03  0.7546771E-02  0.1078634E+00
         21   -1    0    0  504  503  0.00000000000E+00  0.00000000000E+00  0.49375812217E+03  0.49375812217E+03  0.00000000000E+00 0.  1.
         21   -1    0    0  503  504 -0.00000000000E+00 -0.00000000000E+00 -0.49793162505E+02  0.49793162505E+02  0.00000000000E+00 0.  1.
         25    2    1    2    0    0  0.77535167137E+02 -0.43493615514E+02  0.16559270114E+03  0.22571819273E+03  0.12499745247E+03 0.  0.
         25    2    1    2    0    0 -0.77535167137E+02  0.43493615514E+02  0.27837225852E+03  0.31783309194E+03  0.12499345297E+03 0.  0.
          5    1    3    3  501    0  0.43766225307E+02 -0.84637584793E+02  0.13102913328E+03  0.16207938489E+03  0.47000000000E+01 0.  1.
         -5    1    3    3    0  501  0.33768941830E+02  0.41143969280E+02  0.34563567865E+02  0.63638807845E+02  0.47000000000E+01 0.  1.
          5    1    4    4  502    0 -0.67226207252E+02  0.85763270147E+02  0.18607028463E+03  0.21568250339E+03  0.47000000000E+01 0. -1.
         -5    1    4    4    0  502 -0.10308959885E+02 -0.42269654634E+02  0.92301973896E+02  0.10215058855E+03  0.47000000000E+01 0. -1.
<mgrwt>
<rscale>  0 0.31359706E+03</rscale>
<asrwt>0</asrwt>
<pdfrwt beam="1">  1       21 0.75962785E-01 0.31359706E+03</pdfrwt>
<pdfrwt beam="2">  1       21 0.76604869E-02 0.31359706E+03</pdfrwt>
<totfact> 0.19328518E+05</totfact>
</mgrwt>
</event>
<event>
 8    1  0.9123825E-006  0.4174991E+03  0.7546771E-02  0.1037883E+00
         21   -1    0    0  504  503  0.00000000000E+00  0.00000000000E+00  0.47468777449E+02  0.47468777449E+02  0.00000000000E+00 0.  1.
         21   -1    0    0  503  504 -0.00000000000E+00 -0.00000000000E+00 -0.91800098602E+03  0.91800098602E+03  0.00000000000E+00 0.  1.
         25    2    1    2    0    0 -0.16275854048E+03  0.30279328959E+02 -0.48922558938E+03  0.53138913455E+03  0.12500221896E+03 0.  0.
         25    2    1    2    0    0  0.16275854048E+03 -0.30279328959E+02 -0.38130661919E+03  0.43408062892E+03  0.12499629718E+03 0.  0.
          5    1    3    3  501    0 -0.17674104415E+03  0.45430239867E+02 -0.46308754451E+03  0.49776848761E+03  0.47000000000E+01 0. -1.
         -5    1    3    3    0  501  0.13982503673E+02 -0.15150910909E+02 -0.26138044876E+02  0.33620646934E+02  0.47000000000E+01 0. -1.
          5    1    4    4  502    0  0.11927869912E+03 -0.41124170852E+02 -0.13966374554E+03  0.18827282680E+03  0.47000000000E+01 0.  1.
         -5    1    4    4    0  502  0.43479841360E+02  0.10844841893E+02 -0.24164287365E+03  0.24580780213E+03  0.47000000000E+01 0.  1.
<mgrwt>
<rscale>  0 0.41749915E+03</rscale>
<asrwt>0</asrwt>
<pdfrwt beam="1">  1       21 0.73028893E-02 0.41749915E+03</pdfrwt>
<pdfrwt beam="2">  1       21 0.14123091E+00 0.41749915E+03</pdfrwt>
<totfact> 0.45056742E+04</totfact>
</mgrwt>
</event>
<event>
 8    1  0.9123825E-006  0.2623336E+03  0.7546771E-02  0.1105749E+00
         21   -1    0    0  504  503  0.00000000000E+00  0.00000000000E+00  0.13769718861E+03  0.13769718861E+03  0.00000000000E+00 0.  1.
         21   -1    0    0  503  504 -0.00000000000E+00 -0.00000000000E+00 -0.12494611477E+03  0.12494611477E+03  0.00000000000E+00 0.  1.
         25    2    1    2    0    0 -0.91715007630E+01  0.25367616804E+02  0.35632550538E+02  0.13273443598E+03  0.12498447675E+03 0.  0.
         25    2    1    2    0    0  0.91715007630E+01 -0.25367616804E+02 -0.22881476701E+02  0.12990886740E+03  0.12500047777E+03 0.  0.
          5    1    3    3  501    0 -0.51822012480E+02 -0.27778738607E+02  0.22772043178E+02  0.63228437009E+02  0.47000000000E+01 0. -1.
         -5    1    3    3    0  501  0.42650511717E+02  0.53146355411E+02  0.12860507360E+02  0.69505998969E+02  0.47000000000E+01 0. -1.
          5    1    4    4  502    0  0.35394239313E+02 -0.59136683136E+02 -0.44091194438E+02  0.81951344686E+02  0.47000000000E+01 0. -1.
         -5    1    4    4    0  502 -0.26222738550E+02  0.33769066333E+02  0.21209717737E+02  0.47957522711E+02  0.47000000000E+01 0. -1.
<mgrwt>
<rscale>  0 0.26233359E+03</rscale>
<asrwt>0</asrwt>
<pdfrwt beam="1">  1       21 0.21184183E-01 0.26233359E+03</pdfrwt>
<pdfrwt beam="2">  1       21 0.19222479E-01 0.26233359E+03</pdfrwt>
<totfact> 0.50835158E+05</totfact>
</mgrwt>
</event>
<event>
 8    1  0.9123825E-006  0.4157114E+03  0.7546771E-02  0.1038471E+00
         21   -1    0    0  504  503  0.00000000000E+00  0.00000000000E+00  0.20184294385E+02  0.20184294385E+02  0.00000000000E+00 0.  1.
         21   -1    0    0  503  504 -0.00000000000E+00 -0.00000000000E+00 -0.21404757657E+04  0.21404757657E+04  0.00000000000E+00 0.  1.
         25    2    1    2    0    0 -0.97844877063E+01  0.72836855259E+02 -0.28611934892E+03  0.32076496835E+03  0.12499975765E+03 0.  0.
         25    2    1    2    0    0  0.97844877063E+01 -0.72836855259E+02 -0.18341721224E+04  0.18398950918E+04  0.12500252127E+03 0.  0.
          5    1    3    3  501    0 -0.63186998031E+02  0.64167427089E+02 -0.16518623654E+03  0.18819840106E+03  0.47000000000E+01 0. -1.
         -5    1    3    3    0  501  0.53402510325E+02  0.86694281702E+01 -0.12093311238E+03  0.13256656729E+03  0.47000000000E+01 0. -1.
          5    1    4    4  502    0  0.12852578827E+02  0.21684729284E+02 -0.10061268819E+04  0.10064535800E+04  0.47000000000E+01 0.  1.
         -5    1    4    4    0  502 -0.30680911210E+01 -0.94521584543E+02 -0.82804524056E+03  0.83344151177E+03  0.47000000000E+01 0.  1.
<mgrwt>
<rscale>  0 0.41571140E+03</rscale>
<asrwt>0</asrwt>
<pdfrwt beam="1">  1       21 0.31052768E-02 0.41571140E+03</pdfrwt>
<pdfrwt beam="2">  1       21 0.32930388E+00 0.41571140E+03</pdfrwt>
<totfact> 0.11722368E+04</totfact>
</mgrwt>
</event>
<event>
 8    1  0.9123825E-006  0.3058742E+03  0.7546771E-02  0.1082340E+00
         21   -1    0    0  504  503  0.00000000000E+00  0.00000000000E+00  0.12257698494E+03  0.12257698494E+03  0.00000000000E+00 0. -1.
         21   -1    0    0  503  504 -0.00000000000E+00 -0.00000000000E+00 -0.19081691606E+03  0.19081691606E+03  0.00000000000E+00 0. -1.
         25    2    1    2    0    0 -0.17230883166E+02  0.62749101254E+02  0.26763967103E+02  0.14343793377E+03  0.12499511137E+03 0.  0.
         25    2    1    2    0    0  0.17230883166E+02 -0.62749101254E+02 -0.95003898229E+02  0.16995596723E+03  0.12499974830E+03 0.  0.
          5    1    3    3  501    0 -0.62648488829E+02  0.30055570870E+02 -0.17643170204E+02  0.71843872027E+02  0.47000000000E+01 0. -1.
         -5    1    3    3    0  501  0.45417605664E+02  0.32693530384E+02  0.44407137307E+02  0.71594061744E+02  0.47000000000E+01 0. -1.
          5    1    4    4  502    0 -0.49958089631E+02 -0.51167699324E+02 -0.58281845720E+02  0.92373198030E+02  0.47000000000E+01 0. -1.
         -5    1    4    4    0  502  0.67188972797E+02 -0.11581401930E+02 -0.36722052509E+02  0.77582769200E+02  0.47000000000E+01 0. -1.
<mgrwt>
<rscale>  0 0.30587424E+03</rscale>
<asrwt>0</asrwt>
<pdfrwt beam="1">  1       21 0.18857998E-01 0.30587424E+03</pdfrwt>
<pdfrwt beam="2">  1       21 0.29356449E-01 0.30587424E+03</pdfrwt>
<totfact> 0.27878199E+05</totfact>
</mgrwt>
</event>
<event>
 8    1  0.9123825E-006  0.2690041E+03  0.7546771E-02  0.1101851E+00
         21   -1    0    0  504  503  0.00000000000E+00  0.00000000000E+00  0.82892565414E+02  0.82892565414E+02  0.00000000000E+00 0. -1.
         21   -1    0    0  503  504 -0.00000000000E+00 -0.00000000000E+00 -0.21824393103E+03  0.21824393103E+03  0.00000000000E+00 0. -1.
         25    2    1    2    0    0  0.33833515273E+02 -0.29670466931E+02 -0.44162635113E+02  0.14000252362E+03  0.12500129966E+03 0.  0.
         25    2    1    2    0    0 -0.33833515273E+02  0.29670466931E+02 -0.91188730504E+02  0.16113397282E+03  0.12499491695E+03 0.  0.
          5    1    3    3  501    0  0.68758597499E+02  0.17138874263E+02 -0.87865893259E+01  0.71559624741E+02  0.47000000000E+01 0.  1.
         -5    1    3    3    0  501 -0.34925082227E+02 -0.46809341194E+02 -0.35376045787E+02  0.68442898880E+02  0.47000000000E+01 0.  1.
          5    1    4    4  502    0 -0.33170031768E+02  0.56731208056E+02  0.12380654026E-01  0.65884528747E+02  0.47000000000E+01 0.  1.
         -5    1    4    4    0  502 -0.66348350467E+00 -0.27060741124E+02 -0.91201111158E+02  0.95249444077E+02  0.47000000000E+01 0.  1.
<mgrwt>
<rscale>  0 0.26900408E+03</rscale>
<asrwt>0</asrwt>
<pdfrwt beam="1">  1       21 0.12752702E-01 0.26900408E+03</pdfrwt>
<pdfrwt beam="2">  1       21 0.33575989E-01 0.26900408E+03</pdfrwt>
<totfact> 0.44261680E+05</totfact>
</mgrwt>
</event>
<event>
 8    1  0.9123825E-006  0.2977520E+03  0.7546771E-02  0.1086370E+00
         21   -1    0    0  504  503  0.00000000000E+00  0.00000000000E+00  0.92373218949E+03  0.92373218949E+03  0.00000000000E+00 0.  1.
         21   -1    0    0  503  504 -0.00000000000E+00 -0.00000000000E+00 -0.23994039852E+02  0.23994039852E+02  0.00000000000E+00 0.  1.
         25    2    1    2    0    0  0.22557967580E+02  0.44999136051E+02  0.65130508004E+03  0.66509918082E+03  0.12499931559E+03 0.  0.
         25    2    1    2    0    0 -0.22557967580E+02 -0.44999136051E+02  0.24843306960E+03  0.28262704853E+03  0.12500109735E+03 0.  0.
          5    1    3    3  501    0  0.66915150561E+02  0.55350432823E+02  0.36940136600E+03  0.37950068115E+03  0.47000000000E+01 0.  1.
         -5    1    3    3    0  501 -0.44357182982E+02 -0.10351296772E+02  0.28190371403E+03  0.28559849967E+03  0.47000000000E+01 0.  1.
          5    1    4    4  502    0  0.39514135611E+02 -0.23778739376E+02  0.31759429208E+02  0.56192051956E+02  0.47000000000E+01 0. -1.
         -5    1    4    4    0  502 -0.62072103191E+02 -0.21220396675E+02  0.21667364039E+03  0.22643499657E+03  0.47000000000E+01 0. -1.
<mgrwt>
<rscale>  0 0.29775202E+03</rscale>
<asrwt>0</asrwt>
<pdfrwt beam="1">  1       21 0.14211262E+00 0.29775202E+03</pdfrwt>
<pdfrwt beam="2">  1       21 0.36913915E-02 0.29775202E+03</pdfrwt>
<totfact> 0.14844869E+05</totfact>
</mgrwt>
</event>
<event>
 8    1  0.9123825E-006  0.3351228E+03  0.7546771E-02  0.1068892E+00
         21   -1    0    0  504  503  0.00000000000E+00  0.00000000000E+00  0.23576694484E+02  0.23576694484E+02  0.00000000000E+00 0.  1.
         21   -1    0    0  503  504 -0.00000000000E+00 -0.00000000000E+00 -0.11908721093E+04  0.11908721093E+04  0.00000000000E+00 0.  1.
         25    2    1    2    0    0  0.55962579677E+01 -0.61460062641E+02 -0.24672270218E+03  0.28338168661E+03  0.12499772452E+03 0.  0.
         25    2    1    2    0    0 -0.55962579677E+01  0.61460062641E+02 -0.92057271262E+03  0.93106711715E+03  0.12499279988E+03 0.  0.
          5    1    3    3  501    0 -0.22625479903E+02 -0.28630504982E+02 -0.23557449807E+03  0.23843039298E+03  0.47000000000E+01 0.  1.
         -5    1    3    3    0  501  0.28221737870E+02 -0.32829557659E+02 -0.11148204112E+02  0.44951293635E+02  0.47000000000E+01 0.  1.
          5    1    4    4  502    0 -0.35074660496E+01 -0.32065441353E+02 -0.10030629779E+03  0.10547008213E+03  0.47000000000E+01 0.  1.
         -5    1    4    4    0  502 -0.20887919182E+01  0.93525503994E+02 -0.82026641482E+03  0.82559703502E+03  0.47000000000E+01 0.  1.
<mgrwt>
<rscale>  0 0.33512283E+03</rscale>
<asrwt>0</asrwt>
<pdfrwt beam="1">  1       21 0.36271843E-02 0.33512283E+03</pdfrwt>
<pdfrwt beam="2">  1       21 0.18321106E+00 0.33512283E+03</pdfrwt>
<totfact> 0.74913835E+04</totfact>
</mgrwt>
</event>
<event>
 8    1  0.9123825E-006  0.2873623E+03  0.7546771E-02  0.1091734E+00
         21   -1    0    0  504  503  0.00000000000E+00  0.00000000000E+00  0.28602469738E+03  0.28602469738E+03  0.00000000000E+00 0. -1.
         21   -1    0    0  503  504 -0.00000000000E+00 -0.00000000000E+00 -0.72176535477E+02  0.72176535477E+02  0.00000000000E+00 0. -1.
         25    2    1    2    0    0  0.52779437547E+01  0.27310030904E+02  0.18816526729E+03  0.22759129265E+03  0.12497173360E+03 0.  0.
         25    2    1    2    0    0 -0.52779437547E+01 -0.27310030904E+02  0.25682894622E+02  0.13060994021E+03  0.12500260368E+03 0.  0.
          5    1    3    3  501    0  0.52225792342E+02  0.11824665926E+02  0.29457456188E+02  0.61295903901E+02  0.47000000000E+01 0.  1.
         -5    1    3    3    0  501 -0.46947848587E+02  0.15485364977E+02  0.15870781110E+03  0.16629538875E+03  0.47000000000E+01 0.  1.
          5    1    4    4  502    0  0.46777295345E+02 -0.47635731465E+02 -0.42098747457E+01  0.67060355780E+02  0.47000000000E+01 0.  1.
         -5    1    4    4    0  502 -0.52055239100E+02  0.20325700561E+02  0.29892769368E+02  0.63549584432E+02  0.47000000000E+01 0.  1.
<mgrwt>
<rscale>  0 0.28736229E+03</rscale>
<asrwt>0</asrwt>
<pdfrwt beam="1">  1       21 0.44003799E-01 0.28736229E+03</pdfrwt>
<pdfrwt beam="2">  1       21 0.11104083E-01 0.28736229E+03</pdfrwt>
<totfact> 0.32715971E+05</totfact>
</mgrwt>
</event>
<event>
 8    1  0.9123825E-006  0.3215890E+03  0.7546771E-02  0.1074920E+00
         21   -1    0    0  504  503  0.00000000000E+00  0.00000000000E+00  0.18859976223E+03  0.18859976223E+03  0.00000000000E+00 0. -1.
         21   -1    0    0  503  504 -0.00000000000E+00 -0.00000000000E+00 -0.13708857302E+03  0.13708857302E+03  0.00000000000E+00 0. -1.
         25    2    1    2    0    0 -0.10825274780E+02 -0.97232344292E+02 -0.22249896740E+00  0.15873181282E+03  0.12499769415E+03 0.  0.
         25    2    1    2    0    0  0.10825274780E+02  0.97232344292E+02  0.51733688169E+02  0.16695652244E+03  0.12500716196E+03 0.  0.
          5    1    3    3  501    0  0.21018206821E+02 -0.27413930145E+02  0.54266134209E+02  0.64499549657E+02  0.47000000000E+01 0.  1.
         -5    1    3    3    0  501 -0.31843481601E+02 -0.69818414147E+02 -0.54488633176E+02  0.94232263158E+02  0.47000000000E+01 0.  1.
          5    1    4    4  502    0  0.11733876731E+02  0.44805315919E+00 -0.34808222631E+02  0.37034942655E+02  0.47000000000E+01 0.  1.
         -5    1    4    4    0  502 -0.90860195033E+00  0.96784291133E+02  0.86541910800E+02  0.12992157978E+03  0.47000000000E+01 0.  1.
<mgrwt>
<rscale>  0 0.32158901E+03</rscale>
<asrwt>0</asrwt>
<pdfrwt beam="1">  1       21 0.29015348E-01 0.32158901E+03</pdfrwt>
<pdfrwt beam="2">  1       21 0.21090550E-01 0.32158901E+03</pdfrwt>
<totfact> 0.23021422E+05</totfact>
</mgrwt>
</event>
<event>
 8    1  0.9123825E-006  0.3515053E+03  0.7546771E-02  0.1061999E+00
         21   -1    0    0  504  503  0.00000000000E+00  0.00000000000E+00  0.39964432802E+03  0.39964432802E+03  0.00000000000E+00 0. -1.
         21   -1    0    0  503  504 -0.00000000000E+00 -0.00000000000E+00 -0.77291212770E+02  0.77291212770E+02  0.00000000000E+00 0. -1.
         25    2    1    2    0    0 -0.11929044701E+03  0.22665257241E+02  0.13015493837E+03  0.21749435612E+03  0.12497824742E+03 0.  0.
         25    2    1    2    0    0  0.11929044701E+03 -0.22665257241E+02  0.19219817688E+03  0.25944118467E+03  0.12500265787E+03 0.  0.
          5    1    3    3  501    0  0.25628652148E+02 -0.40927915133E+01  0.14470157373E+02  0.30084118861E+02  0.47000000000E+01 0. -1.
         -5    1    3    3    0  501 -0.14491909916E+03  0.26758048755E+02  0.11568478100E+03  0.18741023726E+03  0.47000000000E+01 0. -1.
          5    1    4    4  502    0  0.51083545708E+02  0.48170891171E+02  0.11286686672E+03  0.13300745468E+03  0.47000000000E+01 0.  1.
         -5    1    4    4    0  502  0.68206901301E+02 -0.70836148413E+02  0.79331310156E+02  0.12643372999E+03  0.47000000000E+01 0.  1.
<mgrwt>
<rscale>  0 0.35150530E+03</rscale>
<asrwt>0</asrwt>
<pdfrwt beam="1">  1       21 0.61483742E-01 0.35150530E+03</pdfrwt>
<pdfrwt beam="2">  1       21 0.11890956E-01 0.35150530E+03</pdfrwt>
<totfact> 0.14016046E+05</totfact>
</mgrwt>
</event>
<event>
 8    1  0.9123825E-006  0.2727457E+03  0.7546771E-02  0.1099718E+00
         21   -1    0    0  504  503  0.00000000000E+00  0.00000000000E+00  0.61614350445E+02  0.61614350445E+02  0.00000000000E+00 0.  1.
         21   -1    0    0  503  504 -0.00000000000E+00 -0.00000000000E+00 -0.30183800661E+03  0.30183800661E+03  0.00000000000E+00 0.  1.
         25    2    1    2    0    0  0.12682709950E+02  0.51963565080E+02 -0.13421720205E+03  0.19104939729E+03  0.12499820659E+03 0.  0.
         25    2    1    2    0    0 -0.12682709950E+02 -0.51963565080E+02 -0.10600645411E+03  0.17240295976E+03  0.12499739595E+03 0.  0.
          5    1    3    3  501    0 -0.11012582065E+02  0.46494638129E+02 -0.15274832118E+03  0.16011610775E+03  0.47000000000E+01 0.  1.
         -5    1    3    3    0  501  0.23695292015E+02  0.54689269508E+01  0.18531119126E+02  0.30933289539E+02  0.47000000000E+01 0.  1.
          5    1    4    4  502    0 -0.41770886451E+02 -0.48819039677E+02 -0.22105066756E+01  0.64459924990E+02  0.47000000000E+01 0. -1.
         -5    1    4    4    0  502  0.29088176501E+02 -0.31445254028E+01 -0.10379594743E+03  0.10794303477E+03  0.47000000000E+01 0. -1.
<mgrwt>
<rscale>  0 0.27274569E+03</rscale>
<asrwt>0</asrwt>
<pdfrwt beam="1">  1       21 0.94791308E-02 0.27274569E+03</pdfrwt>
<pdfrwt beam="2">  1       21 0.46436617E-01 0.27274569E+03</pdfrwt>
<totfact> 0.38918585E+05</totfact>
</mgrwt>
</event>
<event>
 8    1  0.9123825E-006  0.2792805E+03  0.7546771E-02  0.1096083E+00
         21   -1    0    0  504  503  0.00000000000E+00  0.00000000000E+00  0.45207309240E+03  0.45207309240E+03  0.00000000000E+00 0. -1.
         21   -1    0    0  503  504 -0.00000000000E+00 -0.00000000000E+00 -0.43133290830E+02  0.43133290830E+02  0.00000000000E+00 0. -1.
         25    2    1    2    0    0  0.40198048432E+01  0.25024282468E+01  0.31456393978E+03  0.33852304236E+03  0.12499982808E+03 0.  0.
         25    2    1    2    0    0 -0.40198048432E+01 -0.25024282468E+01  0.94375861791E+02  0.15668334087E+03  0.12498177883E+03 0.  0.
          5    1    3    3  501    0  0.12603921938E+02 -0.46353126486E+02  0.26076925261E+03  0.26519834896E+03  0.47000000000E+01 0. -1.
         -5    1    3    3    0  501 -0.85841170947E+01  0.48855554733E+02  0.53794687167E+02  0.73324693398E+02  0.47000000000E+01 0. -1.
          5    1    4    4  502    0 -0.34441139159E+02  0.33150027878E+02 -0.33997465674E+01  0.48153553260E+02  0.47000000000E+01 0.  1.
         -5    1    4    4    0  502  0.30421334315E+02 -0.35652456125E+02  0.97775608358E+02  0.10852978761E+03  0.47000000000E+01 0.  1.
<mgrwt>
<rscale>  0 0.27928051E+03</rscale>
<asrwt>0</asrwt>
<pdfrwt beam="1">  1       21 0.69549703E-01 0.27928051E+03</pdfrwt>
<pdfrwt beam="2">  1       21 0.66358912E-02 0.27928051E+03</pdfrwt>
<totfact> 0.30502863E+05</totfact>
</mgrwt>
</event>
<event>
 8    1  0.9123825E-006  0.3082878E+03  0.7546771E-02  0.1081169E+00
         21   -1    0    0  504  503  0.00000000000E+00  0.00000000000E+00  0.20372290975E+02  0.20372290975E+02  0.00000000000E+00 0.  1.
         21   -1    0    0  503  504 -0.00000000000E+00 -0.00000000000E+00 -0.11663071240E+04  0.11663071240E+04  0.00000000000E+00 0.  1.
         25    2    1    2    0    0  0.30944324741E+01 -0.53653622011E+02 -0.29413492291E+03  0.32408215374E+03  0.12500241130E+03 0.  0.
         25    2    1    2    0    0 -0.30944324741E+01  0.53653622011E+02 -0.85179991007E+03  0.86259726119E+03  0.12499064585E+03 0.  0.
          5    1    3    3  501    0  0.75633981567E+01 -0.87895596605E+02 -0.26266948863E+03  0.27712847409E+03  0.47000000000E+01 0. -1.
         -5    1    3    3    0  501 -0.44689656827E+01  0.34241974593E+02 -0.31465434285E+02  0.46953679654E+02  0.47000000000E+01 0. -1.
          5    1    4    4  502    0  0.51255676120E+02  0.16183932225E+02 -0.59372450334E+03  0.59617106594E+03  0.47000000000E+01 0. -1.
         -5    1    4    4    0  502 -0.54350108594E+02  0.37469689787E+02 -0.25807540673E+03  0.26642619525E+03  0.47000000000E+01 0. -1.
<mgrwt>
<rscale>  0 0.30828784E+03</rscale>
<asrwt>0</asrwt>
<pdfrwt beam="1">  1       21 0.31341972E-02 0.30828784E+03</pdfrwt>
<pdfrwt beam="2">  1       21 0.17943194E+00 0.30828784E+03</pdfrwt>
<totfact> 0.10269163E+05</totfact>
</mgrwt>
</event>
<event>
 8    1  0.9123825E-006  0.3566817E+03  0.7546771E-02  0.1059906E+00
         21   -1    0    0  504  503  0.00000000000E+00  0.00000000000E+00  0.19427742822E+03  0.19427742822E+03  0.00000000000E+00 0.  1.
         21   -1    0    0  503  504 -0.00000000000E+00 -0.00000000000E+00 -0.16371151861E+03  0.16371151861E+03  0.00000000000E+00 0.  1.
         25    2    1    2    0    0  0.36682597802E+02 -0.76791541229E+02 -0.79601018755E+02  0.17089416785E+03  0.12500376247E+03 0.  0.
         25    2    1    2    0    0 -0.36682597802E+02  0.76791541229E+02  0.11016692836E+03  0.18709477898E+03  0.12500060172E+03 0.  0.
          5    1    3    3  501    0 -0.70231020757E+01  0.29156403660E+02 -0.38543812067E+02  0.49062565014E+02  0.47000000000E+01 0. -1.
         -5    1    3    3    0  501  0.43705699878E+02 -0.10594794489E+03 -0.41057206688E+02  0.12183160283E+03  0.47000000000E+01 0. -1.
          5    1    4    4  502    0 -0.48063827329E+02  0.10144079184E+03  0.54258961241E+02  0.12476574298E+03  0.47000000000E+01 0.  1.
         -5    1    4    4    0  502  0.11381229527E+02 -0.24649250607E+02  0.55907967122E+02  0.62329036000E+02  0.47000000000E+01 0.  1.
<mgrwt>
<rscale>  0 0.35668167E+03</rscale>
<asrwt>0</asrwt>
<pdfrwt beam="1">  1       21 0.29888835E-01 0.35668167E+03</pdfrwt>
<pdfrwt beam="2">  1       21 0.25186387E-01 0.35668167E+03</pdfrwt>
<totfact> 0.15339303E+05</totfact>
</mgrwt>
</event>
<event>
 8    1  0.9123825E-006  0.2644974E+03  0.7546771E-02  0.1104471E+00
         21   -1    0    0  504  503  0.00000000000E+00  0.00000000000E+00  0.66771722465E+03  0.66771722465E+03  0.00000000000E+00 0.  1.
         21   -1    0    0  503  504 -0.00000000000E+00 -0.00000000000E+00 -0.26193296315E+02  0.26193296315E+02  0.00000000000E+00 0.  1.
         25    2    1    2    0    0 -0.31582031407E+01 -0.31418658018E+01  0.20808557918E+03  0.24278474191E+03  0.12499990829E+03 0.  0.
         25    2    1    2    0    0  0.31582031407E+01  0.31418658018E+01  0.43343834915E+03  0.45112577906E+03  0.12500328175E+03 0.  0.
          5    1    3    3  501    0  0.49561857996E+02  0.17890070053E+02  0.43070472612E+02  0.68217211798E+02  0.47000000000E+01 0.  1.
         -5    1    3    3    0  501 -0.52720061136E+02 -0.21031935855E+02  0.16501510657E+03  0.17456753011E+03  0.47000000000E+01 0.  1.
          5    1    4    4  502    0 -0.42360340657E+02  0.16805577594E+02  0.64531462857E+02  0.79140543322E+02  0.47000000000E+01 0. -1.
         -5    1    4    4    0  502  0.45518543798E+02 -0.13663711792E+02  0.36890688629E+03  0.37198523573E+03  0.47000000000E+01 0. -1.
<mgrwt>
<rscale>  0 0.26449737E+03</rscale>
<asrwt>0</asrwt>
<pdfrwt beam="1">  1       21 0.10272571E+00 0.26449737E+03</pdfrwt>
<pdfrwt beam="2">  1       21 0.40297384E-02 0.26449737E+03</pdfrwt>
<totfact> 0.29194973E+05</totfact>
</mgrwt>
</event>
<event>
 8    1  0.9123825E-006  0.3283576E+03  0.7546771E-02  0.1071866E+00
         21   -1    0    0  504  503  0.00000000000E+00  0.00000000000E+00  0.85279987475E+03  0.85279987475E+03  0.00000000000E+00 0. -1.
         21   -1    0    0  503  504 -0.00000000000E+00 -0.00000000000E+00 -0.31607279448E+02  0.31607279448E+02  0.00000000000E+00 0. -1.
         25    2    1    2    0    0  0.10487996363E+03  0.92900017975E+01  0.36861009644E+03  0.40321846755E+03  0.12500247386E+03 0.  0.
         25    2    1    2    0    0 -0.10487996363E+03 -0.92900017975E+01  0.45258249887E+03  0.48118868665E+03  0.12500209190E+03 0.  0.
          5    1    3    3  501    0  0.72683794180E+02 -0.35892844620E+02  0.99591073296E+02  0.12849786812E+03  0.47000000000E+01 0.  1.
         -5    1    3    3    0  501  0.32196169446E+02  0.45182846417E+02  0.26901902314E+03  0.27472059943E+03  0.47000000000E+01 0.  1.
          5    1    4    4  502    0 -0.94196398564E+02  0.46907570465E+02  0.27102895477E+03  0.29077837951E+03  0.47000000000E+01 0.  1.
         -5    1    4    4    0  502 -0.10683565062E+02 -0.56197572263E+02  0.18155354410E+03  0.19041030714E+03  0.47000000000E+01 0.  1.
<mgrwt>
<rscale>  0 0.32835763E+03</rscale>
<asrwt>0</asrwt>
<pdfrwt beam="1">  1       21 0.13119996E+00 0.32835763E+03</pdfrwt>
<pdfrwt beam="2">  1       21 0.48626590E-02 0.32835763E+03</pdfrwt>
<totfact> 0.11343014E+05</totfact>
</mgrwt>
</event>
<event>
 8    1  0.9123825E-006  0.2882490E+03  0.7546771E-02  0.1091267E+00
         21   -1    0    0  504  503  0.00000000000E+00  0.00000000000E+00  0.59143360187E+03  0.59143360187E+03  0.00000000000E+00 0. -1.
         21   -1    0    0  503  504 -0.00000000000E+00 -0.00000000000E+00 -0.35121228054E+02  0.35121228054E+02  0.00000000000E+00 0. -1.
         25    2    1    2    0    0  0.88669476455E+01 -0.11362311339E+02  0.12539203472E+03  0.17763817696E+03  0.12499773863E+03 0.  0.
         25    2    1    2    0    0 -0.88669476455E+01  0.11362311339E+02  0.43092033911E+03  0.44891665297E+03  0.12500439104E+03 0.  0.
          5    1    3    3  501    0  0.61345735486E+02  0.42225646794E+01  0.99109946896E+02  0.11673046256E+03  0.47000000000E+01 0.  1.
         -5    1    3    3    0  501 -0.52478787840E+02 -0.15584876018E+02  0.26282087819E+02  0.60907714403E+02  0.47000000000E+01 0.  1.
          5    1    4    4  502    0  0.41630653683E+02  0.43961452706E+02  0.15467899983E+03  0.16617281257E+03  0.47000000000E+01 0.  1.
         -5    1    4    4    0  502 -0.50497601328E+02 -0.32599141368E+02  0.27624133928E+03  0.28274384040E+03  0.47000000000E+01 0.  1.
<mgrwt>
<rscale>  0 0.28824902E+03</rscale>
<asrwt>0</asrwt>
<pdfrwt beam="1">  1       21 0.90989778E-01 0.28824902E+03</pdfrwt>
<pdfrwt beam="2">  1       21 0.54032663E-02 0.28824902E+03</pdfrwt>
<totfact> 0.23503839E+05</totfact>
</mgrwt>
</event>
<event>
 8    1  0.9123825E-006  0.3089328E+03  0.7546771E-02  0.1080859E+00
         21   -1    0    0  504  503  0.00000000000E+00  0.00000000000E+00  0.65282266576E+03  0.65282266576E+03  0.00000000000E+00 0. -1.
         21   -1    0    0  503  504 -0.00000000000E+00 -0.00000000000E+00 -0.36548781635E+02  0.36548781635E+02  0.00000000000E+00 0. -1.
         25    2    1    2    0    0  0.57124179172E+02  0.56298595190E+02  0.40283764757E+03  0.42934657418E+03  0.12501042675E+03 0.  0.
         25    2    1    2    0    0 -0.57124179172E+02 -0.56298595190E+02  0.21343623656E+03  0.26002487321E+03  0.12500081579E+03 0.  0.
          5    1    3    3  501    0 -0.32959665334E+00  0.49145490437E+01 -0.84617291978E+01  0.10860584113E+02  0.47000000000E+01 0. -1.
         -5    1    3    3    0  501  0.57453775826E+02  0.51384046147E+02  0.41129937676E+03  0.41848599007E+03  0.47000000000E+01 0. -1.
          5    1    4    4  502    0  0.63473817612E+00  0.37689272398E+02  0.50236372450E+02  0.62981483496E+02  0.47000000000E+01 0. -1.
         -5    1    4    4    0  502 -0.57758917348E+02 -0.93987867588E+02  0.16319986411E+03  0.19704338972E+03  0.47000000000E+01 0. -1.
<mgrwt>
<rscale>  0 0.30893283E+03</rscale>
<asrwt>0</asrwt>
<pdfrwt beam="1">  1       21 0.10043425E+00 0.30893283E+03</pdfrwt>
<pdfrwt beam="2">  1       21 0.56228900E-02 0.30893283E+03</pdfrwt>
<totfact> 0.17271542E+05</totfact>
</mgrwt>
</event>
<event>
 8    1  0.9123825E-006  0.4430049E+03  0.7546771E-02  0.1029829E+00
         21   -1    0    0  504  503  0.00000000000E+00  0.00000000000E+00  0.31095008817E+03  0.31095008817E+03  0.00000000000E+00 0.  1.
         21   -1    0    0  503  504 -0.00000000000E+00 -0.00000000000E+00 -0.15778520913E+03  0.15778520913E+03  0.00000000000E+00 0.  1.
         25    2    1    2    0    0  0.11154863194E+03 -0.13196932742E+03  0.13988914752E+03  0.25505282841E+03  0.12499588401E+03 0.  0.
         25    2    1    2    0    0 -0.11154863194E+03  0.13196932742E+03  0.13275731516E+02  0.21368246889E+03  0.12499980719E+03 0.  0.
          5    1    3    3  501    0  0.54788849866E+02 -0.14092807585E+03  0.12301378035E+03  0.19497953941E+03  0.47000000000E+01 0. -1.
         -5    1    3    3    0  501  0.56759782072E+02  0.89587484258E+01  0.16875367166E+02  0.60073288999E+02  0.47000000000E+01 0. -1.
          5    1    4    4  502    0 -0.57802525818E+02  0.11066555854E+03  0.60562749199E+02  0.13884500145E+03  0.47000000000E+01 0. -1.
         -5    1    4    4    0  502 -0.53746106120E+02  0.21303768885E+02 -0.47287017683E+02  0.74837467442E+02  0.47000000000E+01 0. -1.
<mgrwt>
<rscale>  0 0.44300485E+03</rscale>
<asrwt>0</asrwt>
<pdfrwt beam="1">  1       21 0.47838475E-01 0.44300485E+03</pdfrwt>
<pdfrwt beam="2">  1       21 0.24274648E-01 0.44300485E+03</pdfrwt>
<totfact> 0.61967337E+04</totfact>
</mgrwt>
</event>
<event>
 8    1  0.9123825E-006  0.3385960E+03  0.7546771E-02  0.1067395E+00
         21   -1    0    0  504  503  0.00000000000E+00  0.00000000000E+00  0.65299488716E+02  0.65299488716E+02  0.00000000000E+00 0. -1.
         21   -1    0    0  503  504 -0.00000000000E+00 -0.00000000000E+00 -0.43892862869E+03  0.43892862869E+03  0.00000000000E+00 0. -1.
         25    2    1    2    0    0 -0.10577732928E+03 -0.19836176506E+02 -0.24353950759E+03  0.29413747145E+03  0.12499217201E+03 0.  0.
         25    2    1    2    0    0  0.10577732928E+03  0.19836176506E+02 -0.13008963239E+03  0.21009064596E+03  0.12502979556E+03 0.  0.
          5    1    3    3  501    0 -0.86648662953E+02  0.69411703294E+01 -0.24585793443E+03  0.26081484727E+03  0.47000000000E+01 0.  1.
         -5    1    3    3    0  501 -0.19128666327E+02 -0.26777346836E+02  0.23184268337E+01  0.33322624176E+02  0.47000000000E+01 0.  1.
          5    1    4    4  502    0  0.22174925136E+02  0.33374504462E+02  0.14154436330E+02  0.42755384698E+02  0.47000000000E+01 0.  1.
         -5    1    4    4    0  502  0.83602404144E+02 -0.13538327955E+02 -0.14424406872E+03  0.16733526127E+03  0.47000000000E+01 0.  1.
<mgrwt>
<rscale>  0 0.33859601E+03</rscale>
<asrwt>0</asrwt>
<pdfrwt beam="1">  1       21 0.10046075E-01 0.33859601E+03</pdfrwt>
<pdfrwt beam="2">  1       21 0.67527480E-01 0.33859601E+03</pdfrwt>
<totfact> 0.15484181E+05</totfact>
</mgrwt>
</event>
<event>
 8    1  0.9123825E-006  0.3564636E+03  0.7546771E-02  0.1059993E+00
         21   -1    0    0  504  503  0.00000000000E+00  0.00000000000E+00  0.32214508173E+02  0.32214508173E+02  0.00000000000E+00 0.  1.
         21   -1    0    0  503  504 -0.00000000000E+00 -0.00000000000E+00 -0.98609555450E+03  0.98609555450E+03  0.00000000000E+00 0.  1.
         25    2    1    2    0    0  0.11365618671E+02 -0.12650666526E+03 -0.46800914755E+03  0.50078674936E+03  0.12498676928E+03 0.  0.
         25    2    1    2    0    0 -0.11365618671E+02  0.12650666526E+03 -0.48587189877E+03  0.51752331331E+03  0.12500305662E+03 0.  0.
          5    1    3    3  501    0 -0.51653357888E+02 -0.79781221737E+02 -0.31056899340E+03  0.32482041559E+03  0.47000000000E+01 0. -1.
         -5    1    3    3    0  501  0.63018976559E+02 -0.46725443526E+02 -0.15744015415E+03  0.17596633377E+03  0.47000000000E+01 0. -1.
          5    1    4    4  502    0 -0.35713067600E+02 -0.82105077349E+01 -0.63168689185E+02  0.73179293028E+02  0.47000000000E+01 0.  1.
         -5    1    4    4    0  502  0.24347448929E+02  0.13471717300E+03 -0.42270320959E+03  0.44434402029E+03  0.47000000000E+01 0.  1.
<mgrwt>
<rscale>  0 0.35646365E+03</rscale>
<asrwt>0</asrwt>
<pdfrwt beam="1">  1       21 0.49560780E-02 0.35646365E+03</pdfrwt>
<pdfrwt beam="2">  1       21 0.15170701E+00 0.35646365E+03</pdfrwt>
<totfact> 0.74223329E+04</totfact>
</mgrwt>
</event>
<event>
 8    1  0.9123825E-006  0.3116779E+03  0.7546771E-02  0.1079544E+00
         21   -1    0    0  504  503  0.00000000000E+00  0.00000000000E+00  0.18049389172E+03  0.18049389172E+03  0.00000000000E+00 0. -1.
         21   -1    0    0  503  504 -0.00000000000E+00 -0.00000000000E+00 -0.13455177575E+03  0.13455177575E+03  0.00000000000E+00 0. -1.
         25    2    1    2    0    0 -0.33138730769E+02 -0.85941087706E+02  0.96253412611E+01  0.15558415020E+03  0.12501893683E+03 0.  0.
         25    2    1    2    0    0  0.33138730769E+02  0.85941087706E+02  0.36316774707E+02  0.15946151726E+03  0.12500008532E+03 0.  0.
          5    1    3    3  501    0  0.11911314207E+02  0.29015908308E+02  0.27397766297E+01  0.31833923997E+02  0.47000000000E+01 0.  1.
         -5    1    3    3    0  501 -0.45050044976E+02 -0.11495699601E+03  0.68855646314E+01  0.12375022620E+03  0.47000000000E+01 0.  1.
          5    1    4    4  502    0 -0.43212472690E+02  0.26620710750E+02 -0.10329581967E+02  0.52007406207E+02  0.47000000000E+01 0. -1.
         -5    1    4    4    0  502  0.76351203459E+02  0.59320376957E+02  0.46646356674E+02  0.10745411106E+03  0.47000000000E+01 0. -1.
<mgrwt>
<rscale>  0 0.31167787E+03</rscale>
<asrwt>0</asrwt>
<pdfrwt beam="1">  1       21 0.27768291E-01 0.31167787E+03</pdfrwt>
<pdfrwt beam="2">  1       21 0.20700273E-01 0.31167787E+03</pdfrwt>
<totfact> 0.26046756E+05</totfact>
</mgrwt>
</event>
<event>
 8    1  0.9123825E-006  0.2957738E+03  0.7546771E-02  0.1087373E+00
         21   -1    0    0  504  503  0.00000000000E+00  0.00000000000E+00  0.35369007151E+03  0.35369007151E+03  0.00000000000E+00 0.  1.
         21   -1    0    0  503  504 -0.00000000000E+00 -0.00000000000E+00 -0.61835330541E+02  0.61835330541E+02  0.00000000000E+00 0.  1.
         25    2    1    2    0    0  0.69274800811E+02 -0.38023157888E+02  0.14505021196E+03  0.20714649456E+03  0.12500139061E+03 0.  0.
         25    2    1    2    0    0 -0.69274800811E+02  0.38023157888E+02  0.14680452901E+03  0.20837890750E+03  0.12500176315E+03 0.  0.
          5    1    3    3  501    0  0.25193614268E+02  0.45969513691E+02  0.57912415344E+02  0.78255046098E+02  0.47000000000E+01 0.  1.
         -5    1    3    3    0  501  0.44081186543E+02 -0.83992671579E+02  0.87137796619E+02  0.12889144846E+03  0.47000000000E+01 0.  1.
          5    1    4    4  502    0 -0.38847962767E+01 -0.23379203142E+02  0.10776225533E+03  0.11043764057E+03  0.47000000000E+01 0.  1.
         -5    1    4    4    0  502 -0.65390004534E+02  0.61402361031E+02  0.39042273682E+02  0.97941266927E+02  0.47000000000E+01 0.  1.
<mgrwt>
<rscale>  0 0.29577385E+03</rscale>
<asrwt>0</asrwt>
<pdfrwt beam="1">  1       21 0.54413856E-01 0.29577385E+03</pdfrwt>
<pdfrwt beam="2">  1       21 0.95131280E-02 0.29577385E+03</pdfrwt>
<totfact> 0.27563316E+05</totfact>
</mgrwt>
</event>
<event>
 8    1  0.9123825E-006  0.2580897E+03  0.7546771E-02  0.1108296E+00
         21   -1    0    0  504  503  0.00000000000E+00  0.00000000000E+00  0.28831520437E+03  0.28831520437E+03  0.00000000000E+00 0.  1.
         21   -1    0    0  503  504 -0.00000000000E+00 -0.00000000000E+00 -0.57758213561E+02  0.57758213561E+02  0.00000000000E+00 0.  1.
         25    2    1    2    0    0  0.22188661756E+02 -0.19860487602E+02  0.13088304680E+03  0.18342068508E+03  0.12500400033E+03 0.  0.
         25    2    1    2    0    0 -0.22188661756E+02  0.19860487602E+02  0.99673944017E+02  0.16265273285E+03  0.12503695738E+03 0.  0.
          5    1    3    3  501    0  0.54144569246E+02 -0.34231692288E+02  0.13331855532E+03  0.14798435839E+03  0.47000000000E+01 0. -1.
         -5    1    3    3    0  501 -0.31955907490E+02  0.14371204686E+02 -0.24355085236E+01  0.35436326692E+02  0.47000000000E+01 0. -1.
          5    1    4    4  502    0 -0.17829198322E+02 -0.51849329191E+02  0.31023114849E+02  0.63172437862E+02  0.47000000000E+01 0.  1.
         -5    1    4    4    0  502 -0.43594634343E+01  0.71709816793E+02  0.68650829168E+02  0.99480294990E+02  0.47000000000E+01 0.  1.
<mgrwt>
<rscale>  0 0.25808968E+03</rscale>
<asrwt>0</asrwt>
<pdfrwt beam="1">  1       21 0.44356185E-01 0.25808968E+03</pdfrwt>
<pdfrwt beam="2">  1       21 0.88858792E-02 0.25808968E+03</pdfrwt>
<totfact> 0.48112791E+05</totfact>
</mgrwt>
</event>
<event>
 8    1  0.9123825E-006  0.2726888E+03  0.7546771E-02  0.1099751E+00
         21   -1    0    0  504  503  0.00000000000E+00  0.00000000000E+00  0.74199177944E+03  0.74199177944E+03  0.00000000000E+00 0. -1.
         21   -1    0    0  503  504 -0.00000000000E+00 -0.00000000000E+00 -0.25053901502E+02  0.25053901502E+02  0.00000000000E+00 0. -1.
         25    2    1    2    0    0 -0.41603048714E+02  0.27950892876E+02  0.29862625569E+03  0.32758979497E+03  0.12500146841E+03 0.  0.
         25    2    1    2    0    0  0.41603048714E+02 -0.27950892876E+02  0.41831162225E+03  0.43945588598E+03  0.12499918533E+03 0.  0.
          5    1    3    3  501    0 -0.32180829900E+02  0.66609672744E+02  0.26534225691E+03  0.27550146573E+03  0.47000000000E+01 0.  1.
         -5    1    3    3    0  501 -0.94222188141E+01 -0.38658779867E+02  0.33283998778E+02  0.52088329238E+02  0.47000000000E+01 0.  1.
          5    1    4    4  502    0 -0.32084831235E+02 -0.18823224843E+02  0.27912913898E+03  0.28163614189E+03  0.47000000000E+01 0. -1.
         -5    1    4    4    0  502  0.73687879949E+02 -0.91276680326E+01  0.13918248327E+03  0.15781974409E+03  0.47000000000E+01 0. -1.
<mgrwt>
<rscale>  0 0.27268875E+03</rscale>
<asrwt>0</asrwt>
<pdfrwt beam="1">  1       21 0.11415256E+00 0.27268875E+03</pdfrwt>
<pdfrwt beam="2">  1       21 0.38544469E-02 0.27268875E+03</pdfrwt>
<totfact> 0.24282061E+05</totfact>
</mgrwt>
</event>
<event>
 8    1  0.9123825E-006  0.4498953E+03  0.7546771E-02  0.1027753E+00
         21   -1    0    0  504  503  0.00000000000E+00  0.00000000000E+00  0.10674714244E+03  0.10674714244E+03  0.00000000000E+00 0.  1.
         21   -1    0    0  503  504 -0.00000000000E+00 -0.00000000000E+00 -0.47403081430E+03  0.47403081430E+03  0.00000000000E+00 0.  1.
         25    2    1    2    0    0 -0.29783984360E+01  0.10410436422E+03 -0.38417019459E+03  0.41720110407E+03  0.12499373309E+03 0.  0.
         25    2    1    2    0    0  0.29783984360E+01 -0.10410436422E+03  0.16886522736E+02  0.16357685268E+03  0.12500257027E+03 0.  0.
          5    1    3    3  501    0  0.44951276042E+01 -0.28307676401E+02 -0.87712863523E+02  0.92396791843E+02  0.47000000000E+01 0. -1.
         -5    1    3    3    0  501 -0.74735260402E+01  0.13241204062E+03 -0.29645733107E+03  0.32480431222E+03  0.47000000000E+01 0. -1.
          5    1    4    4  502    0 -0.41199223636E+02 -0.58862401149E+02  0.54094404119E+02  0.90058052690E+02  0.47000000000E+01 0. -1.
         -5    1    4    4    0  502  0.44177622072E+02 -0.45241963071E+02 -0.37207881383E+02  0.73518799987E+02  0.47000000000E+01 0. -1.
<mgrwt>
<rscale>  0 0.44989525E+03</rscale>
<asrwt>0</asrwt>
<pdfrwt beam="1">  1       21 0.16422637E-01 0.44989525E+03</pdfrwt>
<pdfrwt beam="2">  1       21 0.72927818E-01 0.44989525E+03</pdfrwt>
<totfact> 0.51765913E+04</totfact>
</mgrwt>
</event>
<event>
 8    1  0.9123825E-006  0.3776403E+03  0.7546771E-02  0.1051809E+00
         21   -1    0    0  504  503  0.00000000000E+00  0.00000000000E+00  0.65164885639E+03  0.65164885639E+03  0.00000000000E+00 0.  1.
         21   -1    0    0  503  504 -0.00000000000E+00 -0.00000000000E+00 -0.54712054431E+02  0.54712054431E+02  0.00000000000E+00 0.  1.
         25    2    1    2    0    0 -0.62294681091E+02 -0.11805027883E+03  0.21047610819E+03  0.27881848551E+03  0.12499224023E+03 0.  0.
         25    2    1    2    0    0  0.62294681091E+02  0.11805027883E+03  0.38646069377E+03  0.42754242531E+03  0.12499664791E+03 0.  0.
          5    1    3    3  501    0 -0.62098118753E+02 -0.10341452625E+03  0.22646959666E+03  0.25663458224E+03  0.47000000000E+01 0.  1.
         -5    1    3    3    0  501 -0.19656233818E+00 -0.14635752585E+02 -0.15993488474E+02  0.22183903265E+02  0.47000000000E+01 0.  1.
          5    1    4    4  502    0  0.38573622687E+02 -0.15901256494E+02  0.13792115442E+03  0.14417041709E+03  0.47000000000E+01 0. -1.
         -5    1    4    4    0  502  0.23721058404E+02  0.13395153532E+03  0.24853953935E+03  0.28337200822E+03  0.47000000000E+01 0. -1.
<mgrwt>
<rscale>  0 0.37764029E+03</rscale>
<asrwt>0</asrwt>
<pdfrwt beam="1">  1       21 0.10025366E+00 0.37764029E+03</pdfrwt>
<pdfrwt beam="2">  1       21 0.84172396E-02 0.37764029E+03</pdfrwt>
<totfact> 0.84278845E+04</totfact>
</mgrwt>
</event>
<event>
 8    1  0.9123825E-006  0.4235615E+03  0.7546771E-02  0.1035913E+00
         21   -1    0    0  504  503  0.00000000000E+00  0.00000000000E+00  0.46848967119E+02  0.46848967119E+02  0.00000000000E+00 0.  1.
         21   -1    0    0  503  504 -0.00000000000E+00 -0.00000000000E+00 -0.95735503194E+03  0.95735503194E+03  0.00000000000E+00 0.  1.
         25    2    1    2    0    0 -0.26679345608E+02 -0.11992991422E+03 -0.73708745927E+03  0.75763897377E+03  0.12499568058E+03 0.  0.
         25    2    1    2    0    0  0.26679345608E+02  0.11992991422E+03 -0.17341860555E+03  0.24656502529E+03  0.12500130854E+03 0.  0.
          5    1    3    3  501    0 -0.32997567038E+02  0.15610083088E+02 -0.10903506573E+03  0.11507931909E+03  0.47000000000E+01 0.  1.
         -5    1    3    3    0  501  0.63182214298E+01 -0.13553999731E+03 -0.62805239354E+03  0.64255965468E+03  0.47000000000E+01 0.  1.
          5    1    4    4  502    0  0.69238336183E+02  0.81421516713E+02 -0.15035298486E+03  0.18453054120E+03  0.47000000000E+01 0. -1.
         -5    1    4    4    0  502 -0.42558990575E+02  0.38508397506E+02 -0.23065620693E+02  0.62034484081E+02  0.47000000000E+01 0. -1.
<mgrwt>
<rscale>  0 0.42356154E+03</rscale>
<asrwt>0</asrwt>
<pdfrwt beam="1">  1       21 0.72075339E-02 0.42356154E+03</pdfrwt>
<pdfrwt beam="2">  1       21 0.14728538E+00 0.42356154E+03</pdfrwt>
<totfact> 0.41139459E+04</totfact>
</mgrwt>
</event>
<event>
 8    1  0.9123825E-006  0.2593552E+03  0.7546771E-02  0.1107531E+00
         21   -1    0    0  504  503  0.00000000000E+00  0.00000000000E+00  0.23175668794E+03  0.23175668794E+03  0.00000000000E+00 0. -1.
         21   -1    0    0  503  504 -0.00000000000E+00 -0.00000000000E+00 -0.72560075194E+02  0.72560075194E+02  0.00000000000E+00 0. -1.
         25    2    1    2    0    0 -0.18968525860E+02  0.25696654040E+02  0.64237954425E+02  0.14412596718E+03  0.12500262647E+03 0.  0.
         25    2    1    2    0    0  0.18968525860E+02 -0.25696654040E+02  0.94958658321E+02  0.16019079596E+03  0.12499528518E+03 0.  0.
          5    1    3    3  501    0  0.15417008171E+02  0.32393100195E+02  0.92207961133E+02  0.99052486983E+02  0.47000000000E+01 0.  1.
         -5    1    3    3    0  501 -0.34385534031E+02 -0.66964461550E+01 -0.27970006708E+02  0.45073480195E+02  0.47000000000E+01 0.  1.
          5    1    4    4  502    0  0.64447142764E+02 -0.13582024481E+02  0.91403154247E+02  0.11275873450E+03  0.47000000000E+01 0.  1.
         -5    1    4    4    0  502 -0.45478616904E+02 -0.12114629559E+02  0.35555040736E+01  0.47432061457E+02  0.47000000000E+01 0.  1.
<mgrwt>
<rscale>  0 0.25935522E+03</rscale>
<asrwt>0</asrwt>
<pdfrwt beam="1">  1       21 0.35654875E-01 0.25935522E+03</pdfrwt>
<pdfrwt beam="2">  1       21 0.11163089E-01 0.25935522E+03</pdfrwt>
<totfact> 0.49981447E+05</totfact>
</mgrwt>
</event>
<event>
 8    1  0.9123825E-006  0.2706744E+03  0.7546771E-02  0.1100894E+00
         21   -1    0    0  504  503  0.00000000000E+00  0.00000000000E+00  0.12721031750E+04  0.12721031750E+04  0.00000000000E+00 0.  1.
         21   -1    0    0  503  504 -0.00000000000E+00 -0.00000000000E+00 -0.14398331383E+02  0.14398331383E+02  0.00000000000E+00 0.  1.
         25    2    1    2    0    0 -0.44903550159E+01  0.32619825791E+02  0.43798358067E+03  0.45665368908E+03  0.12497503147E+03 0.  0.
         25    2    1    2    0    0  0.44903550159E+01 -0.32619825791E+02  0.81972126296E+03  0.82984781732E+03  0.12498093708E+03 0.  0.
          5    1    3    3  501    0  0.31168228020E+02  0.27788777883E+02  0.40633461293E+03  0.40850163069E+03  0.47000000000E+01 0. -1.
         -5    1    3    3    0  501 -0.35658583036E+02  0.48310479078E+01  0.31648967743E+02  0.48152058390E+02  0.47000000000E+01 0. -1.
          5    1    4    4  502    0  0.33991648218E+02  0.22884647555E+02  0.11249272347E+03  0.11981586738E+03  0.47000000000E+01 0. -1.
         -5    1    4    4    0  502 -0.29501293202E+02 -0.55504473346E+02  0.70722853949E+03  0.71003194993E+03  0.47000000000E+01 0. -1.
<mgrwt>
<rscale>  0 0.27067444E+03</rscale>
<asrwt>0</asrwt>
<pdfrwt beam="1">  1       21 0.19570809E+00 0.27067444E+03</pdfrwt>
<pdfrwt beam="2">  1       21 0.22151289E-02 0.27067444E+03</pdfrwt>
<totfact> 0.14377723E+05</totfact>
</mgrwt>
</event>
<event>
 8    1  0.9123825E-006  0.2839347E+03  0.7546771E-02  0.1093559E+00
         21   -1    0    0  504  503  0.00000000000E+00  0.00000000000E+00  0.22321079509E+03  0.22321079509E+03  0.00000000000E+00 0. -1.
         21   -1    0    0  503  504 -0.00000000000E+00 -0.00000000000E+00 -0.90294570350E+02  0.90294570350E+02  0.00000000000E+00 0. -1.
         25    2    1    2    0    0  0.63532741021E+02  0.21594036176E+02  0.60720313663E+02  0.15432173466E+03  0.12500211885E+03 0.  0.
         25    2    1    2    0    0 -0.63532741021E+02 -0.21594036176E+02  0.72195911078E+02  0.15918363078E+03  0.12499786859E+03 0.  0.
          5    1    3    3  501    0  0.35259392129E+02  0.68947735148E+02  0.61440811093E+02  0.98965035154E+02  0.47000000000E+01 0.  1.
         -5    1    3    3    0  501  0.28273348893E+02 -0.47353698972E+02 -0.72049743001E+00  0.55356699509E+02  0.47000000000E+01 0.  1.
          5    1    4    4  502    0 -0.64004485395E+02 -0.40534025702E+02  0.99793042211E+02  0.12538071089E+03  0.47000000000E+01 0. -1.
         -5    1    4    4    0  502  0.47174437412E+00  0.18939989526E+02 -0.27597131133E+02  0.33802919886E+02  0.47000000000E+01 0. -1.
<mgrwt>
<rscale>  0 0.28393466E+03</rscale>
<asrwt>0</asrwt>
<pdfrwt beam="1">  1       21 0.34340122E-01 0.28393466E+03</pdfrwt>
<pdfrwt beam="2">  1       21 0.13891472E-01 0.28393466E+03</pdfrwt>
<totfact> 0.36123288E+05</totfact>
</mgrwt>
</event>
<event>
 8    1  0.9123825E-006  0.3310763E+03  0.7546771E-02  0.1070662E+00
         21   -1    0    0  504  503  0.00000000000E+00  0.00000000000E+00  0.35482467636E+03  0.35482467636E+03  0.00000000000E+00 0. -1.
         21   -1    0    0  503  504 -0.00000000000E+00 -0.00000000000E+00 -0.77229336412E+02  0.77229336412E+02  0.00000000000E+00 0. -1.
         25    2    1    2    0    0  0.25796470647E+02 -0.10173801301E+03  0.10276207060E+03  0.19287336666E+03  0.12499604483E+03 0.  0.
         25    2    1    2    0    0 -0.25796470647E+02  0.10173801301E+03  0.17483326935E+03  0.23918064612E+03  0.12499851285E+03 0.  0.
          5    1    3    3  501    0  0.33957549413E+02 -0.34559380609E+02 -0.19991411188E+02  0.52623307303E+02  0.47000000000E+01 0. -1.
         -5    1    3    3    0  501 -0.81610787662E+01 -0.67178632404E+02  0.12275348179E+03  0.14025005935E+03  0.47000000000E+01 0. -1.
          5    1    4    4  502    0 -0.13153743831E+02 -0.12125333269E+02  0.10128412477E+03  0.10295925706E+03  0.47000000000E+01 0. -1.
         -5    1    4    4    0  502 -0.12642726816E+02  0.11386334628E+03  0.73549144577E+02  0.13622138905E+03  0.47000000000E+01 0. -1.
<mgrwt>
<rscale>  0 0.33107627E+03</rscale>
<asrwt>0</asrwt>
<pdfrwt beam="1">  1       21 0.54588411E-01 0.33107627E+03</pdfrwt>
<pdfrwt beam="2">  1       21 0.11881437E-01 0.33107627E+03</pdfrwt>
<totfact> 0.18238791E+05</totfact>
</mgrwt>
</event>
<event>
 8    1  0.9123825E-006  0.2599894E+03  0.7546771E-02  0.1107150E+00
         21   -1    0    0  504  503  0.00000000000E+00  0.00000000000E+00  0.11099911680E+04  0.11099911680E+04  0.00000000000E+00 0.  1.
         21   -1    0    0  503  504 -0.00000000000E+00 -0.00000000000E+00 -0.15224108553E+02  0.15224108553E+02  0.00000000000E+00 0.  1.
         25    2    1    2    0    0  0.26954596468E+02 -0.22395861285E+02  0.51811728518E+03  0.53413355815E+03  0.12500004744E+03 0.  0.
         25    2    1    2    0    0 -0.26954596468E+02  0.22395861285E+02  0.57664977423E+03  0.59108171837E+03  0.12499804318E+03 0.  0.
          5    1    3    3  501    0  0.71745036438E+02 -0.76315498988E+01  0.20342114375E+03  0.21588849560E+03  0.47000000000E+01 0. -1.
         -5    1    3    3    0  501 -0.44790439970E+02 -0.14764311387E+02  0.31469614143E+03  0.31824506255E+03  0.47000000000E+01 0. -1.
          5    1    4    4  502    0  0.27475323569E+02  0.58176385030E+02  0.28802381607E+03  0.29515960734E+03  0.47000000000E+01 0.  1.
         -5    1    4    4    0  502 -0.54429920037E+02 -0.35780523744E+02  0.28862595816E+03  0.29592211104E+03  0.47000000000E+01 0.  1.
<mgrwt>
<rscale>  0 0.25998943E+03</rscale>
<asrwt>0</asrwt>
<pdfrwt beam="1">  1       21 0.17076781E+00 0.25998943E+03</pdfrwt>
<pdfrwt beam="2">  1       21 0.23421714E-02 0.25998943E+03</pdfrwt>
<totfact> 0.19500901E+05</totfact>
</mgrwt>
</event>
<event>
 8    1  0.9123825E-006  0.2676272E+03  0.7546771E-02  0.1102645E+00
         21   -1    0    0  504  503  0.00000000000E+00  0.00000000000E+00  0.15096466282E+03  0.15096466282E+03  0.00000000000E+00 0.  1.
         21   -1    0    0  503  504 -0.00000000000E+00 -0.00000000000E+00 -0.11861103006E+03  0.11861103006E+03  0.00000000000E+00 0.  1.
         25    2    1    2    0    0 -0.47286635857E+02  0.54029093863E+01  0.12395686553E+02  0.13433312827E+03  0.12500607563E+03 0.  0.
         25    2    1    2    0    0  0.47286635857E+02 -0.54029093863E+01  0.19957946206E+02  0.13524256461E+03  0.12500805696E+03 0.  0.
          5    1    3    3  501    0 -0.74567292242E+02  0.16928045354E+02 -0.30111110356E+02  0.82314086029E+02  0.47000000000E+01 0. -1.
         -5    1    3    3    0  501  0.27280656386E+02 -0.11525135968E+02  0.42506796909E+02  0.52019042238E+02  0.47000000000E+01 0. -1.
          5    1    4    4  502    0  0.73543601288E+02 -0.11883623407E+02 -0.28212896076E+02  0.79799369050E+02  0.47000000000E+01 0.  1.
         -5    1    4    4    0  502 -0.26256965431E+02  0.64807140208E+01  0.48170842282E+02  0.55443195561E+02  0.47000000000E+01 0.  1.
<mgrwt>
<rscale>  0 0.26762716E+03</rscale>
<asrwt>0</asrwt>
<pdfrwt beam="1">  1       21 0.23225333E-01 0.26762716E+03</pdfrwt>
<pdfrwt beam="2">  1       21 0.18247851E-01 0.26762716E+03</pdfrwt>
<totfact> 0.46999818E+05</totfact>
</mgrwt>
</event>
<event>
 8    1  0.9123825E-006  0.3557829E+03  0.7546771E-02  0.1060266E+00
         21   -1    0    0  504  503  0.00000000000E+00  0.00000000000E+00  0.72247183267E+02  0.72247183267E+02  0.00000000000E+00 0. -1.
         21   -1    0    0  503  504 -0.00000000000E+00 -0.00000000000E+00 -0.43801530685E+03  0.43801530685E+03  0.00000000000E+00 0. -1.
         25    2    1    2    0    0 -0.37679609902E+02 -0.10363402509E+03 -0.27198535305E+03  0.31899961995E+03  0.12499984438E+03 0.  0.
         25    2    1    2    0    0  0.37679609902E+02  0.10363402509E+03 -0.93782770534E+02  0.19126287017E+03  0.12500605304E+03 0.  0.
          5    1    3    3  501    0  0.43254224444E+02 -0.27541414406E+02 -0.12092208418E+03  0.13142944070E+03  0.47000000000E+01 0. -1.
         -5    1    3    3    0  501 -0.80933834345E+02 -0.76092610683E+02 -0.15106326886E+03  0.18757017924E+03  0.47000000000E+01 0. -1.
          5    1    4    4  502    0 -0.27962653873E+02 -0.11179541207E+02 -0.26753436307E+01  0.30596398755E+02  0.47000000000E+01 0.  1.
         -5    1    4    4    0  502  0.65642263775E+02  0.11481356630E+03 -0.91107426904E+02  0.16066647141E+03  0.47000000000E+01 0.  1.
<mgrwt>
<rscale>  0 0.35578292E+03</rscale>
<asrwt>0</asrwt>
<pdfrwt beam="1">  1       21 0.11114951E-01 0.35578292E+03</pdfrwt>
<pdfrwt beam="2">  1       21 0.67386970E-01 0.35578292E+03</pdfrwt>
<totfact> 0.12922908E+05</totfact>
</mgrwt>
</event>
<event>
 8    1  0.9123825E-006  0.2971194E+03  0.7546771E-02  0.1086690E+00
         21   -1    0    0  504  503  0.00000000000E+00  0.00000000000E+00  0.67159975261E+03  0.67159975261E+03  0.00000000000E+00 0. -1.
         21   -1    0    0  503  504 -0.00000000000E+00 -0.00000000000E+00 -0.32861816494E+02  0.32861816494E+02  0.00000000000E+00 0. -1.
         25    2    1    2    0    0 -0.69650890925E+02  0.95193491352E+01  0.41128352613E+03  0.43556956633E+03  0.12499937452E+03 0.  0.
         25    2    1    2    0    0  0.69650890925E+02 -0.95193491352E+01  0.22745440999E+03  0.26889200278E+03  0.12500214367E+03 0.  0.
          5    1    3    3  501    0  0.32543364601E+02 -0.14512099498E+02  0.14277603937E+03  0.14723029250E+03  0.47000000000E+01 0.  1.
         -5    1    3    3    0  501 -0.10219425553E+03  0.24031448634E+02  0.26850748676E+03  0.28833927383E+03  0.47000000000E+01 0.  1.
          5    1    4    4  502    0  0.94564372627E+02  0.24711511187E+02  0.13154896341E+03  0.16395212451E+03  0.47000000000E+01 0. -1.
         -5    1    4    4    0  502 -0.24913481702E+02 -0.34230860322E+02  0.95905446576E+02  0.10493987827E+03  0.47000000000E+01 0. -1.
<mgrwt>
<rscale>  0 0.29711942E+03</rscale>
<asrwt>0</asrwt>
<pdfrwt beam="1">  1       21 0.10332303E+00 0.29711942E+03</pdfrwt>
<pdfrwt beam="2">  1       21 0.50556646E-02 0.29711942E+03</pdfrwt>
<totfact> 0.19415376E+05</totfact>
</mgrwt>
</event>
<event>
 8    1  0.9123825E-006  0.3496280E+03  0.7546771E-02  0.1062768E+00
         21   -1    0    0  504  503  0.00000000000E+00  0.00000000000E+00  0.99967749572E+02  0.99967749572E+02  0.00000000000E+00 0.  1.
         21   -1    0    0  503  504 -0.00000000000E+00 -0.00000000000E+00 -0.30569788020E+03  0.30569788020E+03  0.00000000000E+00 0.  1.
         25    2    1    2    0    0  0.45080644896E+02 -0.10697228843E+03 -0.14728083279E+03  0.22535727276E+03  0.12497568421E+03 0.  0.
         25    2    1    2    0    0 -0.45080644896E+02  0.10697228843E+03 -0.58449297839E+02  0.18030835701E+03  0.12497779064E+03 0.  0.
          5    1    3    3  501    0 -0.33252417336E+02 -0.73201722597E+02 -0.97567911188E+02  0.12651404168E+03  0.47000000000E+01 0. -1.
         -5    1    3    3    0  501  0.78333062233E+02 -0.33770565836E+02 -0.49712921604E+02  0.98843231078E+02  0.47000000000E+01 0. -1.
          5    1    4    4  502    0 -0.38930054894E+02  0.10662195754E+03 -0.91806674041E+02  0.14606281663E+03  0.47000000000E+01 0.  1.
         -5    1    4    4    0  502 -0.61505900025E+01  0.35033089465E+00  0.33357376201E+02  0.34245540384E+02  0.47000000000E+01 0.  1.
<mgrwt>
<rscale>  0 0.34962797E+03</rscale>
<asrwt>0</asrwt>
<pdfrwt beam="1">  1       21 0.15379654E-01 0.34962797E+03</pdfrwt>
<pdfrwt beam="2">  1       21 0.47030442E-01 0.34962797E+03</pdfrwt>
<totfact> 0.15538063E+05</totfact>
</mgrwt>
</event>
<event>
 8    1  0.9123825E-006  0.3533329E+03  0.7546771E-02  0.1061255E+00
         21   -1    0    0  504  503  0.00000000000E+00  0.00000000000E+00  0.49040694488E+03  0.49040694488E+03  0.00000000000E+00 0.  1.
         21   -1    0    0  503  504 -0.00000000000E+00 -0.00000000000E+00 -0.63643115444E+02  0.63643115444E+02  0.00000000000E+00 0.  1.
         25    2    1    2    0    0  0.11923500649E+03  0.17152202550E+02  0.16195244688E+03  0.23740872851E+03  0.12499249777E+03 0.  0.
         25    2    1    2    0    0 -0.11923500649E+03 -0.17152202550E+02  0.26481138256E+03  0.31664133181E+03  0.12500191941E+03 0.  0.
          5    1    3    3  501    0  0.66538100359E+02  0.17013141470E+02  0.19291608539E+01  0.68866373824E+02  0.47000000000E+01 0. -1.
         -5    1    3    3    0  501  0.52696906128E+02  0.13906108066E+00  0.16002328602E+03  0.16854235469E+03  0.47000000000E+01 0. -1.
          5    1    4    4  502    0 -0.49533441509E+02 -0.57858972196E+02  0.19648425637E+03  0.21078276849E+03  0.47000000000E+01 0. -1.
         -5    1    4    4    0  502 -0.69701564978E+02  0.40706769646E+02  0.68327126184E+02  0.10585856332E+03  0.47000000000E+01 0. -1.
<mgrwt>
<rscale>  0 0.35333285E+03</rscale>
<asrwt>0</asrwt>
<pdfrwt beam="1">  1       21 0.75447220E-01 0.35333285E+03</pdfrwt>
<pdfrwt beam="2">  1       21 0.97912488E-02 0.35333285E+03</pdfrwt>
<totfact> 0.12595897E+05</totfact>
</mgrwt>
</event>
<event>
 8    1  0.9123825E-006  0.3488847E+03  0.7546771E-02  0.1063074E+00
         21   -1    0    0  504  503  0.00000000000E+00  0.00000000000E+00  0.54408083063E+03  0.54408083063E+03  0.00000000000E+00 0. -1.
         21   -1    0    0  503  504 -0.00000000000E+00 -0.00000000000E+00 -0.55929419036E+02  0.55929419036E+02  0.00000000000E+00 0. -1.
         25    2    1    2    0    0  0.11380125652E+03 -0.42384411818E+02  0.23085707850E+03  0.28925505747E+03  0.12500533280E+03 0.  0.
         25    2    1    2    0    0 -0.11380125652E+03  0.42384411818E+02  0.25729433310E+03  0.31075519220E+03  0.12498500423E+03 0.  0.
          5    1    3    3  501    0  0.11784083085E+03  0.96131425549E+01  0.18524210866E+03  0.21980810437E+03  0.47000000000E+01 0.  1.
         -5    1    3    3    0  501 -0.40395743319E+01 -0.51997554373E+02  0.45614969835E+02  0.69446953098E+02  0.47000000000E+01 0.  1.
          5    1    4    4  502    0  0.35933219122E+01  0.53084083526E+02  0.10789249465E+03  0.12038983465E+03  0.47000000000E+01 0.  1.
         -5    1    4    4    0  502 -0.11739457843E+03 -0.10699671708E+02  0.14940183845E+03  0.19036535754E+03  0.47000000000E+01 0.  1.
<mgrwt>
<rscale>  0 0.34888465E+03</rscale>
<asrwt>0</asrwt>
<pdfrwt beam="1">  1       21 0.83704739E-01 0.34888465E+03</pdfrwt>
<pdfrwt beam="2">  1       21 0.86045264E-02 0.34888465E+03</pdfrwt>
<totfact> 0.12505141E+05</totfact>
</mgrwt>
</event>
<event>
 8    1  0.9123825E-006  0.2902590E+03  0.7546771E-02  0.1090214E+00
         21   -1    0    0  504  503  0.00000000000E+00  0.00000000000E+00  0.18850290828E+03  0.18850290828E+03  0.00000000000E+00 0. -1.
         21   -1    0    0  503  504 -0.00000000000E+00 -0.00000000000E+00 -0.11173602048E+03  0.11173602048E+03  0.00000000000E+00 0. -1.
         25    2    1    2    0    0 -0.45902593819E+02  0.35251758493E+02  0.85644912629E+02  0.16220176963E+03  0.12499851366E+03 0.  0.
         25    2    1    2    0    0  0.45902593819E+02 -0.35251758493E+02 -0.88780248245E+01  0.13803715913E+03  0.12500281348E+03 0.  0.
          5    1    3    3  501    0 -0.17102711202E+02 -0.16202227528E+02  0.98737171870E+02  0.10161758714E+03  0.47000000000E+01 0.  1.
         -5    1    3    3    0  501 -0.28799882617E+02  0.51453986021E+02 -0.13092259241E+02  0.60584182492E+02  0.47000000000E+01 0.  1.
          5    1    4    4  502    0 -0.27368554817E+02  0.19658920499E+02  0.22888604555E+02  0.41005965010E+02  0.47000000000E+01 0. -1.
         -5    1    4    4    0  502  0.73271148636E+02 -0.54910678991E+02 -0.31766629379E+02  0.97031194117E+02  0.47000000000E+01 0. -1.
<mgrwt>
<rscale>  0 0.29025895E+03</rscale>
<asrwt>0</asrwt>
<pdfrwt beam="1">  1       21 0.29000447E-01 0.29025895E+03</pdfrwt>
<pdfrwt beam="2">  1       21 0.17190157E-01 0.29025895E+03</pdfrwt>
<totfact> 0.34046819E+05</totfact>
</mgrwt>
</event>
<event>
 8    1  0.9123825E-006  0.2658030E+03  0.7546771E-02  0.1103706E+00
         21   -1    0    0  504  503  0.00000000000E+00  0.00000000000E+00  0.68852327722E+03  0.68852327722E+03  0.00000000000E+00 0.  1.
         21   -1    0    0  503  504 -0.00000000000E+00 -0.00000000000E+00 -0.25653180851E+02  0.25653180851E+02  0.00000000000E+00 0.  1.
         25    2    1    2    0    0  0.27805673227E+02 -0.53873559628E+01  0.23690237473E+03  0.26934825494E+03  0.12499427273E+03 0.  0.
         25    2    1    2    0    0 -0.27805673227E+02  0.53873559628E+01  0.42596772164E+03  0.44482820314E+03  0.12498580463E+03 0.  0.
          5    1    3    3  501    0  0.63975205425E+02  0.24726708323E+02  0.80048979545E+02  0.10551855827E+03  0.47000000000E+01 0. -1.
         -5    1    3    3    0  501 -0.36169532198E+02 -0.30114064286E+02  0.15685339519E+03  0.16382969666E+03  0.47000000000E+01 0. -1.
          5    1    4    4  502    0  0.37447891861E+02  0.38478409020E+02  0.20754575812E+03  0.21443009182E+03  0.47000000000E+01 0.  1.
         -5    1    4    4    0  502 -0.65253565088E+02 -0.33091053057E+02  0.21842196352E+03  0.23039811131E+03  0.47000000000E+01 0.  1.
<mgrwt>
<rscale>  0 0.26580303E+03</rscale>
<asrwt>0</asrwt>
<pdfrwt beam="1">  1       21 0.10592664E+00 0.26580303E+03</pdfrwt>
<pdfrwt beam="2">  1       21 0.39466437E-02 0.26580303E+03</pdfrwt>
<totfact> 0.28065223E+05</totfact>
</mgrwt>
</event>
<event>
 8    1  0.9123825E-006  0.2710583E+03  0.7546771E-02  0.1100675E+00
         21   -1    0    0  504  503  0.00000000000E+00  0.00000000000E+00  0.18147726175E+03  0.18147726175E+03  0.00000000000E+00 0.  1.
         21   -1    0    0  503  504 -0.00000000000E+00 -0.00000000000E+00 -0.10121460220E+03  0.10121460220E+03  0.00000000000E+00 0.  1.
         25    2    1    2    0    0 -0.29335756364E+02 -0.18982646045E+01 -0.50707128955E+01  0.12851535226E+03  0.12500517440E+03 0.  0.
         25    2    1    2    0    0  0.29335756364E+02  0.18982646045E+01  0.85333372447E+02  0.15417651168E+03  0.12499768914E+03 0.  0.
          5    1    3    3  501    0 -0.48267779680E+02  0.45078117607E+02 -0.29022768474E+02  0.72292643693E+02  0.47000000000E+01 0.  1.
         -5    1    3    3    0  501  0.18932023316E+02 -0.46976382211E+02  0.23952055578E+02  0.56222708570E+02  0.47000000000E+01 0.  1.
          5    1    4    4  502    0  0.47635507868E+02 -0.52365549530E+02  0.46651512661E+02  0.84910223301E+02  0.47000000000E+01 0.  1.
         -5    1    4    4    0  502 -0.18299751503E+02  0.54263814135E+02  0.38681859785E+02  0.69266288381E+02  0.47000000000E+01 0.  1.
<mgrwt>
<rscale>  0 0.27105829E+03</rscale>
<asrwt>0</asrwt>
<pdfrwt beam="1">  1       21 0.27919579E-01 0.27105829E+03</pdfrwt>
<pdfrwt beam="2">  1       21 0.15571477E-01 0.27105829E+03</pdfrwt>
<totfact> 0.44187400E+05</totfact>
</mgrwt>
</event>
<event>
 8    1  0.9123825E-006  0.2786774E+03  0.7546771E-02  0.1096414E+00
         21   -1    0    0  504  503  0.00000000000E+00  0.00000000000E+00  0.73359858797E+03  0.73359858797E+03  0.00000000000E+00 0.  1.
         21   -1    0    0  503  504 -0.00000000000E+00 -0.00000000000E+00 -0.26465798324E+02  0.26465798324E+02  0.00000000000E+00 0.  1.
         25    2    1    2    0    0 -0.15538360831E+02  0.50900287916E+02  0.26964647266E+03  0.30196897302E+03  0.12507501942E+03 0.  0.
         25    2    1    2    0    0  0.15538360831E+02 -0.50900287916E+02  0.43748631699E+03  0.45809541327E+03  0.12499940057E+03 0.  0.
          5    1    3    3  501    0 -0.26870337445E+02 -0.27693377449E+02  0.17040667596E+03  0.17478404790E+03  0.47000000000E+01 0.  1.
         -5    1    3    3    0  501  0.11331976614E+02  0.78593665365E+02  0.99239796706E+02  0.12718492513E+03  0.47000000000E+01 0.  1.
          5    1    4    4  502    0  0.39749939792E+02 -0.34719908977E+02  0.42096453490E+03  0.42428617634E+03  0.47000000000E+01 0. -1.
         -5    1    4    4    0  502 -0.24211578961E+02 -0.16180378939E+02  0.16521782091E+02  0.33809236931E+02  0.47000000000E+01 0. -1.
<mgrwt>
<rscale>  0 0.27867739E+03</rscale>
<asrwt>0</asrwt>
<pdfrwt beam="1">  1       21 0.11286131E+00 0.27867739E+03</pdfrwt>
<pdfrwt beam="2">  1       21 0.40716618E-02 0.27867739E+03</pdfrwt>
<totfact> 0.22726850E+05</totfact>
</mgrwt>
</event>
<event>
 8    1  0.9123825E-006  0.2782794E+03  0.7546771E-02  0.1096632E+00
         21   -1    0    0  504  503  0.00000000000E+00  0.00000000000E+00  0.10668155179E+03  0.10668155179E+03  0.00000000000E+00 0.  1.
         21   -1    0    0  503  504 -0.00000000000E+00 -0.00000000000E+00 -0.18147327286E+03  0.18147327286E+03  0.00000000000E+00 0.  1.
         25    2    1    2    0    0  0.32610233559E+02  0.50041754255E+02 -0.23951735276E+02  0.14057886021E+03  0.12498450230E+03 0.  0.
         25    2    1    2    0    0 -0.32610233559E+02 -0.50041754255E+02 -0.50839985802E+02  0.14757596443E+03  0.12500542636E+03 0.  0.
          5    1    3    3  501    0 -0.62225164415E+01  0.79626102107E+02 -0.39369182810E+02  0.89168707531E+02  0.47000000000E+01 0.  1.
         -5    1    3    3    0  501  0.38832750000E+02 -0.29584347852E+02  0.15417447534E+02  0.51410152683E+02  0.47000000000E+01 0.  1.
          5    1    4    4  502    0  0.12667078394E+02 -0.80758306574E+02 -0.18848338407E+02  0.84022073388E+02  0.47000000000E+01 0. -1.
         -5    1    4    4    0  502 -0.45277311953E+02  0.30716552318E+02 -0.31991647396E+02  0.63553891046E+02  0.47000000000E+01 0. -1.
<mgrwt>
<rscale>  0 0.27827936E+03</rscale>
<asrwt>0</asrwt>
<pdfrwt beam="1">  1       21 0.16412546E-01 0.27827936E+03</pdfrwt>
<pdfrwt beam="2">  1       21 0.27918965E-01 0.27827936E+03</pdfrwt>
<totfact> 0.40049662E+05</totfact>
</mgrwt>
</event>
<event>
 8    1  0.9123825E-006  0.3103618E+03  0.7546771E-02  0.1080173E+00
         21   -1    0    0  504  503  0.00000000000E+00  0.00000000000E+00  0.64089491191E+03  0.64089491191E+03  0.00000000000E+00 0.  1.
         21   -1    0    0  503  504 -0.00000000000E+00 -0.00000000000E+00 -0.37574198455E+02  0.37574198455E+02  0.00000000000E+00 0.  1.
         25    2    1    2    0    0 -0.77332159424E+02 -0.29533661748E+02  0.38923971678E+03  0.41711432196E+03  0.12499720160E+03 0.  0.
         25    2    1    2    0    0  0.77332159424E+02  0.29533661748E+02  0.21408099667E+03  0.26135478840E+03  0.12499260869E+03 0.  0.
          5    1    3    3  501    0  0.19338219151E+02 -0.30458672929E+02  0.37293893806E+02  0.52102034430E+02  0.47000000000E+01 0. -1.
         -5    1    3    3    0  501 -0.96670378575E+02  0.92501118033E+00  0.35194582297E+03  0.36501228753E+03  0.47000000000E+01 0. -1.
          5    1    4    4  502    0 -0.56253306046E+00 -0.43070813009E+02  0.61640049401E+02  0.75345849699E+02  0.47000000000E+01 0. -1.
         -5    1    4    4    0  502  0.77894692485E+02  0.72604474757E+02  0.15244094727E+03  0.18600893870E+03  0.47000000000E+01 0. -1.
<mgrwt>
<rscale>  0 0.31036181E+03</rscale>
<asrwt>0</asrwt>
<pdfrwt beam="1">  1       21 0.98599209E-01 0.31036181E+03</pdfrwt>
<pdfrwt beam="2">  1       21 0.57806464E-02 0.31036181E+03</pdfrwt>
<totfact> 0.17205957E+05</totfact>
</mgrwt>
</event>
<event>
 8    1  0.9123825E-006  0.4502974E+03  0.7546771E-02  0.1027633E+00
         21   -1    0    0  504  503  0.00000000000E+00  0.00000000000E+00  0.51055826028E+03  0.51055826028E+03  0.00000000000E+00 0. -1.
         21   -1    0    0  503  504 -0.00000000000E+00 -0.00000000000E+00 -0.99287281527E+02  0.99287281527E+02  0.00000000000E+00 0. -1.
         25    2    1    2    0    0  0.10446363546E+03 -0.12342612938E+03  0.77721031724E+02  0.21865943640E+03  0.12499891921E+03 0.  0.
         25    2    1    2    0    0 -0.10446363546E+03  0.12342612938E+03  0.33354994702E+03  0.39118610541E+03  0.12499736539E+03 0.  0.
          5    1    3    3  501    0  0.89941291519E+02 -0.27237550435E+02  0.57199279425E-01  0.94092578589E+02  0.47000000000E+01 0.  1.
         -5    1    3    3    0  501  0.14522343944E+02 -0.96188578949E+02  0.77663832445E+02  0.12456685781E+03  0.47000000000E+01 0.  1.
          5    1    4    4  502    0 -0.73990536278E+02  0.35930294463E+02  0.58858101360E+02  0.10125192154E+03  0.47000000000E+01 0.  1.
         -5    1    4    4    0  502 -0.30473099185E+02  0.87495834921E+02  0.27469184566E+03  0.28993418387E+03  0.47000000000E+01 0.  1.
<mgrwt>
<rscale>  0 0.45029742E+03</rscale>
<asrwt>0</asrwt>
<pdfrwt beam="1">  1       21 0.78547423E-01 0.45029742E+03</pdfrwt>
<pdfrwt beam="2">  1       21 0.15274967E-01 0.45029742E+03</pdfrwt>
<totfact> 0.49998781E+04</totfact>
</mgrwt>
</event>
<event>
 8    1  0.9123825E-006  0.3376945E+03  0.7546771E-02  0.1067782E+00
         21   -1    0    0  504  503  0.00000000000E+00  0.00000000000E+00  0.72272751311E+02  0.72272751311E+02  0.00000000000E+00 0.  1.
         21   -1    0    0  503  504 -0.00000000000E+00 -0.00000000000E+00 -0.39446941068E+03  0.39446941068E+03  0.00000000000E+00 0.  1.
         25    2    1    2    0    0 -0.73208527903E+01 -0.70404998547E+02 -0.38457698256E+02  0.14870866411E+03  0.12499925408E+03 0.  0.
         25    2    1    2    0    0  0.73208527903E+01  0.70404998547E+02 -0.28373896112E+03  0.31803349788E+03  0.12500819578E+03 0.  0.
          5    1    3    3  501    0 -0.87403013013E+01  0.46222740787E+01  0.39150356195E+02  0.40652166913E+02  0.47000000000E+01 0.  1.
         -5    1    3    3    0  501  0.14194485110E+01 -0.75027272626E+02 -0.77608054451E+02  0.10805649720E+03  0.47000000000E+01 0.  1.
          5    1    4    4  502    0  0.26688752154E+02  0.70214536380E+02 -0.68173014267E+02  0.10154811906E+03  0.47000000000E+01 0.  1.
         -5    1    4    4    0  502 -0.19367899364E+02  0.19046216643E+00 -0.21556594685E+03  0.21648537882E+03  0.47000000000E+01 0.  1.
<mgrwt>
<rscale>  0 0.33769448E+03</rscale>
<asrwt>0</asrwt>
<pdfrwt beam="1">  1       21 0.11118885E-01 0.33769448E+03</pdfrwt>
<pdfrwt beam="2">  1       21 0.60687602E-01 0.33769448E+03</pdfrwt>
<totfact> 0.16329637E+05</totfact>
</mgrwt>
</event>
<event>
 8    1  0.9123825E-006  0.3234162E+03  0.7546771E-02  0.1074088E+00
         21   -1    0    0  504  503  0.00000000000E+00  0.00000000000E+00  0.84488260516E+03  0.84488260516E+03  0.00000000000E+00 0. -1.
         21   -1    0    0  503  504 -0.00000000000E+00 -0.00000000000E+00 -0.30950466115E+02  0.30950466115E+02  0.00000000000E+00 0. -1.
         25    2    1    2    0    0 -0.40928814152E+01 -0.85981045387E+02  0.25580588266E+03  0.29744027950E+03  0.12499831367E+03 0.  0.
         25    2    1    2    0    0  0.40928814152E+01  0.85981045387E+02  0.55812625639E+03  0.57839279178E+03  0.12499524659E+03 0.  0.
          5    1    3    3  501    0  0.23618355005E+02 -0.10632107496E+03  0.22890583379E+03  0.25353888936E+03  0.47000000000E+01 0. -1.
         -5    1    3    3    0  501 -0.27711236421E+02  0.20340029572E+02  0.26900048870E+02  0.43901390139E+02  0.47000000000E+01 0. -1.
          5    1    4    4  502    0  0.39212814919E+02 -0.11175019928E+02  0.89075047464E+02  0.98076398817E+02  0.47000000000E+01 0.  1.
         -5    1    4    4    0  502 -0.35119933504E+02  0.97156065315E+02  0.46905120893E+03  0.48031639297E+03  0.47000000000E+01 0.  1.
<mgrwt>
<rscale>  0 0.32341621E+03</rscale>
<asrwt>0</asrwt>
<pdfrwt beam="1">  1       21 0.12998192E+00 0.32341621E+03</pdfrwt>
<pdfrwt beam="2">  1       21 0.47616108E-02 0.32341621E+03</pdfrwt>
<totfact> 0.12060279E+05</totfact>
</mgrwt>
</event>
<event>
 8    1  0.9123825E-006  0.3574413E+03  0.7546771E-02  0.1059602E+00
         21   -1    0    0  504  503  0.00000000000E+00  0.00000000000E+00  0.24239275316E+02  0.24239275316E+02  0.00000000000E+00 0.  1.
         21   -1    0    0  503  504 -0.00000000000E+00 -0.00000000000E+00 -0.13177403683E+04  0.13177403683E+04  0.00000000000E+00 0.  1.
         25    2    1    2    0    0 -0.86714990830E+02  0.85038923036E+02 -0.79529709708E+03  0.81417037959E+03  0.12499930525E+03 0.  0.
         25    2    1    2    0    0  0.86714990830E+02 -0.85038923036E+02 -0.49820399595E+03  0.52780926407E+03  0.12499715834E+03 0.  0.
          5    1    3    3  501    0 -0.54123475724E+01  0.81584608929E+02 -0.25692177800E+03  0.26965947402E+03  0.47000000000E+01 0. -1.
         -5    1    3    3    0  501 -0.81302643257E+02  0.34543141071E+01 -0.53837531908E+03  0.54451090557E+03  0.47000000000E+01 0. -1.
          5    1    4    4  502    0  0.21360379701E+02 -0.78584520758E+02 -0.12790342670E+03  0.15170092052E+03  0.47000000000E+01 0.  1.
         -5    1    4    4    0  502  0.65354611129E+02 -0.64544022783E+01 -0.37030056925E+03  0.37610834355E+03  0.47000000000E+01 0.  1.
<mgrwt>
<rscale>  0 0.35744130E+03</rscale>
<asrwt>0</asrwt>
<pdfrwt beam="1">  1       21 0.37291183E-02 0.35744130E+03</pdfrwt>
<pdfrwt beam="2">  1       21 0.20272934E+00 0.35744130E+03</pdfrwt>
<totfact> 0.52437418E+04</totfact>
</mgrwt>
</event>
<event>
 8    1  0.9123825E-006  0.2893691E+03  0.7546771E-02  0.1090679E+00
         21   -1    0    0  504  503  0.00000000000E+00  0.00000000000E+00  0.98042852594E+01  0.98042852594E+01  0.00000000000E+00 0.  1.
         21   -1    0    0  503  504 -0.00000000000E+00 -0.00000000000E+00 -0.21351496888E+04  0.21351496888E+04  0.00000000000E+00 0.  1.
         25    2    1    2    0    0 -0.55630786411E-01  0.98802970866E+01 -0.52721013677E+03  0.54190730430E+03  0.12496149315E+03 0.  0.
         25    2    1    2    0    0  0.55630786411E-01 -0.98802970866E+01 -0.15981352668E+04  0.16030466698E+04  0.12499868473E+03 0.  0.
          5    1    3    3  501    0 -0.34588666395E+02 -0.45925540426E+02 -0.20025909213E+03  0.20840183561E+03  0.47000000000E+01 0. -1.
         -5    1    3    3    0  501  0.34533035609E+02  0.55805837512E+02 -0.32695104465E+03  0.33350546869E+03  0.47000000000E+01 0. -1.
          5    1    4    4  502    0  0.55530274548E+02 -0.43424753639E+01 -0.11611072724E+04  0.11624520018E+04  0.47000000000E+01 0. -1.
         -5    1    4    4    0  502 -0.55474643762E+02 -0.55378217226E+01 -0.43702799438E+03  0.44059466797E+03  0.47000000000E+01 0. -1.
<mgrwt>
<rscale>  0 0.28936908E+03</rscale>
<asrwt>0</asrwt>
<pdfrwt beam="1">  1       21 0.15083500E-02 0.28936908E+03</pdfrwt>
<pdfrwt beam="2">  1       21 0.32848492E+00 0.28936908E+03</pdfrwt>
<totfact> 0.42017450E+04</totfact>
</mgrwt>
</event>
<event>
 8    1  0.9123825E-006  0.2826251E+03  0.7546771E-02  0.1094264E+00
         21   -1    0    0  504  503  0.00000000000E+00  0.00000000000E+00  0.21127452688E+02  0.21127452688E+02  0.00000000000E+00 0. -1.
         21   -1    0    0  503  504 -0.00000000000E+00 -0.00000000000E+00 -0.94517989748E+03  0.94517989748E+03  0.00000000000E+00 0. -1.
         25    2    1    2    0    0 -0.51207253062E+02 -0.41480505857E+02 -0.46566396055E+03  0.48663250646E+03  0.12500182820E+03 0.  0.
         25    2    1    2    0    0  0.51207253062E+02  0.41480505857E+02 -0.45838848424E+03  0.47967484371E+03  0.12500055228E+03 0.  0.
          5    1    3    3  501    0 -0.92552312430E+02 -0.26171897176E+02 -0.29594750179E+03  0.31122003880E+03  0.47000000000E+01 0.  1.
         -5    1    3    3    0  501  0.41345059368E+02 -0.15308608682E+02 -0.16971645876E+03  0.17541246765E+03  0.47000000000E+01 0.  1.
          5    1    4    4  502    0 -0.84902213504E+01  0.66686502438E+02 -0.31684582304E+03  0.32393292368E+03  0.47000000000E+01 0. -1.
         -5    1    4    4    0  502  0.59697474413E+02 -0.25205996581E+02 -0.14154266120E+03  0.15574192003E+03  0.47000000000E+01 0. -1.
<mgrwt>
<rscale>  0 0.28262515E+03</rscale>
<asrwt>0</asrwt>
<pdfrwt beam="1">  1       21 0.32503759E-02 0.28262515E+03</pdfrwt>
<pdfrwt beam="2">  1       21 0.14541236E+00 0.28262515E+03</pdfrwt>
<totfact> 0.17380164E+05</totfact>
</mgrwt>
</event>
<event>
 8    1  0.9123825E-006  0.2887847E+03  0.7546771E-02  0.1090985E+00
         21   -1    0    0  504  503  0.00000000000E+00  0.00000000000E+00  0.10119906586E+03  0.10119906586E+03  0.00000000000E+00 0.  1.
         21   -1    0    0  503  504 -0.00000000000E+00 -0.00000000000E+00 -0.20602119921E+03  0.20602119921E+03  0.00000000000E+00 0.  1.
         25    2    1    2    0    0  0.61112722410E+02 -0.38567084254E+01 -0.93270594524E+02  0.16755214587E+03  0.12499871496E+03 0.  0.
         25    2    1    2    0    0 -0.61112722410E+02  0.38567084254E+01 -0.11551538832E+02  0.13966811920E+03  0.12499642568E+03 0.  0.
          5    1    3    3  501    0  0.97675858297E+02  0.10044903511E+02 -0.77236996255E+02  0.12501646680E+03  0.47000000000E+01 0.  1.
         -5    1    3    3    0  501 -0.36563135888E+02 -0.13901611937E+02 -0.16033598269E+02  0.42535679069E+02  0.47000000000E+01 0.  1.
          5    1    4    4  502    0  0.88236246761E+01  0.47998504446E+02  0.17240788111E+02  0.51971603363E+02  0.47000000000E+01 0. -1.
         -5    1    4    4    0  502 -0.69936347086E+02 -0.44141796020E+02 -0.28792326943E+02  0.87696515840E+02  0.47000000000E+01 0. -1.
<mgrwt>
<rscale>  0 0.28878472E+03</rscale>
<asrwt>0</asrwt>
<pdfrwt beam="1">  1       21 0.15569087E-01 0.28878472E+03</pdfrwt>
<pdfrwt beam="2">  1       21 0.31695569E-01 0.28878472E+03</pdfrwt>
<totfact> 0.34338743E+05</totfact>
</mgrwt>
</event>
<event>
 8    1  0.9123825E-006  0.2669496E+03  0.7546771E-02  0.1103038E+00
         21   -1    0    0  504  503  0.00000000000E+00  0.00000000000E+00  0.12327284619E+03  0.12327284619E+03  0.00000000000E+00 0.  1.
         21   -1    0    0  503  504 -0.00000000000E+00 -0.00000000000E+00 -0.14452104102E+03  0.14452104102E+03  0.00000000000E+00 0.  1.
         25    2    1    2    0    0  0.10835904748E+02 -0.39058491029E+02 -0.34089795624E+02  0.13575790608E+03  0.12500044937E+03 0.  0.
         25    2    1    2    0    0 -0.10835904748E+02  0.39058491029E+02  0.12841600795E+02  0.13203598113E+03  0.12500244417E+03 0.  0.
          5    1    3    3  501    0  0.38203193993E+02 -0.73650100286E+02 -0.37699331992E+02  0.91253224250E+02  0.47000000000E+01 0.  1.
         -5    1    3    3    0  501 -0.27367289246E+02  0.34591609256E+02  0.36095363676E+01  0.44504681825E+02  0.47000000000E+01 0.  1.
          5    1    4    4  502    0  0.25345914224E+02  0.16069871942E+02  0.60539862011E+02  0.67733455873E+02  0.47000000000E+01 0.  1.
         -5    1    4    4    0  502 -0.36181818972E+02  0.22988619087E+02 -0.47698261216E+02  0.64302525259E+02  0.47000000000E+01 0.  1.
<mgrwt>
<rscale>  0 0.26694958E+03</rscale>
<asrwt>0</asrwt>
<pdfrwt beam="1">  1       21 0.18965053E-01 0.26694958E+03</pdfrwt>
<pdfrwt beam="2">  1       21 0.22234006E-01 0.26694958E+03</pdfrwt>
<totfact> 0.47528651E+05</totfact>
</mgrwt>
</event>
<event>
 8    1  0.9123825E-006  0.3595277E+03  0.7546771E-02  0.1058771E+00
         21   -1    0    0  504  503  0.00000000000E+00  0.00000000000E+00  0.10960851558E+03  0.10960851558E+03  0.00000000000E+00 0.  1.
         21   -1    0    0  503  504 -0.00000000000E+00 -0.00000000000E+00 -0.29482244359E+03  0.29482244359E+03  0.00000000000E+00 0.  1.
         25    2    1    2    0    0  0.45788324820E+01 -0.12555484181E+03 -0.12646179978E+03  0.21772033085E+03  0.12499828659E+03 0.  0.
         25    2    1    2    0    0 -0.45788324820E+01  0.12555484181E+03 -0.58752128231E+02  0.18671062832E+03  0.12499624853E+03 0.  0.
          5    1    3    3  501    0  0.10115485896E+02 -0.12317560738E+03 -0.14916225744E+03  0.19376796008E+03  0.47000000000E+01 0.  1.
         -5    1    3    3    0  501 -0.55366534143E+01 -0.23792344356E+01  0.22700457658E+02  0.23952370768E+02  0.47000000000E+01 0.  1.
          5    1    4    4  502    0 -0.37588657450E+02 -0.83831111121E+01 -0.18175074041E+02  0.42843984842E+02  0.47000000000E+01 0. -1.
         -5    1    4    4    0  502  0.33009824968E+02  0.13393795293E+03 -0.40577054190E+02  0.14386664348E+03  0.47000000000E+01 0. -1.
<mgrwt>
<rscale>  0 0.35952775E+03</rscale>
<asrwt>0</asrwt>
<pdfrwt beam="1">  1       21 0.16862849E-01 0.35952775E+03</pdfrwt>
<pdfrwt beam="2">  1       21 0.45357299E-01 0.35952775E+03</pdfrwt>
<totfact> 0.14097908E+05</totfact>
</mgrwt>
</event>
<event>
 8    1  0.9123825E-006  0.2867216E+03  0.7546771E-02  0.1092073E+00
         21   -1    0    0  504  503  0.00000000000E+00  0.00000000000E+00  0.16347791313E+03  0.16347791313E+03  0.00000000000E+00 0.  1.
         21   -1    0    0  503  504 -0.00000000000E+00 -0.00000000000E+00 -0.12571921317E+03  0.12571921317E+03  0.00000000000E+00 0.  1.
         25    2    1    2    0    0  0.31645038598E+02 -0.44020728698E+02 -0.26086758523E+02  0.13872679843E+03  0.12500149043E+03 0.  0.
         25    2    1    2    0    0 -0.31645038598E+02  0.44020728698E+02  0.63845458480E+02  0.15047032788E+03  0.12500337588E+03 0.  0.
          5    1    3    3  501    0  0.62604865589E+00  0.30651153112E+02  0.27630194834E+02  0.41537968060E+02  0.47000000000E+01 0.  1.
         -5    1    3    3    0  501  0.31018989942E+02 -0.74671881810E+02 -0.53716953357E+02  0.97188830367E+02  0.47000000000E+01 0.  1.
          5    1    4    4  502    0 -0.71708158632E+02 -0.58479296348E+01  0.32731074605E+02  0.79181257506E+02  0.47000000000E+01 0.  1.
         -5    1    4    4    0  502  0.40063120034E+02  0.49868658333E+02  0.31114383876E+02  0.71289070374E+02  0.47000000000E+01 0.  1.
<mgrwt>
<rscale>  0 0.28672157E+03</rscale>
<asrwt>0</asrwt>
<pdfrwt beam="1">  1       21 0.25150448E-01 0.28672157E+03</pdfrwt>
<pdfrwt beam="2">  1       21 0.19341417E-01 0.28672157E+03</pdfrwt>
<totfact> 0.36051416E+05</totfact>
</mgrwt>
</event>
<event>
 8    1  0.9123825E-006  0.3639983E+03  0.7546771E-02  0.1057012E+00
         21   -1    0    0  504  503  0.00000000000E+00  0.00000000000E+00  0.42014083039E+02  0.42014083039E+02  0.00000000000E+00 0. -1.
         21   -1    0    0  503  504 -0.00000000000E+00 -0.00000000000E+00 -0.78839487956E+03  0.78839487956E+03  0.00000000000E+00 0. -1.
         25    2    1    2    0    0 -0.78759984917E+01  0.23593726632E+02 -0.76786551701E+02  0.14879316969E+03  0.12499815013E+03 0.  0.
         25    2    1    2    0    0  0.78759984917E+01 -0.23593726632E+02 -0.66959424482E+03  0.68161579291E+03  0.12499976463E+03 0.  0.
          5    1    3    3  501    0  0.89194195570E+01 -0.37181541376E+02  0.11496980880E+02  0.40203154524E+02  0.47000000000E+01 0.  1.
         -5    1    3    3    0  501 -0.16795418049E+02  0.60775268009E+02 -0.88283532581E+02  0.10859001517E+03  0.47000000000E+01 0.  1.
          5    1    4    4  502    0 -0.57801041568E+02 -0.16496780531E+02 -0.36041047664E+03  0.36541880883E+03  0.47000000000E+01 0. -1.
         -5    1    4    4    0  502  0.65677040060E+02 -0.70969461016E+01 -0.30918376818E+03  0.31619698408E+03  0.47000000000E+01 0. -1.
<mgrwt>
<rscale>  0 0.36399829E+03</rscale>
<asrwt>0</asrwt>
<pdfrwt beam="1">  1       21 0.64637055E-02 0.36399829E+03</pdfrwt>
<pdfrwt beam="2">  1       21 0.12129151E+00 0.36399829E+03</pdfrwt>
<totfact> 0.83985583E+04</totfact>
</mgrwt>
</event>
<event>
 8    1  0.9123825E-006  0.4055622E+03  0.7546771E-02  0.1041871E+00
         21   -1    0    0  504  503  0.00000000000E+00  0.00000000000E+00  0.80650020448E+02  0.80650020448E+02  0.00000000000E+00 0.  1.
         21   -1    0    0  503  504 -0.00000000000E+00 -0.00000000000E+00 -0.50985938339E+03  0.50985938339E+03  0.00000000000E+00 0.  1.
         25    2    1    2    0    0 -0.63243162799E+02 -0.14843141904E+02 -0.42698142163E+03  0.44961956885E+03  0.12499842308E+03 0.  0.
         25    2    1    2    0    0  0.63243162799E+02  0.14843141904E+02 -0.22279413104E+01  0.14088983499E+03  0.12499986151E+03 0.  0.
          5    1    3    3  501    0  0.18307467952E+02 -0.11041765867E+02 -0.89235695443E+01  0.23639036987E+02  0.47000000000E+01 0. -1.
         -5    1    3    3    0  501 -0.81550630751E+02 -0.38013760367E+01 -0.41805785209E+03  0.42598053187E+03  0.47000000000E+01 0. -1.
          5    1    4    4  502    0  0.22258444957E+02 -0.48988799591E+02  0.25832675825E+02  0.59872848583E+02  0.47000000000E+01 0. -1.
         -5    1    4    4    0  502  0.40984717843E+02  0.63831941495E+02 -0.28060617135E+02  0.81016986402E+02  0.47000000000E+01 0. -1.
<mgrwt>
<rscale>  0 0.40556218E+03</rscale>
<asrwt>0</asrwt>
<pdfrwt beam="1">  1       21 0.12407695E-01 0.40556218E+03</pdfrwt>
<pdfrwt beam="2">  1       21 0.78439906E-01 0.40556218E+03</pdfrwt>
<totfact> 0.74275180E+04</totfact>
</mgrwt>
</event>
<event>
 8    1  0.9123825E-006  0.3306462E+03  0.7546771E-02  0.1070851E+00
         21   -1    0    0  504  503  0.00000000000E+00  0.00000000000E+00  0.35686583200E+03  0.35686583200E+03  0.00000000000E+00 0.  1.
         21   -1    0    0  503  504 -0.00000000000E+00 -0.00000000000E+00 -0.76588225041E+02  0.76588225041E+02  0.00000000000E+00 0.  1.
         25    2    1    2    0    0 -0.91078579556E+01 -0.67138374713E+02  0.29555179240E+02  0.14522285521E+03  0.12500261846E+03 0.  0.
         25    2    1    2    0    0  0.91078579556E+01  0.67138374713E+02  0.25072242772E+03  0.28823120183E+03  0.12499990204E+03 0.  0.
          5    1    3    3  501    0  0.56950262547E+02 -0.40112408233E+02  0.67245581261E+01  0.70140198036E+02  0.47000000000E+01 0.  1.
         -5    1    3    3    0  501 -0.66058120503E+02 -0.27025966480E+02  0.22830621114E+02  0.75082657179E+02  0.47000000000E+01 0.  1.
          5    1    4    4  502    0 -0.53202818045E+02  0.13547899782E+02  0.65874293281E+02  0.85881301526E+02  0.47000000000E+01 0.  1.
         -5    1    4    4    0  502  0.62310676001E+02  0.53590474930E+02  0.18484813444E+03  0.20234990030E+03  0.47000000000E+01 0.  1.
<mgrwt>
<rscale>  0 0.33064616E+03</rscale>
<asrwt>0</asrwt>
<pdfrwt beam="1">  1       21 0.54902435E-01 0.33064616E+03</pdfrwt>
<pdfrwt beam="2">  1       21 0.11782804E-01 0.33064616E+03</pdfrwt>
<totfact> 0.18291448E+05</totfact>
</mgrwt>
</event>
<event>
 8    1  0.9123825E-006  0.2958336E+03  0.7546771E-02  0.1087342E+00
         21   -1    0    0  504  503  0.00000000000E+00  0.00000000000E+00  0.63076865004E+03  0.63076865004E+03  0.00000000000E+00 0.  1.
         21   -1    0    0  503  504 -0.00000000000E+00 -0.00000000000E+00 -0.34686864963E+02  0.34686864963E+02  0.00000000000E+00 0.  1.
         25    2    1    2    0    0  0.42654633156E+02 -0.31342114782E+01  0.44763181063E+03  0.46672535581E+03  0.12501631434E+03 0.  0.
         25    2    1    2    0    0 -0.42654633156E+02  0.31342114782E+01  0.14844997444E+03  0.19873015919E+03  0.12500816073E+03 0.  0.
          5    1    3    3  501    0  0.81322896187E+02 -0.47087862363E+01  0.19936026448E+03  0.21541167834E+03  0.47000000000E+01 0. -1.
         -5    1    3    3    0  501 -0.38668263031E+02  0.15745747581E+01  0.24827154616E+03  0.25131367747E+03  0.47000000000E+01 0. -1.
          5    1    4    4  502    0  0.13466918130E+01  0.57412025199E+02  0.41969321652E+02  0.71284417485E+02  0.47000000000E+01 0.  1.
         -5    1    4    4    0  502 -0.44001324969E+02 -0.54277813720E+02  0.10648065279E+03  0.12744574171E+03  0.47000000000E+01 0.  1.
<mgrwt>
<rscale>  0 0.29583365E+03</rscale>
<asrwt>0</asrwt>
<pdfrwt beam="1">  1       21 0.97041322E-01 0.29583365E+03</pdfrwt>
<pdfrwt beam="2">  1       21 0.53364412E-02 0.29583365E+03</pdfrwt>
<totfact> 0.20583636E+05</totfact>
</mgrwt>
</event>
<event>
 8    1  0.9123825E-006  0.3000121E+03  0.7546771E-02  0.1085235E+00
         21   -1    0    0  504  503  0.00000000000E+00  0.00000000000E+00  0.73105367671E+03  0.73105367671E+03  0.00000000000E+00 0.  1.
         21   -1    0    0  503  504 -0.00000000000E+00 -0.00000000000E+00 -0.30779985796E+02  0.30779985796E+02  0.00000000000E+00 0.  1.
         25    2    1    2    0    0 -0.37256580426E+02  0.17278332158E+02  0.53309395151E+03  0.54908706885E+03  0.12498341690E+03 0.  0.
         25    2    1    2    0    0  0.37256580426E+02 -0.17278332158E+02  0.16717973941E+03  0.21274659366E+03  0.12500181717E+03 0.  0.
          5    1    3    3  501    0  0.40415212363E+02  0.32399456828E+02  0.19402428186E+03  0.20087465282E+03  0.47000000000E+01 0.  1.
         -5    1    3    3    0  501 -0.77671792789E+02 -0.15121124670E+02  0.33906966965E+03  0.34821241603E+03  0.47000000000E+01 0.  1.
          5    1    4    4  502    0  0.45298126125E+02 -0.21824394502E+01  0.18323450153E+03  0.18882175675E+03  0.47000000000E+01 0.  1.
         -5    1    4    4    0  502 -0.80415456988E+01 -0.15095892708E+02 -0.16054762124E+02  0.23924836901E+02  0.47000000000E+01 0.  1.
<mgrwt>
<rscale>  0 0.30001214E+03</rscale>
<asrwt>0</asrwt>
<pdfrwt beam="1">  1       21 0.11246978E+00 0.30001214E+03</pdfrwt>
<pdfrwt beam="2">  1       21 0.47353830E-02 0.30001214E+03</pdfrwt>
<totfact> 0.17635097E+05</totfact>
</mgrwt>
</event>
<event>
 8    1  0.9123825E-006  0.2817970E+03  0.7546771E-02  0.1094712E+00
         21   -1    0    0  504  503  0.00000000000E+00  0.00000000000E+00  0.99982657802E+02  0.99982657802E+02  0.00000000000E+00 0. -1.
         21   -1    0    0  503  504 -0.00000000000E+00 -0.00000000000E+00 -0.19855825013E+03  0.19855825013E+03  0.00000000000E+00 0. -1.
         25    2    1    2    0    0  0.28475148063E+02 -0.58197816675E+02 -0.55128408348E+02  0.15119619740E+03  0.12499331493E+03 0.  0.
         25    2    1    2    0    0 -0.28475148063E+02  0.58197816675E+02 -0.43447183982E+02  0.14734471054E+03  0.12499994402E+03 0.  0.
          5    1    3    3  501    0  0.71554178820E+02 -0.48735195003E+01 -0.24139521408E+02  0.75819246849E+02  0.47000000000E+01 0. -1.
         -5    1    3    3    0  501 -0.43079030757E+02 -0.53324297175E+02 -0.30988886940E+02  0.75376950548E+02  0.47000000000E+01 0. -1.
          5    1    4    4  502    0 -0.28739202096E+02  0.13904129047E+02  0.40816587626E+02  0.52032205095E+02  0.47000000000E+01 0.  1.
         -5    1    4    4    0  502  0.26405403300E+00  0.44293687628E+02 -0.84263771608E+02  0.95312505443E+02  0.47000000000E+01 0.  1.
<mgrwt>
<rscale>  0 0.28179696E+03</rscale>
<asrwt>0</asrwt>
<pdfrwt beam="1">  1       21 0.15381947E-01 0.28179696E+03</pdfrwt>
<pdfrwt beam="2">  1       21 0.30547423E-01 0.28179696E+03</pdfrwt>
<totfact> 0.37817027E+05</totfact>
</mgrwt>
</event>
<event>
 8    1  0.9123825E-006  0.3194746E+03  0.7546771E-02  0.1075891E+00
         21   -1    0    0  504  503  0.00000000000E+00  0.00000000000E+00  0.44286771733E+02  0.44286771733E+02  0.00000000000E+00 0.  1.
         21   -1    0    0  503  504 -0.00000000000E+00 -0.00000000000E+00 -0.57615392769E+03  0.57615392769E+03  0.00000000000E+00 0.  1.
         25    2    1    2    0    0  0.99278924966E+01 -0.47276471636E+02 -0.97089122457E+02  0.16547866220E+03  0.12499304830E+03 0.  0.
         25    2    1    2    0    0 -0.99278924966E+01  0.47276471636E+02 -0.43477803350E+03  0.45496203723E+03  0.12499955633E+03 0.  0.
          5    1    3    3  501    0  0.10662740505E+02 -0.63832808070E+02 -0.12023458145E+03  0.13662637373E+03  0.47000000000E+01 0. -1.
         -5    1    3    3    0  501 -0.73484800885E+00  0.16556336435E+02  0.23145458996E+02  0.28852288468E+02  0.47000000000E+01 0. -1.
          5    1    4    4  502    0 -0.14128515112E+02  0.57220360582E+02 -0.43861258490E+03  0.44257979421E+03  0.47000000000E+01 0.  1.
         -5    1    4    4    0  502  0.42006226150E+01 -0.99438889467E+01  0.38345514028E+01  0.12382243020E+02  0.47000000000E+01 0.  1.
<mgrwt>
<rscale>  0 0.31947455E+03</rscale>
<asrwt>0</asrwt>
<pdfrwt beam="1">  1       21 0.68133498E-02 0.31947455E+03</pdfrwt>
<pdfrwt beam="2">  1       21 0.88639062E-01 0.31947455E+03</pdfrwt>
<totfact> 0.16607692E+05</totfact>
</mgrwt>
</event>
<event>
 8    1  0.9123825E-006  0.3912451E+03  0.7546771E-02  0.1046854E+00
         21   -1    0    0  504  503  0.00000000000E+00  0.00000000000E+00  0.13212155444E+03  0.13212155444E+03  0.00000000000E+00 0.  1.
         21   -1    0    0  503  504 -0.00000000000E+00 -0.00000000000E+00 -0.28964376410E+03  0.28964376410E+03  0.00000000000E+00 0.  1.
         25    2    1    2    0    0  0.13600999103E+03 -0.39469773135E+02 -0.23934573174E+02  0.19040588368E+03  0.12499982438E+03 0.  0.
         25    2    1    2    0    0 -0.13600999103E+03  0.39469773135E+02 -0.13358763649E+03  0.23135943486E+03  0.12499980329E+03 0.  0.
          5    1    3    3  501    0  0.13863674986E+03 -0.20312753294E+02  0.20530626463E+02  0.14169104764E+03  0.47000000000E+01 0.  1.
         -5    1    3    3    0  501 -0.26267588318E+01 -0.19157019842E+02 -0.44465199637E+02  0.48714836035E+02  0.47000000000E+01 0.  1.
          5    1    4    4  502    0 -0.14524131938E+03  0.64444966407E+02 -0.98300663258E+02  0.18690453432E+03  0.47000000000E+01 0.  1.
         -5    1    4    4    0  502  0.92313283552E+01 -0.24975193271E+02 -0.35286973229E+02  0.44454900537E+02  0.47000000000E+01 0.  1.
<mgrwt>
<rscale>  0 0.39124511E+03</rscale>
<asrwt>0</asrwt>
<pdfrwt beam="1">  1       21 0.20326393E-01 0.39124511E+03</pdfrwt>
<pdfrwt beam="2">  1       21 0.44560579E-01 0.39124511E+03</pdfrwt>
<totfact> 0.10223598E+05</totfact>
</mgrwt>
</event>
<event>
 8    1  0.9123825E-006  0.2598591E+03  0.7546771E-02  0.1107228E+00
         21   -1    0    0  504  503  0.00000000000E+00  0.00000000000E+00  0.51301102580E+02  0.51301102580E+02  0.00000000000E+00 0. -1.
         21   -1    0    0  503  504 -0.00000000000E+00 -0.00000000000E+00 -0.32907054763E+03  0.32907054763E+03  0.00000000000E+00 0. -1.
         25    2    1    2    0    0 -0.11658924180E+02 -0.22830737211E+02 -0.10305373202E+03  0.16402267403E+03  0.12500477126E+03 0.  0.
         25    2    1    2    0    0  0.11658924180E+02  0.22830737211E+02 -0.17471571303E+03  0.21634897618E+03  0.12499650411E+03 0.  0.
          5    1    3    3  501    0  0.68091204748E+01 -0.70527579616E+02 -0.36169456327E+02  0.79692052170E+02  0.47000000000E+01 0. -1.
         -5    1    3    3    0  501 -0.18468044655E+02  0.47696842404E+02 -0.66884275693E+02  0.84330621862E+02  0.47000000000E+01 0. -1.
          5    1    4    4  502    0 -0.17092802411E+02  0.69835114727E+02 -0.92125737194E+02  0.11695447232E+03  0.47000000000E+01 0.  1.
         -5    1    4    4    0  502  0.28751726591E+02 -0.47004377516E+02 -0.82589975833E+02  0.99394503851E+02  0.47000000000E+01 0.  1.
<mgrwt>
<rscale>  0 0.25985905E+03</rscale>
<asrwt>0</asrwt>
<pdfrwt beam="1">  1       21 0.78924774E-02 0.25985905E+03</pdfrwt>
<pdfrwt beam="2">  1       21 0.50626237E-01 0.25985905E+03</pdfrwt>
<totfact> 0.44969924E+05</totfact>
</mgrwt>
</event>
<event>
 8    1  0.9123825E-006  0.3173007E+03  0.7546771E-02  0.1076898E+00
         21   -1    0    0  504  503  0.00000000000E+00  0.00000000000E+00  0.18983321255E+03  0.18983321255E+03  0.00000000000E+00 0. -1.
         21   -1    0    0  503  504 -0.00000000000E+00 -0.00000000000E+00 -0.13258973639E+03  0.13258973639E+03  0.00000000000E+00 0. -1.
         25    2    1    2    0    0 -0.58085285900E+02  0.71673189676E+02  0.61285945037E+02  0.16700960394E+03  0.12500117676E+03 0.  0.
         25    2    1    2    0    0  0.58085285900E+02 -0.71673189676E+02 -0.40424688774E+01  0.15541334500E+03  0.12500407871E+03 0.  0.
          5    1    3    3  501    0  0.36252277899E+02  0.40215182247E+02  0.32722474684E+02  0.63437677176E+02  0.47000000000E+01 0. -1.
         -5    1    3    3    0  501 -0.94337563799E+02  0.31458007429E+02  0.28563470353E+02  0.10357192676E+03  0.47000000000E+01 0. -1.
          5    1    4    4  502    0  0.24354823655E+01  0.28792666647E+02  0.23118433494E+02  0.37302830914E+02  0.47000000000E+01 0. -1.
         -5    1    4    4    0  502  0.55649803534E+02 -0.10046585632E+03 -0.27160902372E+02  0.11811051409E+03  0.47000000000E+01 0. -1.
<mgrwt>
<rscale>  0 0.31730071E+03</rscale>
<asrwt>0</asrwt>
<pdfrwt beam="1">  1       21 0.29205110E-01 0.31730071E+03</pdfrwt>
<pdfrwt beam="2">  1       21 0.20398421E-01 0.31730071E+03</pdfrwt>
<totfact> 0.24233442E+05</totfact>
</mgrwt>
</event>
<event>
 8    1  0.9123825E-006  0.2505826E+03  0.7546771E-02  0.1112937E+00
         21   -1    0    0  504  503  0.00000000000E+00  0.00000000000E+00  0.54183659994E+03  0.54183659994E+03  0.00000000000E+00 0. -1.
         21   -1    0    0  503  504 -0.00000000000E+00 -0.00000000000E+00 -0.28971666681E+02  0.28971666681E+02  0.00000000000E+00 0. -1.
         25    2    1    2    0    0  0.35074587869E+01  0.13688252067E+01  0.23892910916E+03  0.26967746963E+03  0.12499856987E+03 0.  0.
         25    2    1    2    0    0 -0.35074587869E+01 -0.13688252067E+01  0.27393582410E+03  0.30113079699E+03  0.12499898089E+03 0.  0.
          5    1    3    3  501    0  0.85576560532E+01  0.62053744845E+02  0.13945220047E+03  0.15294739927E+03  0.47000000000E+01 0. -1.
         -5    1    3    3    0  501 -0.50501972663E+01 -0.60684919638E+02  0.99476908688E+02  0.11673007036E+03  0.47000000000E+01 0. -1.
          5    1    4    4  502    0 -0.46808822673E+02 -0.41501829361E+02  0.17399343283E+03  0.18495748806E+03  0.47000000000E+01 0.  1.
         -5    1    4    4    0  502  0.43301363886E+02  0.40133004154E+02  0.99942391270E+02  0.11617330894E+03  0.47000000000E+01 0.  1.
<mgrwt>
<rscale>  0 0.25058260E+03</rscale>
<asrwt>0</asrwt>
<pdfrwt beam="1">  1       21 0.83359470E-01 0.25058260E+03</pdfrwt>
<pdfrwt beam="2">  1       21 0.44571799E-02 0.25058260E+03</pdfrwt>
<totfact> 0.40348490E+05</totfact>
</mgrwt>
</event>
<event>
 8    1  0.9123825E-006  0.2943228E+03  0.7546771E-02  0.1088114E+00
         21   -1    0    0  504  503  0.00000000000E+00  0.00000000000E+00  0.12201794167E+02  0.12201794167E+02  0.00000000000E+00 0.  1.
         21   -1    0    0  503  504 -0.00000000000E+00 -0.00000000000E+00 -0.17748599752E+04  0.17748599752E+04  0.00000000000E+00 0.  1.
         25    2    1    2    0    0  0.75932065276E+02  0.83127079018E+01 -0.79618849335E+03  0.80955273040E+03  0.12499890683E+03 0.  0.
         25    2    1    2    0    0 -0.75932065276E+02 -0.83127079018E+01 -0.96646968772E+03  0.97750903900E+03  0.12500193758E+03 0.  0.
          5    1    3    3  501    0  0.20651130533E+02 -0.54288326612E+02 -0.43008264181E+03  0.43401251178E+03  0.47000000000E+01 0. -1.
         -5    1    3    3    0  501  0.55280934743E+02  0.62601034514E+02 -0.36610585154E+03  0.37554021862E+03  0.47000000000E+01 0. -1.
          5    1    4    4  502    0 -0.10980390061E+02 -0.34530796799E+02 -0.72811917162E+03  0.72903536469E+03  0.47000000000E+01 0. -1.
         -5    1    4    4    0  502 -0.64951675215E+02  0.26218088898E+02 -0.23835051610E+03  0.24847367431E+03  0.47000000000E+01 0. -1.
<mgrwt>
<rscale>  0 0.29432279E+03</rscale>
<asrwt>0</asrwt>
<pdfrwt beam="1">  1       21 0.18771985E-02 0.29432279E+03</pdfrwt>
<pdfrwt beam="2">  1       21 0.27305547E+00 0.29432279E+03</pdfrwt>
<totfact> 0.62272073E+04</totfact>
</mgrwt>
</event>
<event>
 8    1  0.9123825E-006  0.3282755E+03  0.7546771E-02  0.1071902E+00
         21   -1    0    0  504  503  0.00000000000E+00  0.00000000000E+00  0.91348376463E+02  0.91348376463E+02  0.00000000000E+00 0. -1.
         21   -1    0    0  503  504 -0.00000000000E+00 -0.00000000000E+00 -0.29492807650E+03  0.29492807650E+03  0.00000000000E+00 0. -1.
         25    2    1    2    0    0 -0.32516978428E+02 -0.10070875812E+03 -0.11458450833E+03  0.19988668221E+03  0.12500187330E+03 0.  0.
         25    2    1    2    0    0  0.32516978428E+02  0.10070875812E+03 -0.88995191698E+02  0.18638977074E+03  0.12498557775E+03 0.  0.
          5    1    3    3  501    0 -0.13086791226E+02 -0.12859833941E+03 -0.93648069060E+02  0.15968984890E+03  0.47000000000E+01 0.  1.
         -5    1    3    3    0  501 -0.19430187202E+02  0.27889581288E+02 -0.20936439274E+02  0.40196833315E+02  0.47000000000E+01 0.  1.
          5    1    4    4  502    0  0.10266226549E+02 -0.22464978376E+02  0.96732409923E+01  0.26939418187E+02  0.47000000000E+01 0.  1.
         -5    1    4    4    0  502  0.22250751880E+02  0.12317373649E+03 -0.98668432691E+02  0.15945035256E+03  0.47000000000E+01 0.  1.
<mgrwt>
<rscale>  0 0.32827550E+03</rscale>
<asrwt>0</asrwt>
<pdfrwt beam="1">  1       21 0.14053597E-01 0.32827550E+03</pdfrwt>
<pdfrwt beam="2">  1       21 0.45373550E-01 0.32827550E+03</pdfrwt>
<totfact> 0.19860022E+05</totfact>
</mgrwt>
</event>
<event>
 8    1  0.9123825E-006  0.5418054E+03  0.7546771E-02  0.1003409E+00
         21   -1    0    0  504  503  0.00000000000E+00  0.00000000000E+00  0.57485131462E+03  0.57485131462E+03  0.00000000000E+00 0. -1.
         21   -1    0    0  503  504 -0.00000000000E+00 -0.00000000000E+00 -0.12766479421E+03  0.12766479421E+03  0.00000000000E+00 0. -1.
         25    2    1    2    0    0  0.16391843032E+03 -0.17525013142E+03  0.24115710992E+03  0.36244119633E+03  0.12500003509E+03 0.  0.
         25    2    1    2    0    0 -0.16391843032E+03  0.17525013142E+03  0.20602941049E+03  0.34007491250E+03  0.12498387004E+03 0.  0.
          5    1    3    3  501    0  0.79231703289E+02 -0.37969035566E+02  0.22735316167E+02  0.90875162003E+02  0.47000000000E+01 0. -1.
         -5    1    3    3    0  501  0.84686727029E+02 -0.13728109585E+03  0.21842179376E+03  0.27156603433E+03  0.47000000000E+01 0. -1.
          5    1    4    4  502    0 -0.13255563203E+03  0.18030379716E+03  0.21096415425E+03  0.30758481632E+03  0.47000000000E+01 0.  1.
         -5    1    4    4    0  502 -0.31362798287E+02 -0.50536657428E+01 -0.49347437657E+01  0.32490096181E+02  0.47000000000E+01 0.  1.
<mgrwt>
<rscale>  0 0.54180541E+03</rscale>
<asrwt>0</asrwt>
<pdfrwt beam="1">  1       21 0.88438662E-01 0.54180541E+03</pdfrwt>
<pdfrwt beam="2">  1       21 0.19640738E-01 0.54180541E+03</pdfrwt>
<totfact> 0.23150952E+04</totfact>
</mgrwt>
</event>
<event>
 8    1  0.9123825E-006  0.3567759E+03  0.7546771E-02  0.1059868E+00
         21   -1    0    0  504  503  0.00000000000E+00  0.00000000000E+00  0.17729035126E+03  0.17729035126E+03  0.00000000000E+00 0.  1.
         21   -1    0    0  503  504 -0.00000000000E+00 -0.00000000000E+00 -0.17949234926E+03  0.17949234926E+03  0.00000000000E+00 0.  1.
         25    2    1    2    0    0 -0.60252673055E+02  0.31002180919E+02  0.10662479495E+03  0.17772677133E+03  0.12500575394E+03 0.  0.
         25    2    1    2    0    0  0.60252673055E+02 -0.31002180919E+02 -0.10882679295E+03  0.17905592918E+03  0.12500494023E+03 0.  0.
          5    1    3    3  501    0 -0.60981705981E+02  0.44928124619E+02  0.12975109619E+03  0.15031547428E+03  0.47000000000E+01 0.  1.
         -5    1    3    3    0  501  0.72903292527E+00 -0.13925943701E+02 -0.23126301238E+02  0.27411297049E+02  0.47000000000E+01 0.  1.
          5    1    4    4  502    0 -0.67151281577E+01  0.61647436958E+01  0.23752214293E+02  0.25871890051E+02  0.47000000000E+01 0.  1.
         -5    1    4    4    0  502  0.66967801213E+02 -0.37166924614E+02 -0.13257900724E+03  0.15318403913E+03  0.47000000000E+01 0.  1.
<mgrwt>
<rscale>  0 0.35677591E+03</rscale>
<asrwt>0</asrwt>
<pdfrwt beam="1">  1       21 0.27275439E-01 0.35677591E+03</pdfrwt>
<pdfrwt beam="2">  1       21 0.27614208E-01 0.35677591E+03</pdfrwt>
<totfact> 0.15349191E+05</totfact>
</mgrwt>
</event>
<event>
 8    1  0.9123825E-006  0.2739095E+03  0.7546771E-02  0.1099063E+00
         21   -1    0    0  504  503  0.00000000000E+00  0.00000000000E+00  0.11942555412E+04  0.11942555412E+04  0.00000000000E+00 0. -1.
         21   -1    0    0  503  504 -0.00000000000E+00 -0.00000000000E+00 -0.15705691950E+02  0.15705691950E+02  0.00000000000E+00 0. -1.
         25    2    1    2    0    0 -0.36855892058E+02 -0.41290110539E+02  0.62586968178E+03  0.64062472437E+03  0.12499579554E+03 0.  0.
         25    2    1    2    0    0  0.36855892058E+02  0.41290110539E+02  0.55268016744E+03  0.56933650875E+03  0.12500185078E+03 0.  0.
          5    1    3    3  501    0  0.33102801790E+02 -0.55836211610E+02  0.30195223705E+03  0.30888625977E+03  0.47000000000E+01 0. -1.
         -5    1    3    3    0  501 -0.69958693848E+02  0.14546101071E+02  0.32391744472E+03  0.33173846460E+03  0.47000000000E+01 0. -1.
          5    1    4    4  502    0  0.28337323105E+02  0.71250500998E+02  0.51276896702E+03  0.51849179483E+03  0.47000000000E+01 0.  1.
         -5    1    4    4    0  502  0.85185689532E+01 -0.29960390459E+02  0.39911200425E+02  0.50844713912E+02  0.47000000000E+01 0.  1.
<mgrwt>
<rscale>  0 0.27390954E+03</rscale>
<asrwt>0</asrwt>
<pdfrwt beam="1">  1       21 0.18373155E+00 0.27390954E+03</pdfrwt>
<pdfrwt beam="2">  1       21 0.24162612E-02 0.27390954E+03</pdfrwt>
<totfact> 0.14969449E+05</totfact>
</mgrwt>
</event>
<event>
 8    1  0.9123825E-006  0.2806694E+03  0.7546771E-02  0.1095324E+00
         21   -1    0    0  504  503  0.00000000000E+00  0.00000000000E+00  0.22683742687E+03  0.22683742687E+03  0.00000000000E+00 0.  1.
         21   -1    0    0  503  504 -0.00000000000E+00 -0.00000000000E+00 -0.86819159449E+02  0.86819159449E+02  0.00000000000E+00 0.  1.
         25    2    1    2    0    0 -0.57717291825E+02 -0.25776777475E+02  0.60492547120E+02  0.15257670861E+03  0.12499830287E+03 0.  0.
         25    2    1    2    0    0  0.57717291825E+02  0.25776777475E+02  0.79525720299E+02  0.16107987771E+03  0.12500663494E+03 0.  0.
          5    1    3    3  501    0 -0.79615156554E+02  0.16721427255E+02  0.87245635935E+01  0.81953567906E+02  0.47000000000E+01 0.  1.
         -5    1    3    3    0  501  0.21897864729E+02 -0.42498204729E+02  0.51767983526E+02  0.70623140707E+02  0.47000000000E+01 0.  1.
          5    1    4    4  502    0  0.36420143731E+02  0.32936931951E+02 -0.24128761566E+02  0.54914073701E+02  0.47000000000E+01 0.  1.
         -5    1    4    4    0  502  0.21297148094E+02 -0.71601544767E+01  0.10365448187E+03  0.10616580400E+03  0.47000000000E+01 0.  1.
<mgrwt>
<rscale>  0 0.28066945E+03</rscale>
<asrwt>0</asrwt>
<pdfrwt beam="1">  1       21 0.34898065E-01 0.28066945E+03</pdfrwt>
<pdfrwt beam="2">  1       21 0.13356794E-01 0.28066945E+03</pdfrwt>
<totfact> 0.37594847E+05</totfact>
</mgrwt>
</event>
<event>
 8    1  0.9123825E-006  0.3152423E+03  0.7546771E-02  0.1077860E+00
         21   -1    0    0  504  503  0.00000000000E+00  0.00000000000E+00  0.52923881887E+02  0.52923881887E+02  0.00000000000E+00 0. -1.
         21   -1    0    0  503  504 -0.00000000000E+00 -0.00000000000E+00 -0.46943690637E+03  0.46943690637E+03  0.00000000000E+00 0. -1.
         25    2    1    2    0    0 -0.60057778783E+02 -0.68468169168E+02 -0.25874880319E+03  0.30143429353E+03  0.12496744849E+03 0.  0.
         25    2    1    2    0    0  0.60057778783E+02  0.68468169168E+02 -0.15776422130E+03  0.22092649473E+03  0.12499655824E+03 0.  0.
          5    1    3    3  501    0  0.12249034735E+01 -0.77082305003E+02 -0.20593139826E+03  0.21993865718E+03  0.47000000000E+01 0. -1.
         -5    1    3    3    0  501 -0.61282682256E+02  0.86141358352E+01 -0.52817404933E+02  0.81495636353E+02  0.47000000000E+01 0. -1.
          5    1    4    4  502    0  0.62740105072E+02 -0.19582405611E+02 -0.76729097690E+02  0.10113968473E+03  0.47000000000E+01 0.  1.
         -5    1    4    4    0  502 -0.26823262894E+01  0.88050574779E+02 -0.81035123606E+02  0.11978681000E+03  0.47000000000E+01 0.  1.
<mgrwt>
<rscale>  0 0.31524228E+03</rscale>
<asrwt>0</asrwt>
<pdfrwt beam="1">  1       21 0.81421358E-02 0.31524228E+03</pdfrwt>
<pdfrwt beam="2">  1       21 0.72221061E-01 0.31524228E+03</pdfrwt>
<totfact> 0.19452226E+05</totfact>
</mgrwt>
</event>
<event>
 8    1  0.9123825E-006  0.4616093E+03  0.7546771E-02  0.1024316E+00
         21   -1    0    0  504  503  0.00000000000E+00  0.00000000000E+00  0.68669758074E+03  0.68669758074E+03  0.00000000000E+00 0.  1.
         21   -1    0    0  503  504 -0.00000000000E+00 -0.00000000000E+00 -0.77575315282E+02  0.77575315282E+02  0.00000000000E+00 0.  1.
         25    2    1    2    0    0  0.70310715480E+01  0.44731422424E+02  0.61691113799E+03  0.63107374101E+03  0.12499751316E+03 0.  0.
         25    2    1    2    0    0 -0.70310715480E+01 -0.44731422424E+02 -0.77888725281E+01  0.13319915502E+03  0.12502404666E+03 0.  0.
          5    1    3    3  501    0  0.28688467257E+02  0.61089621093E+02  0.58508325597E+03  0.58898172839E+03  0.47000000000E+01 0. -1.
         -5    1    3    3    0  501 -0.21657395709E+02 -0.16358198669E+02  0.31827882019E+02  0.42092012620E+02  0.47000000000E+01 0. -1.
          5    1    4    4  502    0 -0.13637598432E+02  0.37195000956E+02  0.22110053972E+02  0.45611365620E+02  0.47000000000E+01 0. -1.
         -5    1    4    4    0  502  0.66065268838E+01 -0.81926423380E+02 -0.29898926500E+02  0.87587789395E+02  0.47000000000E+01 0. -1.
<mgrwt>
<rscale>  0 0.46160928E+03</rscale>
<asrwt>0</asrwt>
<pdfrwt beam="1">  1       21 0.10564578E+00 0.46160928E+03</pdfrwt>
<pdfrwt beam="2">  1       21 0.11934664E-01 0.46160928E+03</pdfrwt>
<totfact> 0.38798871E+04</totfact>
</mgrwt>
</event>
<event>
 8    1  0.9123825E-006  0.3118321E+03  0.7546771E-02  0.1079471E+00
         21   -1    0    0  504  503  0.00000000000E+00  0.00000000000E+00  0.24931874807E+03  0.24931874807E+03  0.00000000000E+00 0.  1.
         21   -1    0    0  503  504 -0.00000000000E+00 -0.00000000000E+00 -0.97504982362E+02  0.97504982362E+02  0.00000000000E+00 0.  1.
         25    2    1    2    0    0  0.38027160673E+02 -0.57398726135E+02  0.14577438967E+03  0.20400095110E+03  0.12500214660E+03 0.  0.
         25    2    1    2    0    0 -0.38027160673E+02  0.57398726135E+02  0.60393760318E+01  0.14282277933E+03  0.12498477316E+03 0.  0.
          5    1    3    3  501    0  0.29471695012E+02  0.25353399243E+02  0.37517771232E+01  0.39338803892E+02  0.47000000000E+01 0. -1.
         -5    1    3    3    0  501  0.85554656606E+01 -0.82752125378E+02  0.14202261255E+03  0.16466214721E+03  0.47000000000E+01 0. -1.
          5    1    4    4  502    0 -0.67760506311E+02  0.50603446429E+02 -0.34853929063E+02  0.91591928559E+02  0.47000000000E+01 0. -1.
         -5    1    4    4    0  502  0.29733345638E+02  0.67952797053E+01  0.40893305095E+02  0.51230850771E+02  0.47000000000E+01 0. -1.
<mgrwt>
<rscale>  0 0.31183214E+03</rscale>
<asrwt>0</asrwt>
<pdfrwt beam="1">  1       21 0.38356730E-01 0.31183214E+03</pdfrwt>
<pdfrwt beam="2">  1       21 0.15000767E-01 0.31183214E+03</pdfrwt>
<totfact> 0.24972891E+05</totfact>
</mgrwt>
</event>
<event>
 8    1  0.9123825E-006  0.8602559E+03  0.7546771E-02  0.9476674E-01
         21   -1    0    0  504  503  0.00000000000E+00  0.00000000000E+00  0.49329587551E+03  0.49329587551E+03  0.00000000000E+00 0. -1.
         21   -1    0    0  503  504 -0.00000000000E+00 -0.00000000000E+00 -0.37504884850E+03  0.37504884850E+03  0.00000000000E+00 0. -1.
         25    2    1    2    0    0  0.27884853999E+03 -0.17680125162E+03  0.30713573982E+03  0.46794463884E+03  0.12499852605E+03 0.  0.
         25    2    1    2    0    0 -0.27884853999E+03  0.17680125162E+03 -0.18888871280E+03  0.40040008518E+03  0.12500436615E+03 0.  0.
          5    1    3    3  501    0  0.28456627948E+03 -0.17458031394E+03  0.26823944889E+03  0.42828815694E+03  0.47000000000E+01 0. -1.
         -5    1    3    3    0  501 -0.57177394886E+01 -0.22209376845E+01  0.38896290924E+02  0.39656481900E+02  0.47000000000E+01 0. -1.
          5    1    4    4  502    0 -0.99281266182E+02 -0.30008661689E-01 -0.36673227078E+02  0.10594237254E+03  0.47000000000E+01 0.  1.
         -5    1    4    4    0  502 -0.17956727381E+03  0.17683126029E+03 -0.15221548573E+03  0.29445771264E+03  0.47000000000E+01 0.  1.
<mgrwt>
<rscale>  0 0.86025589E+03</rscale>
<asrwt>0</asrwt>
<pdfrwt beam="1">  1       21 0.75891673E-01 0.86025589E+03</pdfrwt>
<pdfrwt beam="2">  1       21 0.57699823E-01 0.86025589E+03</pdfrwt>
<totfact> 0.34618124E+03</totfact>
</mgrwt>
</event>
<event>
 8    1  0.9123825E-006  0.3442985E+03  0.7546771E-02  0.1064980E+00
         21   -1    0    0  504  503  0.00000000000E+00  0.00000000000E+00  0.10379073702E+03  0.10379073702E+03  0.00000000000E+00 0. -1.
         21   -1    0    0  503  504 -0.00000000000E+00 -0.00000000000E+00 -0.28552994485E+03  0.28552994485E+03  0.00000000000E+00 0. -1.
         25    2    1    2    0    0 -0.10295186167E+03 -0.20079499668E+02 -0.28858068407E+02  0.16571301580E+03  0.12500297343E+03 0.  0.
         25    2    1    2    0    0  0.10295186167E+03  0.20079499668E+02 -0.15288113942E+03  0.22360766607E+03  0.12500189360E+03 0.  0.
          5    1    3    3  501    0  0.54753468757E+01 -0.49651449608E+02 -0.15057554990E+02  0.52383831798E+02  0.47000000000E+01 0. -1.
         -5    1    3    3    0  501 -0.10842720855E+03  0.29571949940E+02 -0.13800513417E+02  0.11332918401E+03  0.47000000000E+01 0. -1.
          5    1    4    4  502    0  0.46102882080E+02  0.26037527021E+02 -0.15734476920E+03  0.16608098911E+03  0.47000000000E+01 0.  1.
         -5    1    4    4    0  502  0.56848979594E+02 -0.59580273528E+01  0.44636297781E+01  0.57526676956E+02  0.47000000000E+01 0.  1.
<mgrwt>
<rscale>  0 0.34429850E+03</rscale>
<asrwt>0</asrwt>
<pdfrwt beam="1">  1       21 0.15967806E-01 0.34429850E+03</pdfrwt>
<pdfrwt beam="2">  1       21 0.43927683E-01 0.34429850E+03</pdfrwt>
<totfact> 0.16731090E+05</totfact>
</mgrwt>
</event>
<event>
 8    1  0.9123825E-006  0.2778002E+03  0.7546771E-02  0.1096897E+00
         21   -1    0    0  504  503  0.00000000000E+00  0.00000000000E+00  0.63425830915E+03  0.63425830915E+03  0.00000000000E+00 0. -1.
         21   -1    0    0  503  504 -0.00000000000E+00 -0.00000000000E+00 -0.30418578324E+02  0.30418578324E+02  0.00000000000E+00 0. -1.
         25    2    1    2    0    0  0.77164660381E+01  0.17861413594E+02  0.16477623014E+03  0.20775171525E+03  0.12502397861E+03 0.  0.
         25    2    1    2    0    0 -0.77164660381E+01 -0.17861413594E+02  0.43906350069E+03  0.45692517223E+03  0.12500112573E+03 0.  0.
          5    1    3    3  501    0  0.19784641290E+02  0.29468568922E+02  0.18067501374E+03  0.18418843388E+03  0.47000000000E+01 0.  1.
         -5    1    3    3    0  501 -0.12068175252E+02 -0.11607155328E+02 -0.15898783602E+02  0.23563281367E+02  0.47000000000E+01 0.  1.
          5    1    4    4  502    0  0.57506654517E+02 -0.14595809828E+02  0.24454882144E+03  0.25168684718E+03  0.47000000000E+01 0.  1.
         -5    1    4    4    0  502 -0.65223120555E+02 -0.32656037662E+01  0.19451467925E+03  0.20523832505E+03  0.47000000000E+01 0.  1.
<mgrwt>
<rscale>  0 0.27780019E+03</rscale>
<asrwt>0</asrwt>
<pdfrwt beam="1">  1       21 0.97578192E-01 0.27780019E+03</pdfrwt>
<pdfrwt beam="2">  1       21 0.46797817E-02 0.27780019E+03</pdfrwt>
<totfact> 0.25542073E+05</totfact>
</mgrwt>
</event>
<event>
 8    1  0.9123825E-006  0.2501950E+03  0.7546771E-02  0.1113182E+00
         21   -1    0    0  504  503  0.00000000000E+00  0.00000000000E+00  0.34376393256E+03  0.34376393256E+03  0.00000000000E+00 0.  1.
         21   -1    0    0  503  504 -0.00000000000E+00 -0.00000000000E+00 -0.45523634418E+02  0.45523634418E+02  0.00000000000E+00 0.  1.
         25    2    1    2    0    0  0.84093665675E+00  0.52103171805E-02  0.15663244428E+03  0.20040166812E+03  0.12500559501E+03 0.  0.
         25    2    1    2    0    0 -0.84093665675E+00 -0.52103171805E-02  0.14160785387E+03  0.18888589886E+03  0.12499756521E+03 0.  0.
          5    1    3    3  501    0  0.30463942479E+02  0.45422138686E+02  0.29973483255E+02  0.62543762060E+02  0.47000000000E+01 0. -1.
         -5    1    3    3    0  501 -0.29623005823E+02 -0.45416928369E+02  0.12665896102E+03  0.13785790606E+03  0.47000000000E+01 0. -1.
          5    1    4    4  502    0 -0.28623849176E+02 -0.31471725038E+02  0.18017626226E+01  0.42838423956E+02  0.47000000000E+01 0.  1.
         -5    1    4    4    0  502  0.27782912519E+02  0.31466514720E+02  0.13980609124E+03  0.14604747490E+03  0.47000000000E+01 0.  1.
<mgrwt>
<rscale>  0 0.25019499E+03</rscale>
<asrwt>0</asrwt>
<pdfrwt beam="1">  1       21 0.52886757E-01 0.25019499E+03</pdfrwt>
<pdfrwt beam="2">  1       21 0.70036363E-02 0.25019499E+03</pdfrwt>
<totfact> 0.50602685E+05</totfact>
</mgrwt>
</event>
<event>
 8    1  0.9123825E-006  0.2672765E+03  0.7546771E-02  0.1102849E+00
         21   -1    0    0  504  503  0.00000000000E+00  0.00000000000E+00  0.12778077402E+03  0.12778077402E+03  0.00000000000E+00 0. -1.
         21   -1    0    0  503  504 -0.00000000000E+00 -0.00000000000E+00 -0.13976419614E+03  0.13976419614E+03  0.00000000000E+00 0. -1.
         25    2    1    2    0    0  0.36731458171E+02  0.28680920498E+02  0.19409425505E+01  0.13342053075E+03  0.12500190218E+03 0.  0.
         25    2    1    2    0    0 -0.36731458171E+02 -0.28680920498E+02 -0.13924364674E+02  0.13412443941E+03  0.12499472827E+03 0.  0.
          5    1    3    3  501    0 -0.24295984905E+02 -0.48989474277E+01  0.44861598896E+02  0.51467928109E+02  0.47000000000E+01 0.  1.
         -5    1    3    3    0  501  0.61027443076E+02  0.33579867926E+02 -0.42920656345E+02  0.81952602640E+02  0.47000000000E+01 0.  1.
          5    1    4    4  502    0 -0.11342686817E+02 -0.74490621333E+02  0.10358917121E+02  0.76203060140E+02  0.47000000000E+01 0. -1.
         -5    1    4    4    0  502 -0.25388771353E+02  0.45809700835E+02 -0.24283281795E+02  0.57921379266E+02  0.47000000000E+01 0. -1.
<mgrwt>
<rscale>  0 0.26727646E+03</rscale>
<asrwt>0</asrwt>
<pdfrwt beam="1">  1       21 0.19658581E-01 0.26727646E+03</pdfrwt>
<pdfrwt beam="2">  1       21 0.21502184E-01 0.26727646E+03</pdfrwt>
<totfact> 0.47343359E+05</totfact>
</mgrwt>
</event>
<event>
 8    1  0.9123825E-006  0.3337174E+03  0.7546771E-02  0.1069504E+00
         21   -1    0    0  504  503  0.00000000000E+00  0.00000000000E+00  0.38103796899E+02  0.38103796899E+02  0.00000000000E+00 0. -1.
         21   -1    0    0  503  504 -0.00000000000E+00 -0.00000000000E+00 -0.73068384555E+03  0.73068384555E+03  0.00000000000E+00 0. -1.
         25    2    1    2    0    0  0.81760451639E+01  0.11137054342E+02 -0.59893107305E+03  0.61199020311E+03  0.12499078662E+03 0.  0.
         25    2    1    2    0    0 -0.81760451639E+01 -0.11137054342E+02 -0.93648975601E+02  0.15679743934E+03  0.12499769862E+03 0.  0.
          5    1    3    3  501    0 -0.23833989110E+02  0.76799802802E+01 -0.56276635931E+03  0.56334279644E+03  0.47000000000E+01 0.  1.
         -5    1    3    3    0  501  0.32010034274E+02  0.34570740620E+01 -0.36164713746E+02  0.48647406669E+02  0.47000000000E+01 0.  1.
          5    1    4    4  502    0  0.51904889971E+02 -0.14512868232E+02 -0.12264389291E+02  0.55472932066E+02  0.47000000000E+01 0.  1.
         -5    1    4    4    0  502 -0.60080935135E+02  0.33758138902E+01 -0.81384586309E+02  0.10132450728E+03  0.47000000000E+01 0.  1.
<mgrwt>
<rscale>  0 0.33371742E+03</rscale>
<asrwt>0</asrwt>
<pdfrwt beam="1">  1       21 0.58621233E-02 0.33371742E+03</pdfrwt>
<pdfrwt beam="2">  1       21 0.11241289E+00 0.33371742E+03</pdfrwt>
<totfact> 0.12128067E+05</totfact>
</mgrwt>
</event>
<event>
 8    1  0.9123825E-006  0.4636954E+03  0.7546771E-02  0.1023715E+00
         21   -1    0    0  504  503  0.00000000000E+00  0.00000000000E+00  0.18297178048E+03  0.18297178048E+03  0.00000000000E+00 0. -1.
         21   -1    0    0  503  504 -0.00000000000E+00 -0.00000000000E+00 -0.29377949834E+03  0.29377949834E+03  0.00000000000E+00 0. -1.
         25    2    1    2    0    0  0.35269021762E+02 -0.99989609736E+02 -0.22399014126E+03  0.27755927617E+03  0.12500296978E+03 0.  0.
         25    2    1    2    0    0 -0.35269021762E+02  0.99989609736E+02  0.11318242340E+03  0.19919200265E+03  0.12500146800E+03 0.  0.
          5    1    3    3  501    0  0.68807337005E+02 -0.12676920482E+02 -0.10160349518E+03  0.12345247738E+03  0.47000000000E+01 0. -1.
         -5    1    3    3    0  501 -0.33538315243E+02 -0.87312689254E+02 -0.12238664608E+03  0.15410679879E+03  0.47000000000E+01 0. -1.
          5    1    4    4  502    0  0.38830284745E+02  0.38378964833E+01  0.12004038719E+02  0.41093885291E+02  0.47000000000E+01 0.  1.
         -5    1    4    4    0  502 -0.74099306507E+02  0.96151713253E+02  0.10117838468E+03  0.15809811736E+03  0.47000000000E+01 0.  1.
<mgrwt>
<rscale>  0 0.46369541E+03</rscale>
<asrwt>0</asrwt>
<pdfrwt beam="1">  1       21 0.28149505E-01 0.46369541E+03</pdfrwt>
<pdfrwt beam="2">  1       21 0.45196846E-01 0.46369541E+03</pdfrwt>
<totfact> 0.52049910E+04</totfact>
</mgrwt>
</event>
<event>
 8    1  0.9123825E-006  0.3090065E+03  0.7546771E-02  0.1080823E+00
         21   -1    0    0  504  503  0.00000000000E+00  0.00000000000E+00  0.31962853579E+02  0.31962853579E+02  0.00000000000E+00 0. -1.
         21   -1    0    0  503  504 -0.00000000000E+00 -0.00000000000E+00 -0.74684350625E+03  0.74684350625E+03  0.00000000000E+00 0. -1.
         25    2    1    2    0    0  0.97713266867E+01  0.33344004091E+02 -0.14599311838E+03  0.19530985858E+03  0.12499859523E+03 0.  0.
         25    2    1    2    0    0 -0.97713266867E+01 -0.33344004091E+02 -0.56888753429E+03  0.58349650125E+03  0.12501135496E+03 0.  0.
          5    1    3    3  501    0  0.17675804235E+02  0.17864998873E+02  0.17400859439E+02  0.30926883925E+02  0.47000000000E+01 0. -1.
         -5    1    3    3    0  501 -0.79044775485E+01  0.15479005218E+02 -0.16339397782E+03  0.16438297465E+03  0.47000000000E+01 0. -1.
          5    1    4    4  502    0  0.74193348674E+01  0.17246295534E+02 -0.47479709908E+03  0.47519138938E+03  0.47000000000E+01 0.  1.
         -5    1    4    4    0  502 -0.17190661554E+02 -0.50590299625E+02 -0.94090435205E+02  0.10830511187E+03  0.47000000000E+01 0.  1.
<mgrwt>
<rscale>  0 0.30900647E+03</rscale>
<asrwt>0</asrwt>
<pdfrwt beam="1">  1       21 0.49173620E-02 0.30900647E+03</pdfrwt>
<pdfrwt beam="2">  1       21 0.11489900E+00 0.30900647E+03</pdfrwt>
<totfact> 0.15647768E+05</totfact>
</mgrwt>
</event>
<event>
 8    1  0.9123825E-006  0.4522201E+03  0.7546771E-02  0.1027062E+00
         21   -1    0    0  504  503  0.00000000000E+00  0.00000000000E+00  0.10628532084E+03  0.10628532084E+03  0.00000000000E+00 0.  1.
         21   -1    0    0  503  504 -0.00000000000E+00 -0.00000000000E+00 -0.48102370291E+03  0.48102370291E+03  0.00000000000E+00 0.  1.
         25    2    1    2    0    0  0.10597068675E+02 -0.18348827071E+03 -0.24123224949E+03  0.32802153020E+03  0.12499953092E+03 0.  0.
         25    2    1    2    0    0 -0.10597068675E+02  0.18348827071E+03 -0.13350613258E+03  0.25928749354E+03  0.12500349402E+03 0.  0.
          5    1    3    3  501    0 -0.21940880930E+02 -0.18682709141E+03 -0.19294597063E+03  0.26951067126E+03  0.47000000000E+01 0.  1.
         -5    1    3    3    0  501  0.32537949605E+02  0.33388206976E+01 -0.48286278860E+02  0.58510858944E+02  0.47000000000E+01 0.  1.
          5    1    4    4  502    0 -0.69225695614E+01 -0.17261054162E+01  0.18000691799E+02  0.19925268242E+02  0.47000000000E+01 0.  1.
         -5    1    4    4    0  502 -0.36744991132E+01  0.18521437613E+03 -0.15150682438E+03  0.23936222530E+03  0.47000000000E+01 0.  1.
<mgrwt>
<rscale>  0 0.45222012E+03</rscale>
<asrwt>0</asrwt>
<pdfrwt beam="1">  1       21 0.16351588E-01 0.45222012E+03</pdfrwt>
<pdfrwt beam="2">  1       21 0.74003647E-01 0.45222012E+03</pdfrwt>
<totfact> 0.50453305E+04</totfact>
</mgrwt>
</event>
<event>
 8    1  0.9123825E-006  0.3328533E+03  0.7546771E-02  0.1069881E+00
         21   -1    0    0  504  503  0.00000000000E+00  0.00000000000E+00  0.10064263212E+04  0.10064263212E+04  0.00000000000E+00 0.  1.
         21   -1    0    0  503  504 -0.00000000000E+00 -0.00000000000E+00 -0.27520975517E+02  0.27520975517E+02  0.00000000000E+00 0.  1.
         25    2    1    2    0    0 -0.20913936684E+02 -0.57696373723E+02  0.20632112932E+03  0.24891316453E+03  0.12499236291E+03 0.  0.
         25    2    1    2    0    0  0.20913936684E+02  0.57696373723E+02  0.77258421632E+03  0.78503413214E+03  0.12500381208E+03 0.  0.
          5    1    3    3  501    0 -0.57841627204E+02 -0.50023862147E+02  0.19459911682E+03  0.20913858298E+03  0.47000000000E+01 0. -1.
         -5    1    3    3    0  501  0.36927690521E+02 -0.76725115759E+01  0.11722012504E+02  0.39774581559E+02  0.47000000000E+01 0. -1.
          5    1    4    4  502    0 -0.25679214015E+02  0.80150657121E+02  0.55326667145E+03  0.55965136434E+03  0.47000000000E+01 0.  1.
         -5    1    4    4    0  502  0.46593150698E+02 -0.22454283398E+02  0.21931754487E+03  0.22538276780E+03  0.47000000000E+01 0.  1.
<mgrwt>
<rscale>  0 0.33285333E+03</rscale>
<asrwt>0</asrwt>
<pdfrwt beam="1">  1       21 0.15483479E+00 0.33285333E+03</pdfrwt>
<pdfrwt beam="2">  1       21 0.42339970E-02 0.33285333E+03</pdfrwt>
<totfact> 0.92580174E+04</totfact>
</mgrwt>
</event>
<event>
 8    1  0.9123825E-006  0.2715240E+03  0.7546771E-02  0.1100411E+00
         21   -1    0    0  504  503  0.00000000000E+00  0.00000000000E+00  0.39526637885E+02  0.39526637885E+02  0.00000000000E+00 0.  1.
         21   -1    0    0  503  504 -0.00000000000E+00 -0.00000000000E+00 -0.46630114158E+03  0.46630114158E+03  0.00000000000E+00 0.  1.
         25    2    1    2    0    0  0.51597931040E+02  0.11070490551E+02 -0.22192693966E+03  0.26012040535E+03  0.12500462584E+03 0.  0.
         25    2    1    2    0    0 -0.51597931040E+02 -0.11070490551E+02 -0.20484756403E+03  0.24570737412E+03  0.12499874782E+03 0.  0.
          5    1    3    3  501    0  0.73489461554E+02 -0.27729540345E+02 -0.18838278586E+03  0.20415629399E+03  0.47000000000E+01 0. -1.
         -5    1    3    3    0  501 -0.21891530515E+02  0.38800030896E+02 -0.33544153805E+02  0.55964111360E+02  0.47000000000E+01 0. -1.
          5    1    4    4  502    0 -0.81718385902E+02 -0.29724200711E+02 -0.18583167901E+03  0.20522408636E+03  0.47000000000E+01 0.  1.
         -5    1    4    4    0  502  0.30120454862E+02  0.18653710160E+02 -0.19015885025E+02  0.40483287751E+02  0.47000000000E+01 0.  1.
<mgrwt>
<rscale>  0 0.27152397E+03</rscale>
<asrwt>0</asrwt>
<pdfrwt beam="1">  1       21 0.60810208E-02 0.27152397E+03</pdfrwt>
<pdfrwt beam="2">  1       21 0.71738642E-01 0.27152397E+03</pdfrwt>
<totfact> 0.33168033E+05</totfact>
</mgrwt>
</event>
<event>
 8    1  0.9123825E-006  0.4902094E+03  0.7546771E-02  0.1016366E+00
         21   -1    0    0  504  503  0.00000000000E+00  0.00000000000E+00  0.93958338384E+03  0.93958338384E+03  0.00000000000E+00 0.  1.
         21   -1    0    0  503  504 -0.00000000000E+00 -0.00000000000E+00 -0.63939303305E+02  0.63939303305E+02  0.00000000000E+00 0.  1.
         25    2    1    2    0    0 -0.19711071280E+03 -0.53228273763E+02  0.54546659370E+03  0.59568893981E+03  0.12500250371E+03 0.  0.
         25    2    1    2    0    0  0.19711071280E+03  0.53228273763E+02  0.33017748683E+03  0.40783374734E+03  0.12500124172E+03 0.  0.
          5    1    3    3  501    0 -0.68679030565E+02 -0.49708787419E+02  0.36092381928E+03  0.37077738079E+03  0.47000000000E+01 0. -1.
         -5    1    3    3    0  501 -0.12843168223E+03 -0.35194863434E+01  0.18454277443E+03  0.22491155901E+03  0.47000000000E+01 0. -1.
          5    1    4    4  502    0  0.12588108144E+03 -0.16868027860E+02  0.24678832855E+03  0.27759168960E+03  0.47000000000E+01 0. -1.
         -5    1    4    4    0  502  0.71229631360E+02  0.70096301623E+02  0.83389158284E+02  0.13024205774E+03  0.47000000000E+01 0. -1.
<mgrwt>
<rscale>  0 0.49020937E+03</rscale>
<asrwt>0</asrwt>
<pdfrwt beam="1">  1       21 0.14455128E+00 0.49020937E+03</pdfrwt>
<pdfrwt beam="2">  1       21 0.98368166E-02 0.49020937E+03</pdfrwt>
<totfact> 0.24445942E+04</totfact>
</mgrwt>
</event>
<event>
 8    1  0.9123825E-006  0.2665024E+03  0.7546771E-02  0.1103298E+00
         21   -1    0    0  504  503  0.00000000000E+00  0.00000000000E+00  0.60882995230E+02  0.60882995230E+02  0.00000000000E+00 0. -1.
         21   -1    0    0  503  504 -0.00000000000E+00 -0.00000000000E+00 -0.29163937232E+03  0.29163937232E+03  0.00000000000E+00 0. -1.
         25    2    1    2    0    0  0.15898985909E+02  0.53859226843E+01 -0.58497746672E+02  0.13902776623E+03  0.12499979000E+03 0.  0.
         25    2    1    2    0    0 -0.15898985909E+02 -0.53859226843E+01 -0.17225863042E+03  0.21349460132E+03  0.12500049249E+03 0.  0.
          5    1    3    3  501    0  0.14792186126E+02 -0.43040821824E+02  0.17330191728E+02  0.48925930334E+02  0.47000000000E+01 0. -1.
         -5    1    3    3    0  501  0.11067997836E+01  0.48426744509E+02 -0.75827938399E+02  0.90101835893E+02  0.47000000000E+01 0. -1.
          5    1    4    4  502    0  0.40824458053E+02 -0.22842927648E+02 -0.13574006851E+03  0.14365198195E+03  0.47000000000E+01 0.  1.
         -5    1    4    4    0  502 -0.56723443962E+02  0.17457004963E+02 -0.36518561912E+02  0.69842619376E+02  0.47000000000E+01 0.  1.
<mgrwt>
<rscale>  0 0.26650237E+03</rscale>
<asrwt>0</asrwt>
<pdfrwt beam="1">  1       21 0.93666147E-02 0.26650237E+03</pdfrwt>
<pdfrwt beam="2">  1       21 0.44867596E-01 0.26650237E+03</pdfrwt>
<totfact> 0.42740163E+05</totfact>
</mgrwt>
</event>
<event>
 8    1  0.9123825E-006  0.2565682E+03  0.7546771E-02  0.1109223E+00
         21   -1    0    0  504  503  0.00000000000E+00  0.00000000000E+00  0.14071610265E+03  0.14071610265E+03  0.00000000000E+00 0.  1.
         21   -1    0    0  503  504 -0.00000000000E+00 -0.00000000000E+00 -0.11695043253E+03  0.11695043253E+03  0.00000000000E+00 0.  1.
         25    2    1    2    0    0  0.31362196080E+01  0.19448545864E+02  0.33083923734E+02  0.13077872158E+03  0.12498178347E+03 0.  0.
         25    2    1    2    0    0 -0.31362196080E+01 -0.19448545864E+02 -0.93182536185E+01  0.12688781359E+03  0.12500242229E+03 0.  0.
          5    1    3    3  501    0  0.36998421883E+02  0.43746051756E+02 -0.21993397998E+02  0.61549978242E+02  0.47000000000E+01 0.  1.
         -5    1    3    3    0  501 -0.33862202275E+02 -0.24297505891E+02  0.55077321733E+02  0.69228743342E+02  0.47000000000E+01 0.  1.
          5    1    4    4  502    0 -0.63822655383E+02 -0.69146787381E+01 -0.33145500448E+01  0.64453241688E+02  0.47000000000E+01 0. -1.
         -5    1    4    4    0  502  0.60686435775E+02 -0.12533867126E+02 -0.60037035737E+01  0.62434571904E+02  0.47000000000E+01 0. -1.
<mgrwt>
<rscale>  0 0.25656819E+03</rscale>
<asrwt>0</asrwt>
<pdfrwt beam="1">  1       21 0.21648631E-01 0.25656819E+03</pdfrwt>
<pdfrwt beam="2">  1       21 0.17992374E-01 0.25656819E+03</pdfrwt>
<totfact> 0.55257690E+05</totfact>
</mgrwt>
</event>
<event>
 8    1  0.9123825E-006  0.2896862E+03  0.7546771E-02  0.1090513E+00
         21   -1    0    0  504  503  0.00000000000E+00  0.00000000000E+00  0.38839142586E+02  0.38839142586E+02  0.00000000000E+00 0.  1.
         21   -1    0    0  503  504 -0.00000000000E+00 -0.00000000000E+00 -0.54016443448E+03  0.54016443448E+03  0.00000000000E+00 0.  1.
         25    2    1    2    0    0  0.65483058631E+02  0.30083594530E+02 -0.22524639486E+03  0.26749375617E+03  0.12499567018E+03 0.  0.
         25    2    1    2    0    0 -0.65483058631E+02 -0.30083594530E+02 -0.27607889703E+03  0.31150982090E+03  0.12500302997E+03 0.  0.
          5    1    3    3  501    0 -0.75601470400E+01  0.62093594565E+02 -0.11949845462E+03  0.13496199823E+03  0.47000000000E+01 0.  1.
         -5    1    3    3    0  501  0.73043205671E+02 -0.32010000035E+02 -0.10574794024E+03  0.13253175794E+03  0.47000000000E+01 0.  1.
          5    1    4    4  502    0  0.90424355629E+01  0.28479823518E+02 -0.15369537341E+03  0.15664362035E+03  0.47000000000E+01 0.  1.
         -5    1    4    4    0  502 -0.74525494194E+02 -0.58563418048E+02 -0.12238352362E+03  0.15486620055E+03  0.47000000000E+01 0.  1.
<mgrwt>
<rscale>  0 0.28968620E+03</rscale>
<asrwt>0</asrwt>
<pdfrwt beam="1">  1       21 0.59752526E-02 0.28968620E+03</pdfrwt>
<pdfrwt beam="2">  1       21 0.83102222E-01 0.28968620E+03</pdfrwt>
<totfact> 0.24394444E+05</totfact>
</mgrwt>
</event>
<event>
 8    1  0.9123825E-006  0.2824023E+03  0.7546771E-02  0.1094384E+00
         21   -1    0    0  504  503  0.00000000000E+00  0.00000000000E+00  0.15069382068E+03  0.15069382068E+03  0.00000000000E+00 0. -1.
         21   -1    0    0  503  504 -0.00000000000E+00 -0.00000000000E+00 -0.13230644927E+03  0.13230644927E+03  0.00000000000E+00 0. -1.
         25    2    1    2    0    0 -0.34760135852E+02 -0.18608089454E+02 -0.43438136150E+02  0.13807929865E+03  0.12499797200E+03 0.  0.
         25    2    1    2    0    0  0.34760135852E+02  0.18608089454E+02  0.61825507559E+02  0.14492097131E+03  0.12500066601E+03 0.  0.
          5    1    3    3  501    0 -0.77993329410E+02 -0.10675395573E+02 -0.50020169998E+02  0.93386459991E+02  0.47000000000E+01 0. -1.
         -5    1    3    3    0  501  0.43233193558E+02 -0.79326938811E+01  0.65820338473E+01  0.44692838654E+02  0.47000000000E+01 0. -1.
          5    1    4    4  502    0 -0.33283990624E+02 -0.28187093068E+02  0.40017691346E+02  0.59378799821E+02  0.47000000000E+01 0.  1.
         -5    1    4    4    0  502  0.68044126476E+02  0.46795182522E+02  0.21807816213E+02  0.85542171490E+02  0.47000000000E+01 0.  1.
<mgrwt>
<rscale>  0 0.28240230E+03</rscale>
<asrwt>0</asrwt>
<pdfrwt beam="1">  1       21 0.23183665E-01 0.28240230E+03</pdfrwt>
<pdfrwt beam="2">  1       21 0.20354838E-01 0.28240230E+03</pdfrwt>
<totfact> 0.38316687E+05</totfact>
</mgrwt>
</event>
<event>
 8    1  0.9123825E-006  0.5021675E+03  0.7546771E-02  0.1013215E+00
         21   -1    0    0  504  503  0.00000000000E+00  0.00000000000E+00  0.30054316288E+03  0.30054316288E+03  0.00000000000E+00 0. -1.
         21   -1    0    0  503  504 -0.00000000000E+00 -0.00000000000E+00 -0.20976374357E+03  0.20976374357E+03  0.00000000000E+00 0. -1.
         25    2    1    2    0    0  0.14894390063E+03  0.14788201355E+03  0.10434063944E+03  0.26564021935E+03  0.12499752650E+03 0.  0.
         25    2    1    2    0    0 -0.14894390063E+03 -0.14788201355E+03 -0.13561220134E+02  0.24466668709E+03  0.12499802244E+03 0.  0.
          5    1    3    3  501    0  0.13680364423E+03  0.12979526491E+03  0.13191534441E+03  0.23018643738E+03  0.47000000000E+01 0.  1.
         -5    1    3    3    0  501  0.12140256404E+02  0.18086748642E+02 -0.27574704961E+02  0.35453781966E+02  0.47000000000E+01 0.  1.
          5    1    4    4  502    0 -0.30483965165E+02 -0.71260702087E+02 -0.57731080248E+02  0.96759120607E+02  0.47000000000E+01 0.  1.
         -5    1    4    4    0  502 -0.11845993547E+03 -0.76621311462E+02  0.44169860114E+02  0.14790756649E+03  0.47000000000E+01 0.  1.
<mgrwt>
<rscale>  0 0.50216754E+03</rscale>
<asrwt>0</asrwt>
<pdfrwt beam="1">  1       21 0.46237410E-01 0.50216754E+03</pdfrwt>
<pdfrwt beam="2">  1       21 0.32271345E-01 0.50216754E+03</pdfrwt>
<totfact> 0.37498477E+04</totfact>
</mgrwt>
</event>
<event>
 8    1  0.9123825E-006  0.3309660E+03  0.7546771E-02  0.1070710E+00
         21   -1    0    0  504  503  0.00000000000E+00  0.00000000000E+00  0.39027193823E+02  0.39027193823E+02  0.00000000000E+00 0. -1.
         21   -1    0    0  503  504 -0.00000000000E+00 -0.00000000000E+00 -0.70168062344E+03  0.70168062344E+03  0.00000000000E+00 0. -1.
         25    2    1    2    0    0 -0.67131112872E+00 -0.10504297058E+03 -0.39157498127E+03  0.42425149056E+03  0.12499553973E+03 0.  0.
         25    2    1    2    0    0  0.67131112872E+00  0.10504297058E+03 -0.27107844834E+03  0.31645632671E+03  0.12500642075E+03 0.  0.
          5    1    3    3  501    0  0.45382659767E+02 -0.80024145978E+02 -0.33302284162E+03  0.34552822285E+03  0.47000000000E+01 0.  1.
         -5    1    3    3    0  501 -0.46053970896E+02 -0.25018824605E+02 -0.58552139655E+02  0.78723267704E+02  0.47000000000E+01 0.  1.
          5    1    4    4  502    0 -0.16162086738E+02  0.83983608968E+01 -0.18472301346E+03  0.18567828956E+03  0.47000000000E+01 0.  1.
         -5    1    4    4    0  502  0.16833397867E+02  0.96644609686E+02 -0.86355434882E+02  0.13077803714E+03  0.47000000000E+01 0.  1.
<mgrwt>
<rscale>  0 0.33096601E+03</rscale>
<asrwt>0</asrwt>
<pdfrwt beam="1">  1       21 0.60041842E-02 0.33096601E+03</pdfrwt>
<pdfrwt beam="2">  1       21 0.10795086E+00 0.33096601E+03</pdfrwt>
<totfact> 0.12864562E+05</totfact>
</mgrwt>
</event>
<event>
 8    1  0.9123825E-006  0.2876153E+03  0.7546771E-02  0.1091601E+00
         21   -1    0    0  504  503  0.00000000000E+00  0.00000000000E+00  0.24602448776E+02  0.24602448776E+02  0.00000000000E+00 0.  1.
         21   -1    0    0  503  504 -0.00000000000E+00 -0.00000000000E+00 -0.84059288831E+03  0.84059288831E+03  0.00000000000E+00 0.  1.
         25    2    1    2    0    0  0.85175152372E-01  0.26335090473E+02 -0.20936798269E+03  0.24526853533E+03  0.12501263137E+03 0.  0.
         25    2    1    2    0    0 -0.85175152372E-01 -0.26335090473E+02 -0.60662245685E+03  0.61992680176E+03  0.12499956056E+03 0.  0.
          5    1    3    3  501    0 -0.61416185939E+02  0.18697833047E+02 -0.89487126644E+02  0.11023426278E+03  0.47000000000E+01 0.  1.
         -5    1    3    3    0  501  0.61501361091E+02  0.76372574262E+01 -0.11988085604E+03  0.13503427255E+03  0.47000000000E+01 0.  1.
          5    1    4    4  502    0  0.44140044347E+02 -0.20339419292E+01 -0.49893197094E+03  0.50090685966E+03  0.47000000000E+01 0. -1.
         -5    1    4    4    0  502 -0.44225219499E+02 -0.24301148544E+02 -0.10769048591E+03  0.11901994209E+03  0.47000000000E+01 0. -1.
<mgrwt>
<rscale>  0 0.28761532E+03</rscale>
<asrwt>0</asrwt>
<pdfrwt beam="1">  1       21 0.37849926E-02 0.28761532E+03</pdfrwt>
<pdfrwt beam="2">  1       21 0.12932197E+00 0.28761532E+03</pdfrwt>
<totfact> 0.18226525E+05</totfact>
</mgrwt>
</event>
<event>
 8    1  0.9123825E-006  0.2580888E+03  0.7546771E-02  0.1108297E+00
         21   -1    0    0  504  503  0.00000000000E+00  0.00000000000E+00  0.46870508116E+02  0.46870508116E+02  0.00000000000E+00 0.  1.
         21   -1    0    0  503  504 -0.00000000000E+00 -0.00000000000E+00 -0.35528643948E+03  0.35528643948E+03  0.00000000000E+00 0.  1.
         25    2    1    2    0    0 -0.81597726405E+01 -0.12233643617E+02 -0.19858797737E+03  0.23511521244E+03  0.12500293773E+03 0.  0.
         25    2    1    2    0    0  0.81597726405E+01  0.12233643617E+02 -0.10982795399E+03  0.16704173515E+03  0.12499807150E+03 0.  0.
          5    1    3    3  501    0 -0.59455822842E+01 -0.43898387440E+02 -0.19807529222E+03  0.20302297839E+03  0.47000000000E+01 0. -1.
         -5    1    3    3    0  501 -0.22141903563E+01  0.31664743823E+02 -0.51268515480E+00  0.32092234051E+02  0.47000000000E+01 0. -1.
          5    1    4    4  502    0  0.51225599177E+02 -0.66578074998E+01 -0.50709622812E+01  0.52117109189E+02  0.47000000000E+01 0. -1.
         -5    1    4    4    0  502 -0.43065826536E+02  0.18891451117E+02 -0.10475699171E+03  0.11492462597E+03  0.47000000000E+01 0. -1.
<mgrwt>
<rscale>  0 0.25808879E+03</rscale>
<asrwt>0</asrwt>
<pdfrwt beam="1">  1       21 0.72108478E-02 0.25808879E+03</pdfrwt>
<pdfrwt beam="2">  1       21 0.54659449E-01 0.25808879E+03</pdfrwt>
<totfact> 0.44782039E+05</totfact>
</mgrwt>
</event>
<event>
 8    1  0.9123825E-006  0.3534365E+03  0.7546771E-02  0.1061213E+00
         21   -1    0    0  504  503  0.00000000000E+00  0.00000000000E+00  0.83219958932E+02  0.83219958932E+02  0.00000000000E+00 0. -1.
         21   -1    0    0  503  504 -0.00000000000E+00 -0.00000000000E+00 -0.37526255096E+03  0.37526255096E+03  0.00000000000E+00 0. -1.
         25    2    1    2    0    0 -0.37282887381E+02 -0.75694960243E+02 -0.26548755347E+03  0.30533130202E+03  0.12499528890E+03 0.  0.
         25    2    1    2    0    0  0.37282887381E+02  0.75694960243E+02 -0.26555038557E+02  0.15315120787E+03  0.12502152496E+03 0.  0.
          5    1    3    3  501    0 -0.44424772699E+02 -0.24243883718E+01 -0.20532037034E+03  0.21013800838E+03  0.47000000000E+01 0.  1.
         -5    1    3    3    0  501  0.71418853182E+01 -0.73270571871E+02 -0.60167183133E+02  0.95193293642E+02  0.47000000000E+01 0.  1.
          5    1    4    4  502    0 -0.40853475208E+02  0.41079618525E+02 -0.33828042541E+02  0.67253014482E+02  0.47000000000E+01 0. -1.
         -5    1    4    4    0  502  0.78136362589E+02  0.34615341718E+02  0.72730039838E+01  0.85898193391E+02  0.47000000000E+01 0. -1.
<mgrwt>
<rscale>  0 0.35343647E+03</rscale>
<asrwt>0</asrwt>
<pdfrwt beam="1">  1       21 0.12803071E-01 0.35343647E+03</pdfrwt>
<pdfrwt beam="2">  1       21 0.57732699E-01 0.35343647E+03</pdfrwt>
<totfact> 0.14048975E+05</totfact>
</mgrwt>
</event>
<event>
 8    1  0.9123825E-006  0.2585137E+03  0.7546771E-02  0.1108040E+00
         21   -1    0    0  504  503  0.00000000000E+00  0.00000000000E+00  0.11710571214E+03  0.11710571214E+03  0.00000000000E+00 0.  1.
         21   -1    0    0  503  504 -0.00000000000E+00 -0.00000000000E+00 -0.14266879287E+03  0.14266879287E+03  0.00000000000E+00 0.  1.
         25    2    1    2    0    0 -0.71797253922E+01 -0.32009043972E+02 -0.10201064241E+02  0.12963096387E+03  0.12499599085E+03 0.  0.
         25    2    1    2    0    0  0.71797253922E+01  0.32009043972E+02 -0.15362016490E+02  0.13014354115E+03  0.12500088960E+03 0.  0.
          5    1    3    3  501    0 -0.45530522588E+02 -0.89576217294E+00  0.38719530984E+02  0.59959344198E+02  0.47000000000E+01 0. -1.
         -5    1    3    3    0  501  0.38350797196E+02 -0.31113281799E+02 -0.48920595225E+02  0.69671619667E+02  0.47000000000E+01 0. -1.
          5    1    4    4  502    0  0.44131381478E+02 -0.25192850498E+02 -0.31538551688E+02  0.59991906037E+02  0.47000000000E+01 0. -1.
         -5    1    4    4    0  502 -0.36951656086E+02  0.57201894469E+02  0.16176535198E+02  0.70151635115E+02  0.47000000000E+01 0. -1.
<mgrwt>
<rscale>  0 0.25851368E+03</rscale>
<asrwt>0</asrwt>
<pdfrwt beam="1">  1       21 0.18016263E-01 0.25851368E+03</pdfrwt>
<pdfrwt beam="2">  1       21 0.21949045E-01 0.25851368E+03</pdfrwt>
<totfact> 0.53682273E+05</totfact>
</mgrwt>
</event>
<event>
 8    1  0.9123825E-006  0.3793316E+03  0.7546771E-02  0.1051181E+00
         21   -1    0    0  504  503  0.00000000000E+00  0.00000000000E+00  0.93979133341E+02  0.93979133341E+02  0.00000000000E+00 0. -1.
         21   -1    0    0  503  504 -0.00000000000E+00 -0.00000000000E+00 -0.38277770065E+03  0.38277770065E+03  0.00000000000E+00 0. -1.
         25    2    1    2    0    0  0.46824654634E+02  0.26436114326E+02 -0.31045751200E+03  0.33896924880E+03  0.12499947380E+03 0.  0.
         25    2    1    2    0    0 -0.46824654634E+02 -0.26436114326E+02  0.21658944690E+02  0.13778758519E+03  0.12499956930E+03 0.  0.
          5    1    3    3  501    0  0.38084089792E+02 -0.47067048896E+02 -0.16216334303E+03  0.17316103722E+03  0.47000000000E+01 0. -1.
         -5    1    3    3    0  501  0.87405648415E+01  0.73503163222E+02 -0.14829416897E+03  0.16580821158E+03  0.47000000000E+01 0. -1.
          5    1    4    4  502    0 -0.33742206980E+02 -0.23088995270E+02 -0.49975498897E+02  0.64740085917E+02  0.47000000000E+01 0. -1.
         -5    1    4    4    0  502 -0.13082447653E+02 -0.33471190559E+01  0.71634443587E+02  0.73047499277E+02  0.47000000000E+01 0. -1.
<mgrwt>
<rscale>  0 0.37933160E+03</rscale>
<asrwt>0</asrwt>
<pdfrwt beam="1">  1       21 0.14458328E-01 0.37933160E+03</pdfrwt>
<pdfrwt beam="2">  1       21 0.58888876E-01 0.37933160E+03</pdfrwt>
<totfact> 0.10708359E+05</totfact>
</mgrwt>
</event>
<event>
 8    1  0.9123825E-006  0.3619756E+03  0.7546771E-02  0.1057804E+00
         21   -1    0    0  504  503  0.00000000000E+00  0.00000000000E+00  0.23242880197E+02  0.23242880197E+02  0.00000000000E+00 0. -1.
         21   -1    0    0  503  504 -0.00000000000E+00 -0.00000000000E+00 -0.14093171485E+04  0.14093171485E+04  0.00000000000E+00 0. -1.
         25    2    1    2    0    0 -0.12285624150E+03  0.45158431250E+02 -0.69153707935E+03  0.71482765155E+03  0.12498839673E+03 0.  0.
         25    2    1    2    0    0  0.12285624150E+03 -0.45158431250E+02 -0.69453718895E+03  0.71773237714E+03  0.12499967350E+03 0.  0.
          5    1    3    3  501    0  0.13609005161E+02 -0.18695348330E+02 -0.18009463712E+03  0.18163394338E+03  0.47000000000E+01 0. -1.
         -5    1    3    3    0  501 -0.13646524666E+03  0.63853779580E+02 -0.51144244224E+03  0.53319370817E+03  0.47000000000E+01 0. -1.
          5    1    4    4  502    0  0.72348439769E+02 -0.51380649759E+02 -0.62580337560E+03  0.63208086731E+03  0.47000000000E+01 0.  1.
         -5    1    4    4    0  502  0.50507801732E+02  0.62222185086E+01 -0.68733813348E+02  0.85651509831E+02  0.47000000000E+01 0.  1.
<mgrwt>
<rscale>  0 0.36197563E+03</rscale>
<asrwt>0</asrwt>
<pdfrwt beam="1">  1       21 0.35758259E-02 0.36197563E+03</pdfrwt>
<pdfrwt beam="2">  1       21 0.21681813E+00 0.36197563E+03</pdfrwt>
<totfact> 0.45573794E+04</totfact>
</mgrwt>
</event>
<event>
 8    1  0.9123825E-006  0.2965956E+03  0.7546771E-02  0.1086955E+00
         21   -1    0    0  504  503  0.00000000000E+00  0.00000000000E+00  0.14837554634E+03  0.14837554634E+03  0.00000000000E+00 0. -1.
         21   -1    0    0  503  504 -0.00000000000E+00 -0.00000000000E+00 -0.14822006874E+03  0.14822006874E+03  0.00000000000E+00 0. -1.
         25    2    1    2    0    0  0.68403875945E+02 -0.40957537983E+02  0.20827464305E+01  0.14827668475E+03  0.12500010899E+03 0.  0.
         25    2    1    2    0    0 -0.68403875945E+02  0.40957537983E+02 -0.19272688339E+01  0.14831893032E+03  0.12505271115E+03 0.  0.
          5    1    3    3  501    0 -0.28050184076E+02 -0.13867651649E+02  0.30586755350E+02  0.44008683141E+02  0.47000000000E+01 0. -1.
         -5    1    3    3    0  501  0.96454060021E+02 -0.27089886333E+02 -0.28504008919E+02  0.10426800161E+03  0.47000000000E+01 0. -1.
          5    1    4    4  502    0 -0.72432187872E+02 -0.24572450464E+02  0.19543458534E+02  0.79083904388E+02  0.47000000000E+01 0.  1.
         -5    1    4    4    0  502  0.40283119275E+01  0.65529988446E+02 -0.21470727368E+02  0.69235025937E+02  0.47000000000E+01 0.  1.
<mgrwt>
<rscale>  0 0.29659557E+03</rscale>
<asrwt>0</asrwt>
<pdfrwt beam="1">  1       21 0.22827007E-01 0.29659557E+03</pdfrwt>
<pdfrwt beam="2">  1       21 0.22803088E-01 0.29659557E+03</pdfrwt>
<totfact> 0.31726751E+05</totfact>
</mgrwt>
</event>
<event>
 8    1  0.9123825E-006  0.2894774E+03  0.7546771E-02  0.1090622E+00
         21   -1    0    0  504  503  0.00000000000E+00  0.00000000000E+00  0.12477992295E+04  0.12477992295E+04  0.00000000000E+00 0.  1.
         21   -1    0    0  503  504 -0.00000000000E+00 -0.00000000000E+00 -0.16788993112E+02  0.16788993112E+02  0.00000000000E+00 0.  1.
         25    2    1    2    0    0 -0.15841988628E+02  0.47268645068E+02  0.38275619775E+03  0.40572487932E+03  0.12500030949E+03 0.  0.
         25    2    1    2    0    0  0.15841988628E+02 -0.47268645068E+02  0.84825403866E+03  0.85886334332E+03  0.12500413983E+03 0.  0.
          5    1    3    3  501    0 -0.18715611058E+02  0.82732044544E+02  0.33716553466E+03  0.34770325431E+03  0.47000000000E+01 0. -1.
         -5    1    3    3    0  501  0.28736224303E+01 -0.35463399476E+02  0.45590663084E+02  0.58021625009E+02  0.47000000000E+01 0. -1.
          5    1    4    4  502    0  0.27085493814E+02 -0.38402798798E+02  0.84066430370E+03  0.84198988144E+03  0.47000000000E+01 0.  1.
         -5    1    4    4    0  502 -0.11243505186E+02 -0.88658462704E+01  0.75897349641E+01  0.16873461879E+02  0.47000000000E+01 0.  1.
<mgrwt>
<rscale>  0 0.28947741E+03</rscale>
<asrwt>0</asrwt>
<pdfrwt beam="1">  1       21 0.19196904E+00 0.28947741E+03</pdfrwt>
<pdfrwt beam="2">  1       21 0.25829230E-02 0.28947741E+03</pdfrwt>
<totfact> 0.11725099E+05</totfact>
</mgrwt>
</event>
<event>
 8    1  0.9123825E-006  0.2692701E+03  0.7546771E-02  0.1101698E+00
         21   -1    0    0  504  503  0.00000000000E+00  0.00000000000E+00  0.47932378837E+03  0.47932378837E+03  0.00000000000E+00 0. -1.
         21   -1    0    0  503  504 -0.00000000000E+00 -0.00000000000E+00 -0.37817008263E+02  0.37817008263E+02  0.00000000000E+00 0. -1.
         25    2    1    2    0    0  0.15358348097E+02 -0.47475715514E+02  0.22732152996E+03  0.26417764789E+03  0.12499971695E+03 0.  0.
         25    2    1    2    0    0 -0.15358348097E+02  0.47475715514E+02  0.21418525015E+03  0.25296314875E+03  0.12500084330E+03 0.  0.
          5    1    3    3  501    0 -0.44493542212E+01  0.36142071966E+02  0.12599610841E+03  0.13123702013E+03  0.47000000000E+01 0. -1.
         -5    1    3    3    0  501  0.19807702318E+02 -0.83617787480E+02  0.10132542156E+03  0.13294062775E+03  0.47000000000E+01 0. -1.
          5    1    4    4  502    0  0.11251004568E+02  0.73922401470E+02  0.65404412436E+02  0.99453173449E+02  0.47000000000E+01 0.  1.
         -5    1    4    4    0  502 -0.26609352666E+02 -0.26446685957E+02  0.14878083771E+03  0.15350997530E+03  0.47000000000E+01 0.  1.
<mgrwt>
<rscale>  0 0.26927006E+03</rscale>
<asrwt>0</asrwt>
<pdfrwt beam="1">  1       21 0.73742117E-01 0.26927006E+03</pdfrwt>
<pdfrwt beam="2">  1       21 0.58180016E-02 0.26927006E+03</pdfrwt>
<totfact> 0.33669102E+05</totfact>
</mgrwt>
</event>
<event>
 8    1  0.9123825E-006  0.2657916E+03  0.7546771E-02  0.1103713E+00
         21   -1    0    0  504  503  0.00000000000E+00  0.00000000000E+00  0.36757857010E+02  0.36757857010E+02  0.00000000000E+00 0.  1.
         21   -1    0    0  503  504 -0.00000000000E+00 -0.00000000000E+00 -0.48047669530E+03  0.48047669530E+03  0.00000000000E+00 0.  1.
         25    2    1    2    0    0 -0.25917060592E+02 -0.27948753368E+02 -0.26887728988E+03  0.29895241801E+03  0.12499889751E+03 0.  0.
         25    2    1    2    0    0  0.25917060592E+02  0.27948753368E+02 -0.17484154841E+03  0.21828213430E+03  0.12499878502E+03 0.  0.
          5    1    3    3  501    0  0.19916455501E+02 -0.58519806382E+02 -0.74795717130E+02  0.97147939966E+02  0.47000000000E+01 0. -1.
         -5    1    3    3    0  501 -0.45833516093E+02  0.30571053013E+02 -0.19408157275E+03  0.20180447804E+03  0.47000000000E+01 0. -1.
          5    1    4    4  502    0  0.16103572931E+02 -0.49542172941E+02 -0.74750500285E+02  0.91233103936E+02  0.47000000000E+01 0. -1.
         -5    1    4    4    0  502  0.98134876615E+01  0.77490926309E+02 -0.10009104813E+03  0.12704903036E+03  0.47000000000E+01 0. -1.
<mgrwt>
<rscale>  0 0.26579160E+03</rscale>
<asrwt>0</asrwt>
<pdfrwt beam="1">  1       21 0.56550551E-02 0.26579160E+03</pdfrwt>
<pdfrwt beam="2">  1       21 0.73919489E-01 0.26579160E+03</pdfrwt>
<totfact> 0.35191052E+05</totfact>
</mgrwt>
</event>
<event>
 8    1  0.9123825E-006  0.2970833E+03  0.7546771E-02  0.1086708E+00
         21   -1    0    0  504  503  0.00000000000E+00  0.00000000000E+00  0.81818052336E+02  0.81818052336E+02  0.00000000000E+00 0.  1.
         21   -1    0    0  503  504 -0.00000000000E+00 -0.00000000000E+00 -0.26967906924E+03  0.26967906924E+03  0.00000000000E+00 0.  1.
         25    2    1    2    0    0  0.15787688309E+02  0.25128527487E+02 -0.57475143870E+01  0.12862853185E+03  0.12502628239E+03 0.  0.
         25    2    1    2    0    0 -0.15787688309E+02 -0.25128527487E+02 -0.18211350252E+03  0.22286858973E+03  0.12499754595E+03 0.  0.
          5    1    3    3  501    0  0.43448986433E+02  0.31899396612E+02 -0.51392487635E+02  0.74623479626E+02  0.47000000000E+01 0. -1.
         -5    1    3    3    0  501 -0.27661298124E+02 -0.67708691253E+01  0.45644973248E+02  0.54005052221E+02  0.47000000000E+01 0. -1.
          5    1    4    4  502    0 -0.64688814097E+01 -0.20363446337E+02 -0.20023164701E+03  0.20142323311E+03  0.47000000000E+01 0.  1.
         -5    1    4    4    0  502 -0.93188068988E+01 -0.47650811498E+01  0.18118144494E+02  0.21445356614E+02  0.47000000000E+01 0.  1.
<mgrwt>
<rscale>  0 0.29708326E+03</rscale>
<asrwt>0</asrwt>
<pdfrwt beam="1">  1       21 0.12587393E-01 0.29708326E+03</pdfrwt>
<pdfrwt beam="2">  1       21 0.41489087E-01 0.29708326E+03</pdfrwt>
<totfact> 0.29398485E+05</totfact>
</mgrwt>
</event>
<event>
 8    1  0.9123825E-006  0.3951334E+03  0.7546771E-02  0.1045478E+00
         21   -1    0    0  504  503  0.00000000000E+00  0.00000000000E+00  0.93360815912E+03  0.93360815912E+03  0.00000000000E+00 0.  1.
         21   -1    0    0  503  504 -0.00000000000E+00 -0.00000000000E+00 -0.41808341468E+02  0.41808341468E+02  0.00000000000E+00 0.  1.
         25    2    1    2    0    0 -0.34452046373E+02 -0.11136060840E+02  0.81285933699E+03  0.82321105985E+03  0.12500076788E+03 0.  0.
         25    2    1    2    0    0  0.34452046373E+02  0.11136060840E+02  0.78940480667E+02  0.15220544075E+03  0.12499576535E+03 0.  0.
          5    1    3    3  501    0 -0.61147942832E+02  0.38530058528E+02  0.50920563503E+03  0.51433073510E+03  0.47000000000E+01 0. -1.
         -5    1    3    3    0  501  0.26695896459E+02 -0.49666119368E+02  0.30365370196E+03  0.30888032474E+03  0.47000000000E+01 0. -1.
          5    1    4    4  502    0  0.81471768707E+02  0.84683958625E+01  0.42026101858E+02  0.92182677669E+02  0.47000000000E+01 0. -1.
         -5    1    4    4    0  502 -0.47019722334E+02  0.26676649780E+01  0.36914378809E+02  0.60022763079E+02  0.47000000000E+01 0. -1.
<mgrwt>
<rscale>  0 0.39513344E+03</rscale>
<asrwt>0</asrwt>
<pdfrwt beam="1">  1       21 0.14363201E+00 0.39513344E+03</pdfrwt>
<pdfrwt beam="2">  1       21 0.64320532E-02 0.39513344E+03</pdfrwt>
<totfact> 0.54146790E+04</totfact>
</mgrwt>
</event>
<event>
 8    1  0.9123825E-006  0.2791387E+03  0.7546771E-02  0.1096160E+00
         21   -1    0    0  504  503  0.00000000000E+00  0.00000000000E+00  0.11225138529E+03  0.11225138529E+03  0.00000000000E+00 0.  1.
         21   -1    0    0  503  504 -0.00000000000E+00 -0.00000000000E+00 -0.17353552815E+03  0.17353552815E+03  0.00000000000E+00 0.  1.
         25    2    1    2    0    0 -0.34535757853E+02 -0.49517045600E+02 -0.15892377381E+02  0.13973797729E+03  0.12501791177E+03 0.  0.
         25    2    1    2    0    0  0.34535757853E+02  0.49517045600E+02 -0.45391765478E+02  0.14604893616E+03  0.12500089201E+03 0.  0.
          5    1    3    3  501    0  0.17278608824E+02 -0.71370171335E+02 -0.33182665990E+02  0.80718219761E+02  0.47000000000E+01 0. -1.
         -5    1    3    3    0  501 -0.51814366676E+02  0.21853125735E+02  0.17290288609E+02  0.59019757528E+02  0.47000000000E+01 0. -1.
          5    1    4    4  502    0  0.35971395298E+02 -0.83649075461E-03  0.35706133976E+02  0.50901466421E+02  0.47000000000E+01 0. -1.
         -5    1    4    4    0  502 -0.14356374453E+01  0.49517882090E+02 -0.81097899453E+02  0.95147469737E+02  0.47000000000E+01 0. -1.
<mgrwt>
<rscale>  0 0.27913870E+03</rscale>
<asrwt>0</asrwt>
<pdfrwt beam="1">  1       21 0.17269444E-01 0.27913870E+03</pdfrwt>
<pdfrwt beam="2">  1       21 0.26697773E-01 0.27913870E+03</pdfrwt>
<totfact> 0.39749430E+05</totfact>
</mgrwt>
</event>
<event>
 8    1  0.9123825E-006  0.2690920E+03  0.7546771E-02  0.1101800E+00
         21   -1    0    0  504  503  0.00000000000E+00  0.00000000000E+00  0.19843963869E+02  0.19843963869E+02  0.00000000000E+00 0.  1.
         21   -1    0    0  503  504 -0.00000000000E+00 -0.00000000000E+00 -0.91224872784E+03  0.91224872784E+03  0.00000000000E+00 0.  1.
         25    2    1    2    0    0  0.32795585014E+02 -0.18261316151E+02 -0.55924290642E+03  0.57427746766E+03  0.12503181764E+03 0.  0.
         25    2    1    2    0    0 -0.32795585014E+02  0.18261316151E+02 -0.33316185756E+03  0.35781522405E+03  0.12500354062E+03 0.  0.
          5    1    3    3  501    0 -0.19456014582E+02  0.38650587080E+02 -0.10794676272E+03  0.11639157172E+03  0.47000000000E+01 0. -1.
         -5    1    3    3    0  501  0.52251599596E+02 -0.56911903231E+02 -0.45129614369E+03  0.45788589594E+03  0.47000000000E+01 0. -1.
          5    1    4    4  502    0 -0.56005535537E+02 -0.36463492015E+02 -0.21900941818E+03  0.22902711960E+03  0.47000000000E+01 0.  1.
         -5    1    4    4    0  502  0.23209950523E+02  0.54724808166E+02 -0.11415243938E+03  0.12878810445E+03  0.47000000000E+01 0.  1.
<mgrwt>
<rscale>  0 0.26909203E+03</rscale>
<asrwt>0</asrwt>
<pdfrwt beam="1">  1       21 0.30529175E-02 0.26909203E+03</pdfrwt>
<pdfrwt beam="2">  1       21 0.14034596E+00 0.26909203E+03</pdfrwt>
<totfact> 0.21277149E+05</totfact>
</mgrwt>
</event>
<event>
 8    1  0.9123825E-006  0.2557039E+03  0.7546771E-02  0.1109752E+00
         21   -1    0    0  504  503  0.00000000000E+00  0.00000000000E+00  0.14394110768E+04  0.14394110768E+04  0.00000000000E+00 0.  1.
         21   -1    0    0  503  504 -0.00000000000E+00 -0.00000000000E+00 -0.11356115675E+02  0.11356115675E+02  0.00000000000E+00 0.  1.
         25    2    1    2    0    0  0.53156787058E+01 -0.20788147357E+02  0.80551802968E+03  0.81544095263E+03  0.12499699023E+03 0.  0.
         25    2    1    2    0    0 -0.53156787058E+01  0.20788147357E+02  0.62253693146E+03  0.63532623987E+03  0.12500718588E+03 0.  0.
          5    1    3    3  501    0  0.54404291253E+02  0.24046777447E+02  0.34419991479E+03  0.34933328750E+03  0.47000000000E+01 0. -1.
         -5    1    3    3    0  501 -0.49088612547E+02 -0.44834924803E+02  0.46131811489E+03  0.46610766513E+03  0.47000000000E+01 0. -1.
          5    1    4    4  502    0  0.28867144538E+02  0.53641554671E+02  0.17697638957E+03  0.18722569505E+03  0.47000000000E+01 0. -1.
         -5    1    4    4    0  502 -0.34182823244E+02 -0.32853407314E+02  0.44556054189E+03  0.44810054482E+03  0.47000000000E+01 0. -1.
<mgrwt>
<rscale>  0 0.25570388E+03</rscale>
<asrwt>0</asrwt>
<pdfrwt beam="1">  1       21 0.22144771E+00 0.25570388E+03</pdfrwt>
<pdfrwt beam="2">  1       21 0.17470959E-02 0.25570388E+03</pdfrwt>
<totfact> 0.14615580E+05</totfact>
</mgrwt>
</event>
<event>
 8    1  0.9123825E-006  0.2964404E+03  0.7546771E-02  0.1087034E+00
         21   -1    0    0  504  503  0.00000000000E+00  0.00000000000E+00  0.40490916133E+03  0.40490916133E+03  0.00000000000E+00 0. -1.
         21   -1    0    0  503  504 -0.00000000000E+00 -0.00000000000E+00 -0.54257168258E+02  0.54257168258E+02  0.00000000000E+00 0. -1.
         25    2    1    2    0    0 -0.90247763496E+01  0.75801925311E+02  0.14012489646E+03  0.20270176356E+03  0.12500255947E+03 0.  0.
         25    2    1    2    0    0  0.90247763496E+01 -0.75801925311E+02  0.21052709661E+03  0.25646456603E+03  0.12500014700E+03 0.  0.
          5    1    3    3  501    0 -0.26457363232E+02  0.95460799278E+02  0.54810754821E+02  0.11330959850E+03  0.47000000000E+01 0. -1.
         -5    1    3    3    0  501  0.17432586882E+02 -0.19658873967E+02  0.85314141640E+02  0.89392165064E+02  0.47000000000E+01 0. -1.
          5    1    4    4  502    0  0.43099695651E+02 -0.76795575753E+02  0.72356427430E+02  0.11407316429E+03  0.47000000000E+01 0. -1.
         -5    1    4    4    0  502 -0.34074919302E+02  0.99365044156E+00  0.13817066918E+03  0.14239140174E+03  0.47000000000E+01 0. -1.
<mgrwt>
<rscale>  0 0.29644038E+03</rscale>
<asrwt>0</asrwt>
<pdfrwt beam="1">  1       21 0.62293715E-01 0.29644038E+03</pdfrwt>
<pdfrwt beam="2">  1       21 0.83472569E-02 0.29644038E+03</pdfrwt>
<totfact> 0.25937841E+05</totfact>
</mgrwt>
</event>
<event>
 8    1  0.9123825E-006  0.2691381E+03  0.7546771E-02  0.1101774E+00
         21   -1    0    0  504  503  0.00000000000E+00  0.00000000000E+00  0.12334823557E+03  0.12334823557E+03  0.00000000000E+00 0. -1.
         21   -1    0    0  503  504 -0.00000000000E+00 -0.00000000000E+00 -0.14681058082E+03  0.14681058082E+03  0.00000000000E+00 0. -1.
         25    2    1    2    0    0 -0.12428173603E+02 -0.40308745342E+02  0.14828400980E+02  0.13279019330E+03  0.12503639274E+03 0.  0.
         25    2    1    2    0    0  0.12428173603E+02  0.40308745342E+02 -0.38290746226E+02  0.13736862309E+03  0.12499881164E+03 0.  0.
          5    1    3    3  501    0  0.26397962525E+02 -0.68259323379E+02 -0.16814478560E+02  0.75239646084E+02  0.47000000000E+01 0.  1.
         -5    1    3    3    0  501 -0.38826136128E+02  0.27950578037E+02  0.31642879540E+02  0.57550547215E+02  0.47000000000E+01 0.  1.
          5    1    4    4  502    0 -0.25199900874E+02  0.70919102856E+02 -0.29356215364E-01  0.75409846942E+02  0.47000000000E+01 0. -1.
         -5    1    4    4    0  502  0.37628074477E+02 -0.30610357514E+02 -0.38261390010E+02  0.61958776146E+02  0.47000000000E+01 0. -1.
<mgrwt>
<rscale>  0 0.26913808E+03</rscale>
<asrwt>0</asrwt>
<pdfrwt beam="1">  1       21 0.18976652E-01 0.26913808E+03</pdfrwt>
<pdfrwt beam="2">  1       21 0.22586243E-01 0.26913808E+03</pdfrwt>
<totfact> 0.46057853E+05</totfact>
</mgrwt>
</event>
<event>
 8    1  0.9123825E-006  0.6396128E+03  0.7546771E-02  0.9826468E-01
         21   -1    0    0  504  503  0.00000000000E+00  0.00000000000E+00  0.49036360601E+03  0.49036360601E+03  0.00000000000E+00 0. -1.
         21   -1    0    0  503  504 -0.00000000000E+00 -0.00000000000E+00 -0.20857202598E+03  0.20857202598E+03  0.00000000000E+00 0. -1.
         25    2    1    2    0    0 -0.15054289933E+03 -0.24563821125E+03  0.74853067926E+02  0.32284330060E+03  0.12499407825E+03 0.  0.
         25    2    1    2    0    0  0.15054289933E+03  0.24563821125E+03  0.20693851210E+03  0.37609233140E+03  0.12498239308E+03 0.  0.
          5    1    3    3  501    0 -0.13893994112E+03 -0.25930902160E+03  0.77134924881E+02  0.30416666904E+03  0.47000000000E+01 0. -1.
         -5    1    3    3    0  501 -0.11602958217E+02  0.13670810351E+02 -0.22818569546E+01  0.18676631554E+02  0.47000000000E+01 0. -1.
          5    1    4    4  502    0 -0.18917244831E+02  0.91092589325E+01  0.24592001202E+02  0.32675637307E+02  0.47000000000E+01 0.  1.
         -5    1    4    4    0  502  0.16946014416E+03  0.23652895231E+03  0.18234651090E+03  0.34341669409E+03  0.47000000000E+01 0.  1.
<mgrwt>
<rscale>  0 0.63961279E+03</rscale>
<asrwt>0</asrwt>
<pdfrwt beam="1">  1       21 0.75440555E-01 0.63961279E+03</pdfrwt>
<pdfrwt beam="2">  1       21 0.32088004E-01 0.63961279E+03</pdfrwt>
<totfact> 0.12572981E+04</totfact>
</mgrwt>
</event>
<event>
 8    1  0.9123825E-006  0.3023702E+03  0.7546771E-02  0.1084062E+00
         21   -1    0    0  504  503  0.00000000000E+00  0.00000000000E+00  0.23425248337E+03  0.23425248337E+03  0.00000000000E+00 0.  1.
         21   -1    0    0  503  504 -0.00000000000E+00 -0.00000000000E+00 -0.97573935127E+02  0.97573935127E+02  0.00000000000E+00 0.  1.
         25    2    1    2    0    0 -0.37512267037E+02  0.22993629893E+02  0.14817419711E+03  0.19881221042E+03  0.12503929434E+03 0.  0.
         25    2    1    2    0    0  0.37512267037E+02 -0.22993629893E+02 -0.11495648865E+02  0.13301420808E+03  0.12499900965E+03 0.  0.
          5    1    3    3  501    0 -0.79412880705E+02  0.13919091008E+02  0.59848203311E+02  0.10051887463E+03  0.47000000000E+01 0. -1.
         -5    1    3    3    0  501  0.41900613669E+02  0.90745388858E+01  0.88325993794E+02  0.98293335794E+02  0.47000000000E+01 0. -1.
          5    1    4    4  502    0  0.27256091988E+02 -0.64418687888E+02  0.27218108581E+02  0.75203572617E+02  0.47000000000E+01 0.  1.
         -5    1    4    4    0  502  0.10256175049E+02  0.41425057995E+02 -0.38713757446E+02  0.57810635458E+02  0.47000000000E+01 0.  1.
<mgrwt>
<rscale>  0 0.30237021E+03</rscale>
<asrwt>0</asrwt>
<pdfrwt beam="1">  1       21 0.36038844E-01 0.30237021E+03</pdfrwt>
<pdfrwt beam="2">  1       21 0.15011375E-01 0.30237021E+03</pdfrwt>
<totfact> 0.28343843E+05</totfact>
</mgrwt>
</event>
<event>
 8    1  0.9123825E-006  0.2527614E+03  0.7546771E-02  0.1111572E+00
         21   -1    0    0  504  503  0.00000000000E+00  0.00000000000E+00  0.56697990814E+02  0.56697990814E+02  0.00000000000E+00 0.  1.
         21   -1    0    0  503  504 -0.00000000000E+00 -0.00000000000E+00 -0.28170461519E+03  0.28170461519E+03  0.00000000000E+00 0.  1.
         25    2    1    2    0    0 -0.18575043891E+02 -0.57030056075E+00 -0.11057224062E+03  0.16791782083E+03  0.12499926663E+03 0.  0.
         25    2    1    2    0    0  0.18575043891E+02  0.57030056075E+00 -0.11443438376E+03  0.17048478517E+03  0.12499790515E+03 0.  0.
          5    1    3    3  501    0 -0.53305122855E+02  0.93907842324E+01 -0.30780957915E+01  0.54416795429E+02  0.47000000000E+01 0.  1.
         -5    1    3    3    0  501  0.34730078964E+02 -0.99610847931E+01 -0.10749414483E+03  0.11350102540E+03  0.47000000000E+01 0.  1.
          5    1    4    4  502    0  0.14445266939E+02  0.55607756192E+02 -0.96236055917E+02  0.11218001936E+03  0.47000000000E+01 0.  1.
         -5    1    4    4    0  502  0.41297769524E+01 -0.55037455631E+02 -0.18198327838E+02  0.58304765810E+02  0.47000000000E+01 0.  1.
<mgrwt>
<rscale>  0 0.25276143E+03</rscale>
<asrwt>0</asrwt>
<pdfrwt beam="1">  1       21 0.87227679E-02 0.25276143E+03</pdfrwt>
<pdfrwt beam="2">  1       21 0.43339171E-01 0.25276143E+03</pdfrwt>
<totfact> 0.52193031E+05</totfact>
</mgrwt>
</event>
<event>
 8    1  0.9123825E-006  0.2567489E+03  0.7546771E-02  0.1109112E+00
         21   -1    0    0  504  503  0.00000000000E+00  0.00000000000E+00  0.56532905736E+03  0.56532905736E+03  0.00000000000E+00 0.  1.
         21   -1    0    0  503  504 -0.00000000000E+00 -0.00000000000E+00 -0.29151152585E+02  0.29151152585E+02  0.00000000000E+00 0.  1.
         25    2    1    2    0    0  0.21437370379E+01 -0.62990525527E+01  0.33397910820E+03  0.35666675806E+03  0.12499943167E+03 0.  0.
         25    2    1    2    0    0 -0.21437370379E+01  0.62990525527E+01  0.20219879657E+03  0.23781345189E+03  0.12500644340E+03 0.  0.
          5    1    3    3  501    0  0.11379174092E+02 -0.45167465832E+02  0.30108727890E+03  0.30470514450E+03  0.47000000000E+01 0. -1.
         -5    1    3    3    0  501 -0.92354370541E+01  0.38868413279E+02  0.32891829306E+02  0.51961613558E+02  0.47000000000E+01 0. -1.
          5    1    4    4  502    0  0.14455066509E+02 -0.50353318678E+02  0.42937177537E+02  0.67897694103E+02  0.47000000000E+01 0.  1.
         -5    1    4    4    0  502 -0.16598803546E+02  0.56652371230E+02  0.15926161904E+03  0.16991575778E+03  0.47000000000E+01 0.  1.
<mgrwt>
<rscale>  0 0.25674885E+03</rscale>
<asrwt>0</asrwt>
<pdfrwt beam="1">  1       21 0.86973693E-01 0.25674885E+03</pdfrwt>
<pdfrwt beam="2">  1       21 0.44847931E-02 0.25674885E+03</pdfrwt>
<totfact> 0.36154898E+05</totfact>
</mgrwt>
</event>
<event>
 8    1  0.9123825E-006  0.2844741E+03  0.7546771E-02  0.1093270E+00
         21   -1    0    0  504  503  0.00000000000E+00  0.00000000000E+00  0.68271517400E+02  0.68271517400E+02  0.00000000000E+00 0.  1.
         21   -1    0    0  503  504 -0.00000000000E+00 -0.00000000000E+00 -0.29633694918E+03  0.29633694918E+03  0.00000000000E+00 0.  1.
         25    2    1    2    0    0 -0.63938850309E+02 -0.38399649642E+01 -0.85253267069E+02  0.16430483526E+03  0.12500014974E+03 0.  0.
         25    2    1    2    0    0  0.63938850309E+02  0.38399649642E+01 -0.14281216471E+03  0.20030363132E+03  0.12499323349E+03 0.  0.
          5    1    3    3  501    0 -0.83701076491E+02  0.86556463112E+01 -0.10407762667E+03  0.13392174129E+03  0.47000000000E+01 0.  1.
         -5    1    3    3    0  501  0.19762226182E+02 -0.12495611275E+02  0.18824359597E+02  0.30383093968E+02  0.47000000000E+01 0.  1.
          5    1    4    4  502    0 -0.31108805548E+02 -0.20896368327E+02 -0.19245268811E+02  0.42389696431E+02  0.47000000000E+01 0. -1.
         -5    1    4    4    0  502  0.95047655857E+02  0.24736333291E+02 -0.12356689590E+03  0.15791393489E+03  0.47000000000E+01 0. -1.
<mgrwt>
<rscale>  0 0.28447406E+03</rscale>
<asrwt>0</asrwt>
<pdfrwt beam="1">  1       21 0.10503310E-01 0.28447406E+03</pdfrwt>
<pdfrwt beam="2">  1       21 0.45590300E-01 0.28447406E+03</pdfrwt>
<totfact> 0.33605822E+05</totfact>
</mgrwt>
</event>
<event>
 8    1  0.9123825E-006  0.3237119E+03  0.7546771E-02  0.1073954E+00
         21   -1    0    0  504  503  0.00000000000E+00  0.00000000000E+00  0.10631974292E+03  0.10631974292E+03  0.00000000000E+00 0. -1.
         21   -1    0    0  503  504 -0.00000000000E+00 -0.00000000000E+00 -0.24640160183E+03  0.24640160183E+03  0.00000000000E+00 0. -1.
         25    2    1    2    0    0  0.90580262564E+02  0.43745433492E+02 -0.46767329198E+02  0.16711002135E+03  0.12498051543E+03 0.  0.
         25    2    1    2    0    0 -0.90580262564E+02 -0.43745433492E+02 -0.93314529706E+02  0.18561132340E+03  0.12500205999E+03 0.  0.
          5    1    3    3  501    0  0.39492579531E+02  0.58386211002E+02 -0.78041950823E+02  0.10526751427E+03  0.47000000000E+01 0.  1.
         -5    1    3    3    0  501  0.51087683033E+02 -0.14640777510E+02  0.31274621625E+02  0.61842507077E+02  0.47000000000E+01 0.  1.
          5    1    4    4  502    0 -0.29253757874E+02 -0.22556761235E+02 -0.11191745048E+03  0.11794997054E+03  0.47000000000E+01 0. -1.
         -5    1    4    4    0  502 -0.61326504690E+02 -0.21188672257E+02  0.18602920778E+02  0.67661352861E+02  0.47000000000E+01 0. -1.
<mgrwt>
<rscale>  0 0.32371194E+03</rscale>
<asrwt>0</asrwt>
<pdfrwt beam="1">  1       21 0.16356884E-01 0.32371194E+03</pdfrwt>
<pdfrwt beam="2">  1       21 0.37907939E-01 0.32371194E+03</pdfrwt>
<totfact> 0.21744171E+05</totfact>
</mgrwt>
</event>
<event>
 8    1  0.9123825E-006  0.3866115E+03  0.7546771E-02  0.1048517E+00
         21   -1    0    0  504  503  0.00000000000E+00  0.00000000000E+00  0.88138489142E+03  0.88138489142E+03  0.00000000000E+00 0.  1.
         21   -1    0    0  503  504 -0.00000000000E+00 -0.00000000000E+00 -0.42395910676E+02  0.42395910676E+02  0.00000000000E+00 0.  1.
         25    2    1    2    0    0  0.10757427248E+03  0.98129078372E+02  0.47498495891E+03  0.51228781793E+03  0.12500622817E+03 0.  0.
         25    2    1    2    0    0 -0.10757427248E+03 -0.98129078372E+02  0.36400402183E+03  0.41149298417E+03  0.12500403189E+03 0.  0.
          5    1    3    3  501    0  0.10347637781E+01 -0.47713495509E+01  0.19829787877E+03  0.19841364680E+03  0.47000000000E+01 0. -1.
         -5    1    3    3    0  501  0.10653950870E+03  0.10290042792E+03  0.27668708014E+03  0.31387417112E+03  0.47000000000E+01 0. -1.
          5    1    4    4  502    0 -0.32610963769E+02  0.24046954400E+02  0.13732009237E+03  0.14325023121E+03  0.47000000000E+01 0. -1.
         -5    1    4    4    0  502 -0.74963308714E+02 -0.12217603277E+03  0.22668392946E+03  0.26824275295E+03  0.47000000000E+01 0. -1.
<mgrwt>
<rscale>  0 0.38661151E+03</rscale>
<asrwt>0</asrwt>
<pdfrwt beam="1">  1       21 0.13559766E+00 0.38661151E+03</pdfrwt>
<pdfrwt beam="2">  1       21 0.65224484E-02 0.38661151E+03</pdfrwt>
<totfact> 0.61680217E+04</totfact>
</mgrwt>
</event>
<event>
 8    1  0.9123825E-006  0.4558546E+03  0.7546771E-02  0.1025990E+00
         21   -1    0    0  504  503  0.00000000000E+00  0.00000000000E+00  0.87847019207E+02  0.87847019207E+02  0.00000000000E+00 0.  1.
         21   -1    0    0  503  504 -0.00000000000E+00 -0.00000000000E+00 -0.59137868755E+03  0.59137868755E+03  0.00000000000E+00 0.  1.
         25    2    1    2    0    0  0.17570878727E+03 -0.29555849927E+02 -0.35251060513E+03  0.41428962987E+03  0.12500017799E+03 0.  0.
         25    2    1    2    0    0 -0.17570878727E+03  0.29555849927E+02 -0.15102106321E+03  0.26493607689E+03  0.12504653980E+03 0.  0.
          5    1    3    3  501    0  0.95138487860E+02  0.42840400564E+02 -0.21630413704E+03  0.24020033616E+03  0.47000000000E+01 0. -1.
         -5    1    3    3    0  501  0.80570299411E+02 -0.72396250491E+02 -0.13620646809E+03  0.17408929371E+03  0.47000000000E+01 0. -1.
          5    1    4    4  502    0 -0.89970670936E+02 -0.20529337227E+02 -0.10768777500E+02  0.93028124159E+02  0.47000000000E+01 0.  1.
         -5    1    4    4    0  502 -0.85738116334E+02  0.50085187154E+02 -0.14025228571E+03  0.17190795273E+03  0.47000000000E+01 0.  1.
<mgrwt>
<rscale>  0 0.45585460E+03</rscale>
<asrwt>0</asrwt>
<pdfrwt beam="1">  1       21 0.13514927E-01 0.45585460E+03</pdfrwt>
<pdfrwt beam="2">  1       21 0.90981333E-01 0.45585460E+03</pdfrwt>
<totfact> 0.44415256E+04</totfact>
</mgrwt>
</event>
<event>
 8    1  0.9123825E-006  0.2625789E+03  0.7546771E-02  0.1105604E+00
         21   -1    0    0  504  503  0.00000000000E+00  0.00000000000E+00  0.92434862744E+02  0.92434862744E+02  0.00000000000E+00 0.  1.
         21   -1    0    0  503  504 -0.00000000000E+00 -0.00000000000E+00 -0.18647641306E+03  0.18647641306E+03  0.00000000000E+00 0.  1.
         25    2    1    2    0    0  0.20797212344E+02  0.29487944233E+02 -0.28314758260E+02  0.13314707288E+03  0.12499741831E+03 0.  0.
         25    2    1    2    0    0 -0.20797212344E+02 -0.29487944233E+02 -0.65726792053E+02  0.14576420292E+03  0.12500051505E+03 0.  0.
          5    1    3    3  501    0 -0.13080111592E+02  0.70909935578E+02  0.35020245279E+00  0.72260092199E+02  0.47000000000E+01 0. -1.
         -5    1    3    3    0  501  0.33877323936E+02 -0.41421991344E+02 -0.28664960712E+02  0.60886980682E+02  0.47000000000E+01 0. -1.
          5    1    4    4  502    0 -0.39678987796E+02 -0.72337228014E+02 -0.36292803001E+02  0.90257155832E+02  0.47000000000E+01 0.  1.
         -5    1    4    4    0  502  0.18881775452E+02  0.42849283781E+02 -0.29433989053E+02  0.55507047087E+02  0.47000000000E+01 0.  1.
<mgrwt>
<rscale>  0 0.26257891E+03</rscale>
<asrwt>0</asrwt>
<pdfrwt beam="1">  1       21 0.14220748E-01 0.26257891E+03</pdfrwt>
<pdfrwt beam="2">  1       21 0.28688679E-01 0.26257891E+03</pdfrwt>
<totfact> 0.49563720E+05</totfact>
</mgrwt>
</event>
<event>
 8    1  0.9123825E-006  0.2563161E+03  0.7546771E-02  0.1109377E+00
         21   -1    0    0  504  503  0.00000000000E+00  0.00000000000E+00  0.30754343947E+03  0.30754343947E+03  0.00000000000E+00 0.  1.
         21   -1    0    0  503  504 -0.00000000000E+00 -0.00000000000E+00 -0.53405404886E+02  0.53405404886E+02  0.00000000000E+00 0.  1.
         25    2    1    2    0    0 -0.49551579486E+01 -0.24352066457E+02  0.14603173770E+03  0.19382614256E+03  0.12500291354E+03 0.  0.
         25    2    1    2    0    0  0.49551579486E+01  0.24352066457E+02  0.10810629689E+03  0.16712270180E+03  0.12500179718E+03 0.  0.
          5    1    3    3  501    0  0.68061274417E+01 -0.72429465700E+02  0.59804176800E+02  0.94291995604E+02  0.47000000000E+01 0.  1.
         -5    1    3    3    0  501 -0.11761285390E+02  0.48077399243E+02  0.86227560896E+02  0.99534146955E+02  0.47000000000E+01 0.  1.
          5    1    4    4  502    0 -0.18233847938E+02 -0.46574100798E+02  0.59826230590E+02  0.78120982728E+02  0.47000000000E+01 0.  1.
         -5    1    4    4    0  502  0.23189005887E+02  0.70926167255E+02  0.48280066300E+02  0.89001719071E+02  0.47000000000E+01 0.  1.
<mgrwt>
<rscale>  0 0.25631607E+03</rscale>
<asrwt>0</asrwt>
<pdfrwt beam="1">  1       21 0.47314374E-01 0.25631607E+03</pdfrwt>
<pdfrwt beam="2">  1       21 0.82162163E-02 0.25631607E+03</pdfrwt>
<totfact> 0.48319699E+05</totfact>
</mgrwt>
</event>
<event>
 8    1  0.9123825E-006  0.2579666E+03  0.7546771E-02  0.1108371E+00
         21   -1    0    0  504  503  0.00000000000E+00  0.00000000000E+00  0.16197792135E+02  0.16197792135E+02  0.00000000000E+00 0. -1.
         21   -1    0    0  503  504 -0.00000000000E+00 -0.00000000000E+00 -0.10270961120E+04  0.10270961120E+04  0.00000000000E+00 0. -1.
         25    2    1    2    0    0 -0.10694466516E+02 -0.27340523737E+02 -0.55492075854E+03  0.56958239043E+03  0.12500070148E+03 0.  0.
         25    2    1    2    0    0  0.10694466516E+02  0.27340523737E+02 -0.45597756132E+03  0.47371151370E+03  0.12500074374E+03 0.  0.
          5    1    3    3  501    0  0.31009298435E+02 -0.58694401768E+02 -0.19913579348E+03  0.20996133843E+03  0.47000000000E+01 0.  1.
         -5    1    3    3    0  501 -0.41703764951E+02  0.31353878031E+02 -0.35578496506E+03  0.35962105200E+03  0.47000000000E+01 0.  1.
          5    1    4    4  502    0 -0.20113731264E+02 -0.42247559280E+02 -0.11364989949E+03  0.12299515480E+03  0.47000000000E+01 0. -1.
         -5    1    4    4    0  502  0.30808197780E+02  0.69588083017E+02 -0.34232766183E+03  0.35071635890E+03  0.47000000000E+01 0. -1.
<mgrwt>
<rscale>  0 0.25796658E+03</rscale>
<asrwt>0</asrwt>
<pdfrwt beam="1">  1       21 0.24919684E-02 0.25796658E+03</pdfrwt>
<pdfrwt beam="2">  1       21 0.15801476E+00 0.25796658E+03</pdfrwt>
<totfact> 0.21814981E+05</totfact>
</mgrwt>
</event>
<event>
 8    1  0.9123825E-006  0.2596441E+03  0.7546771E-02  0.1107357E+00
         21   -1    0    0  504  503  0.00000000000E+00  0.00000000000E+00  0.14834128798E+03  0.14834128798E+03  0.00000000000E+00 0. -1.
         21   -1    0    0  503  504 -0.00000000000E+00 -0.00000000000E+00 -0.11361476102E+03  0.11361476102E+03  0.00000000000E+00 0. -1.
         25    2    1    2    0    0 -0.33737692962E+02 -0.71659332085E+01  0.11123704256E+02  0.13014836342E+03  0.12500110871E+03 0.  0.
         25    2    1    2    0    0  0.33737692962E+02  0.71659332085E+01  0.23602822702E+02  0.13180768558E+03  0.12500636069E+03 0.  0.
          5    1    3    3  501    0  0.23528682806E+02  0.40150810776E+02 -0.18140683192E+02  0.50168325737E+02  0.47000000000E+01 0.  1.
         -5    1    3    3    0  501 -0.57266375768E+02 -0.47316743985E+02  0.29264387448E+02  0.79980037682E+02  0.47000000000E+01 0.  1.
          5    1    4    4  502    0  0.23148634052E+01  0.40475508846E+02 -0.37418831197E+02  0.55370428363E+02  0.47000000000E+01 0. -1.
         -5    1    4    4    0  502  0.31422829557E+02 -0.33309575637E+02  0.61021653899E+02  0.76437257218E+02  0.47000000000E+01 0. -1.
<mgrwt>
<rscale>  0 0.25964406E+03</rscale>
<asrwt>0</asrwt>
<pdfrwt beam="1">  1       21 0.22821737E-01 0.25964406E+03</pdfrwt>
<pdfrwt beam="2">  1       21 0.17479194E-01 0.25964406E+03</pdfrwt>
<totfact> 0.52722066E+05</totfact>
</mgrwt>
</event>
<event>
 8    1  0.9123825E-006  0.3531290E+03  0.7546771E-02  0.1061338E+00
         21   -1    0    0  504  503  0.00000000000E+00  0.00000000000E+00  0.61836328875E+03  0.61836328875E+03  0.00000000000E+00 0. -1.
         21   -1    0    0  503  504 -0.00000000000E+00 -0.00000000000E+00 -0.50415377919E+02  0.50415377919E+02  0.00000000000E+00 0. -1.
         25    2    1    2    0    0 -0.10401342346E+03  0.26549178133E+02  0.40415971533E+03  0.43645490343E+03  0.12499662442E+03 0.  0.
         25    2    1    2    0    0  0.10401342346E+03 -0.26549178133E+02  0.16378819550E+03  0.23232376323E+03  0.12499642738E+03 0.  0.
          5    1    3    3  501    0 -0.12881808481E+03  0.33197001537E+02  0.28618998203E+03  0.31563101194E+03  0.47000000000E+01 0. -1.
         -5    1    3    3    0  501  0.24804661348E+02 -0.66478234042E+01  0.11796973330E+03  0.12082389150E+03  0.47000000000E+01 0. -1.
          5    1    4    4  502    0 -0.11070056375E+02  0.32914475801E+02  0.31606657531E+02  0.47190885409E+02  0.47000000000E+01 0.  1.
         -5    1    4    4    0  502  0.11508347984E+03 -0.59463653934E+02  0.13218153797E+03  0.18513287782E+03  0.47000000000E+01 0.  1.
<mgrwt>
<rscale>  0 0.35312898E+03</rscale>
<asrwt>0</asrwt>
<pdfrwt beam="1">  1       21 0.95132808E-01 0.35312898E+03</pdfrwt>
<pdfrwt beam="2">  1       21 0.77562124E-02 0.35312898E+03</pdfrwt>
<totfact> 0.11108935E+05</totfact>
</mgrwt>
</event>
<event>
 8    1  0.9123825E-006  0.5044492E+03  0.7546771E-02  0.1012624E+00
         21   -1    0    0  504  503  0.00000000000E+00  0.00000000000E+00  0.15184325360E+03  0.15184325360E+03  0.00000000000E+00 0.  1.
         21   -1    0    0  503  504 -0.00000000000E+00 -0.00000000000E+00 -0.41896651343E+03  0.41896651343E+03  0.00000000000E+00 0.  1.
         25    2    1    2    0    0  0.12385571074E+03 -0.10404300836E+03 -0.30073614876E+03  0.36363941403E+03  0.12500483028E+03 0.  0.
         25    2    1    2    0    0 -0.12385571074E+03  0.10404300836E+03  0.33612888934E+02  0.20717035300E+03  0.12499817674E+03 0.  0.
          5    1    3    3  501    0  0.85024818307E+02 -0.11692950135E+03 -0.15420383743E+03  0.21142999194E+03  0.47000000000E+01 0.  1.
         -5    1    3    3    0  501  0.38830892437E+02  0.12886492995E+02 -0.14653231133E+03  0.15220942209E+03  0.47000000000E+01 0.  1.
          5    1    4    4  502    0 -0.11941637937E+03  0.26554406886E+02 -0.88048804539E-01  0.12242346972E+03  0.47000000000E+01 0.  1.
         -5    1    4    4    0  502 -0.44393313761E+01  0.77488601470E+02  0.33700937738E+02  0.84746883278E+02  0.47000000000E+01 0.  1.
<mgrwt>
<rscale>  0 0.50444916E+03</rscale>
<asrwt>0</asrwt>
<pdfrwt beam="1">  1       21 0.23360501E-01 0.50444916E+03</pdfrwt>
<pdfrwt beam="2">  1       21 0.64456386E-01 0.50444916E+03</pdfrwt>
<totfact> 0.34542355E+04</totfact>
</mgrwt>
</event>
<event>
 8    1  0.9123825E-006  0.3298523E+03  0.7546771E-02  0.1071202E+00
         21   -1    0    0  504  503  0.00000000000E+00  0.00000000000E+00  0.37074844181E+03  0.37074844181E+03  0.00000000000E+00 0. -1.
         21   -1    0    0  503  504 -0.00000000000E+00 -0.00000000000E+00 -0.73366832720E+02  0.73366832720E+02  0.00000000000E+00 0. -1.
         25    2    1    2    0    0 -0.82608231546E+02  0.10246471905E+02  0.24046324339E+03  0.28350826870E+03  0.12500102756E+03 0.  0.
         25    2    1    2    0    0  0.82608231546E+02 -0.10246471905E+02  0.56918365693E+02  0.16060700583E+03  0.12500319941E+03 0.  0.
          5    1    3    3  501    0  0.22099879299E+02  0.33961325108E+02  0.47254217761E+02  0.62424573402E+02  0.47000000000E+01 0. -1.
         -5    1    3    3    0  501 -0.10470811085E+03 -0.23714853204E+02  0.19320902563E+03  0.22108369530E+03  0.47000000000E+01 0. -1.
          5    1    4    4  502    0 -0.20159429465E+02 -0.17748268782E+02  0.50338530696E+02  0.57249116270E+02  0.47000000000E+01 0. -1.
         -5    1    4    4    0  502  0.10276766101E+03  0.75017968775E+01  0.65798349975E+01  0.10335788956E+03  0.47000000000E+01 0. -1.
<mgrwt>
<rscale>  0 0.32985232E+03</rscale>
<asrwt>0</asrwt>
<pdfrwt beam="1">  1       21 0.57038221E-01 0.32985232E+03</pdfrwt>
<pdfrwt beam="2">  1       21 0.11287205E-01 0.32985232E+03</pdfrwt>
<totfact> 0.18213324E+05</totfact>
</mgrwt>
</event>
<event>
 8    1  0.9123825E-006  0.2912307E+03  0.7546771E-02  0.1089708E+00
         21   -1    0    0  504  503  0.00000000000E+00  0.00000000000E+00  0.20908621999E+03  0.20908621999E+03  0.00000000000E+00 0.  1.
         21   -1    0    0  503  504 -0.00000000000E+00 -0.00000000000E+00 -0.10141193000E+03  0.10141193000E+03  0.00000000000E+00 0.  1.
         25    2    1    2    0    0  0.30540578965E+02  0.66409120941E+02  0.70054474518E+02  0.16088772763E+03  0.12503732721E+03 0.  0.
         25    2    1    2    0    0 -0.30540578965E+02 -0.66409120941E+02  0.37619815478E+02  0.14961042236E+03  0.12500051862E+03 0.  0.
          5    1    3    3  501    0  0.40272882293E+02  0.32926902910E+02 -0.26178297198E+02  0.58424988041E+02  0.47000000000E+01 0. -1.
         -5    1    3    3    0  501 -0.97323033287E+01  0.33482218031E+02  0.96232771716E+02  0.10246273959E+03  0.47000000000E+01 0. -1.
          5    1    4    4  502    0  0.13200849700E+01 -0.41164959351E+02  0.80371016683E+02  0.90431669371E+02  0.47000000000E+01 0.  1.
         -5    1    4    4    0  502 -0.31860663935E+02 -0.25244161590E+02 -0.42751201205E+02  0.59178752988E+02  0.47000000000E+01 0.  1.
<mgrwt>
<rscale>  0 0.29123075E+03</rscale>
<asrwt>0</asrwt>
<pdfrwt beam="1">  1       21 0.32167111E-01 0.29123075E+03</pdfrwt>
<pdfrwt beam="2">  1       21 0.15601835E-01 0.29123075E+03</pdfrwt>
<totfact> 0.33203665E+05</totfact>
</mgrwt>
</event>
<event>
 8    1  0.9123825E-006  0.3027687E+03  0.7546771E-02  0.1083865E+00
         21   -1    0    0  504  503  0.00000000000E+00  0.00000000000E+00  0.18489380783E+02  0.18489380783E+02  0.00000000000E+00 0. -1.
         21   -1    0    0  503  504 -0.00000000000E+00 -0.00000000000E+00 -0.12394798127E+04  0.12394798127E+04  0.00000000000E+00 0. -1.
         25    2    1    2    0    0 -0.60904666529E+02  0.56876249041E+02 -0.53292261957E+03  0.55369209478E+03  0.12499652502E+03 0.  0.
         25    2    1    2    0    0  0.60904666529E+02 -0.56876249041E+02 -0.68806781238E+03  0.70427709873E+03  0.12499852501E+03 0.  0.
          5    1    3    3  501    0 -0.33290315749E+02  0.36167599170E+02 -0.50910201804E+03  0.51149124638E+03  0.47000000000E+01 0.  1.
         -5    1    3    3    0  501 -0.27614350780E+02  0.20708649870E+02 -0.23820601526E+02  0.42200848398E+02  0.47000000000E+01 0.  1.
          5    1    4    4  502    0  0.28566384774E+02  0.32261766222E+02 -0.36450649715E+03  0.36707483755E+03  0.47000000000E+01 0. -1.
         -5    1    4    4    0  502  0.32338281755E+02 -0.89138015262E+02 -0.32356131523E+03  0.33720226118E+03  0.47000000000E+01 0. -1.
<mgrwt>
<rscale>  0 0.30276865E+03</rscale>
<asrwt>0</asrwt>
<pdfrwt beam="1">  1       21 0.28445199E-02 0.30276865E+03</pdfrwt>
<pdfrwt beam="2">  1       21 0.19068922E+00 0.30276865E+03</pdfrwt>
<totfact> 0.10136191E+05</totfact>
</mgrwt>
</event>
<event>
 8    1  0.9123825E-006  0.3003403E+03  0.7546771E-02  0.1085071E+00
         21   -1    0    0  504  503  0.00000000000E+00  0.00000000000E+00  0.98916671335E+02  0.98916671335E+02  0.00000000000E+00 0.  1.
         21   -1    0    0  503  504 -0.00000000000E+00 -0.00000000000E+00 -0.22798048886E+03  0.22798048886E+03  0.00000000000E+00 0.  1.
         25    2    1    2    0    0  0.78974442284E+02 -0.25224581798E+02 -0.72348244504E+02  0.16653779623E+03  0.12500930776E+03 0.  0.
         25    2    1    2    0    0 -0.78974442284E+02  0.25224581798E+02 -0.56715573021E+02  0.16035936397E+03  0.12500090931E+03 0.  0.
          5    1    3    3  501    0  0.13204619853E+02 -0.18842260145E+02  0.33953733590E+02  0.41283638134E+02  0.47000000000E+01 0.  1.
         -5    1    3    3    0  501  0.65769822432E+02 -0.63823216535E+01 -0.10630197809E+03  0.12525415809E+03  0.47000000000E+01 0.  1.
          5    1    4    4  502    0 -0.10249410828E+03  0.44004750813E+02 -0.64479563897E+02  0.12892309525E+03  0.47000000000E+01 0.  1.
         -5    1    4    4    0  502  0.23519666000E+02 -0.18780169015E+02  0.77639908762E+01  0.31436268724E+02  0.47000000000E+01 0.  1.
<mgrwt>
<rscale>  0 0.30034028E+03</rscale>
<asrwt>0</asrwt>
<pdfrwt beam="1">  1       21 0.15217950E-01 0.30034028E+03</pdfrwt>
<pdfrwt beam="2">  1       21 0.35073921E-01 0.30034028E+03</pdfrwt>
<totfact> 0.29200866E+05</totfact>
</mgrwt>
</event>
<event>
 8    1  0.9123825E-006  0.3340231E+03  0.7546771E-02  0.1069371E+00
         21   -1    0    0  504  503  0.00000000000E+00  0.00000000000E+00  0.84312496116E+02  0.84312496116E+02  0.00000000000E+00 0.  1.
         21   -1    0    0  503  504 -0.00000000000E+00 -0.00000000000E+00 -0.33082710332E+03  0.33082710332E+03  0.00000000000E+00 0.  1.
         25    2    1    2    0    0  0.82112536549E+02 -0.66602615945E+02 -0.16433544302E+03  0.23196534227E+03  0.12499362011E+03 0.  0.
         25    2    1    2    0    0 -0.82112536549E+02  0.66602615945E+02 -0.82179164178E+02  0.18317425717E+03  0.12498406440E+03 0.  0.
          5    1    3    3  501    0 -0.26904201954E+02  0.11263614527E+02 -0.26369288403E+02  0.39599677599E+02  0.47000000000E+01 0.  1.
         -5    1    3    3    0  501  0.10901673850E+03 -0.77866230473E+02 -0.13796615462E+03  0.19236566467E+03  0.47000000000E+01 0.  1.
          5    1    4    4  502    0  0.27749998475E+02  0.16694462180E+02  0.64857787419E+01  0.33360497729E+02  0.47000000000E+01 0.  1.
         -5    1    4    4    0  502 -0.10986253502E+03  0.49908153766E+02 -0.88664942920E+02  0.14981375944E+03  0.47000000000E+01 0.  1.
<mgrwt>
<rscale>  0 0.33402311E+03</rscale>
<asrwt>0</asrwt>
<pdfrwt beam="1">  1       21 0.12971153E-01 0.33402311E+03</pdfrwt>
<pdfrwt beam="2">  1       21 0.50896478E-01 0.33402311E+03</pdfrwt>
<totfact> 0.18043126E+05</totfact>
</mgrwt>
</event>
<event>
 8    1  0.9123825E-006  0.3471841E+03  0.7546771E-02  0.1063777E+00
         21   -1    0    0  504  503  0.00000000000E+00  0.00000000000E+00  0.74765104576E+02  0.74765104576E+02  0.00000000000E+00 0. -1.
         21   -1    0    0  503  504 -0.00000000000E+00 -0.00000000000E+00 -0.40305164984E+03  0.40305164984E+03  0.00000000000E+00 0. -1.
         25    2    1    2    0    0  0.64953223597E+02  0.10073117416E+03 -0.18057900119E+03  0.25019744767E+03  0.12499718576E+03 0.  0.
         25    2    1    2    0    0 -0.64953223597E+02 -0.10073117416E+03 -0.14770754408E+03  0.22761930675E+03  0.12500935774E+03 0.  0.
          5    1    3    3  501    0 -0.97578608125E-01  0.37127458253E+02  0.10195471222E+02  0.38787824267E+02  0.47000000000E+01 0. -1.
         -5    1    3    3    0  501  0.65050802205E+02  0.63603715911E+02 -0.19077447241E+03  0.21140962340E+03  0.47000000000E+01 0. -1.
          5    1    4    4  502    0 -0.68188709616E+02  0.34862686378E+01 -0.65856824694E+02  0.94979290094E+02  0.47000000000E+01 0. -1.
         -5    1    4    4    0  502  0.32354860186E+01 -0.10421744280E+03 -0.81850719389E+02  0.13264001666E+03  0.47000000000E+01 0. -1.
<mgrwt>
<rscale>  0 0.34718409E+03</rscale>
<asrwt>0</asrwt>
<pdfrwt beam="1">  1       21 0.11502324E-01 0.34718409E+03</pdfrwt>
<pdfrwt beam="2">  1       21 0.62007947E-01 0.34718409E+03</pdfrwt>
<totfact> 0.14624267E+05</totfact>
</mgrwt>
</event>
<event>
 8    1  0.9123825E-006  0.2666376E+03  0.7546771E-02  0.1103220E+00
         21   -1    0    0  504  503  0.00000000000E+00  0.00000000000E+00  0.10934764074E+04  0.10934764074E+04  0.00000000000E+00 0. -1.
         21   -1    0    0  503  504 -0.00000000000E+00 -0.00000000000E+00 -0.16254493223E+02  0.16254493223E+02  0.00000000000E+00 0. -1.
         25    2    1    2    0    0 -0.31614968462E+02 -0.16291244236E+02  0.41512972816E+03  0.43499845706E+03  0.12500422220E+03 0.  0.
         25    2    1    2    0    0  0.31614968462E+02  0.16291244236E+02  0.66209218601E+03  0.67473244357E+03  0.12503158301E+03 0.  0.
          5    1    3    3  501    0 -0.47811177879E+02  0.37451051469E+02  0.30797682044E+03  0.31394315076E+03  0.47000000000E+01 0.  1.
         -5    1    3    3    0  501  0.16196209417E+02 -0.53742295705E+02  0.10715290773E+03  0.12105530629E+03  0.47000000000E+01 0.  1.
          5    1    4    4  502    0 -0.13247254871E+02 -0.23902231938E+02  0.34608600655E+02  0.44346946823E+02  0.47000000000E+01 0.  1.
         -5    1    4    4    0  502  0.44862223333E+02  0.40193476174E+02  0.62748358536E+03  0.63038549674E+03  0.47000000000E+01 0.  1.
<mgrwt>
<rscale>  0 0.26663762E+03</rscale>
<asrwt>0</asrwt>
<pdfrwt beam="1">  1       21 0.16822708E+00 0.26663762E+03</pdfrwt>
<pdfrwt beam="2">  1       21 0.25006921E-02 0.26663762E+03</pdfrwt>
<totfact> 0.18205549E+05</totfact>
</mgrwt>
</event>
<event>
 8    1  0.9123825E-006  0.3422223E+03  0.7546771E-02  0.1065853E+00
         21   -1    0    0  504  503  0.00000000000E+00  0.00000000000E+00  0.19645398284E+04  0.19645398284E+04  0.00000000000E+00 0. -1.
         21   -1    0    0  503  504 -0.00000000000E+00 -0.00000000000E+00 -0.14903756301E+02  0.14903756301E+02  0.00000000000E+00 0. -1.
         25    2    1    2    0    0  0.95689331253E+02  0.66743114292E+02  0.93665958923E+03  0.95213787848E+03  0.12499704840E+03 0.  0.
         25    2    1    2    0    0 -0.95689331253E+02 -0.66743114292E+02  0.10129764829E+04  0.10273057062E+04  0.12499827110E+03 0.  0.
          5    1    3    3  501    0 -0.70887395976E+01  0.21001449867E+02  0.52116626168E+03  0.52165857938E+03  0.47000000000E+01 0.  1.
         -5    1    3    3    0  501  0.10277807085E+03  0.45741664426E+02  0.41549332756E+03  0.43047929910E+03  0.47000000000E+01 0.  1.
          5    1    4    4  502    0 -0.38817397089E+02  0.22852845226E+02  0.56894613318E+03  0.57074585877E+03  0.47000000000E+01 0. -1.
         -5    1    4    4    0  502 -0.56871934164E+02 -0.89595959518E+02  0.44403034971E+03  0.45655984747E+03  0.47000000000E+01 0. -1.
<mgrwt>
<rscale>  0 0.34222228E+03</rscale>
<asrwt>0</asrwt>
<pdfrwt beam="1">  1       21 0.30223669E+00 0.34222228E+03</pdfrwt>
<pdfrwt beam="2">  1       21 0.22928871E-02 0.34222228E+03</pdfrwt>
<totfact> 0.29327840E+04</totfact>
</mgrwt>
</event>
<event>
 8    1  0.9123825E-006  0.3246046E+03  0.7546771E-02  0.1073549E+00
         21   -1    0    0  504  503  0.00000000000E+00  0.00000000000E+00  0.10354341530E+04  0.10354341530E+04  0.00000000000E+00 0. -1.
         21   -1    0    0  503  504 -0.00000000000E+00 -0.00000000000E+00 -0.25440565319E+02  0.25440565319E+02  0.00000000000E+00 0. -1.
         25    2    1    2    0    0  0.24409184577E+02  0.73079332120E+02  0.27901775299E+03  0.31529645736E+03  0.12499820985E+03 0.  0.
         25    2    1    2    0    0 -0.24409184577E+02 -0.73079332120E+02  0.73097583467E+03  0.74557826094E+03  0.12499950094E+03 0.  0.
          5    1    3    3  501    0  0.11396358143E+02 -0.34474872760E+02  0.93459198954E+02  0.10037482603E+03  0.47000000000E+01 0.  1.
         -5    1    3    3    0  501  0.13012826434E+02  0.10755420488E+03  0.18555855403E+03  0.21492163133E+03  0.47000000000E+01 0.  1.
          5    1    4    4  502    0 -0.31762204823E+02 -0.10610820182E+03  0.60386727522E+03  0.61395892715E+03  0.47000000000E+01 0. -1.
         -5    1    4    4    0  502  0.73530202455E+01  0.33028869699E+02  0.12710855946E+03  0.13161933379E+03  0.47000000000E+01 0. -1.
<mgrwt>
<rscale>  0 0.32460456E+03</rscale>
<asrwt>0</asrwt>
<pdfrwt beam="1">  1       21 0.15929753E+00 0.32460456E+03</pdfrwt>
<pdfrwt beam="2">  1       21 0.39139339E-02 0.32460456E+03</pdfrwt>
<totfact> 0.98130266E+04</totfact>
</mgrwt>
</event>
<event>
 8    1  0.9123825E-006  0.3098298E+03  0.7546771E-02  0.1080427E+00
         21   -1    0    0  504  503  0.00000000000E+00  0.00000000000E+00  0.11233641860E+04  0.11233641860E+04  0.00000000000E+00 0.  1.
         21   -1    0    0  503  504 -0.00000000000E+00 -0.00000000000E+00 -0.21363180180E+02  0.21363180180E+02  0.00000000000E+00 0.  1.
         25    2    1    2    0    0 -0.43256578461E+02 -0.79864744591E+02  0.50999776648E+03  0.53288960370E+03  0.12499639559E+03 0.  0.
         25    2    1    2    0    0  0.43256578461E+02  0.79864744591E+02  0.59200323930E+03  0.61183776244E+03  0.12501241215E+03 0.  0.
          5    1    3    3  501    0  0.34320510908E+01 -0.67969631012E+02  0.10634710672E+03  0.12634653466E+03  0.47000000000E+01 0. -1.
         -5    1    3    3    0  501 -0.46688629552E+02 -0.11895113580E+02  0.40365065976E+03  0.40654306904E+03  0.47000000000E+01 0. -1.
          5    1    4    4  502    0  0.82462341608E+02  0.79980612857E+02  0.44817486008E+03  0.46268750947E+03  0.47000000000E+01 0.  1.
         -5    1    4    4    0  502 -0.39205763147E+02 -0.11586826572E+00  0.14382837923E+03  0.14915025297E+03  0.47000000000E+01 0.  1.
<mgrwt>
<rscale>  0 0.30982983E+03</rscale>
<asrwt>0</asrwt>
<pdfrwt beam="1">  1       21 0.17282521E+00 0.30982983E+03</pdfrwt>
<pdfrwt beam="2">  1       21 0.32866440E-02 0.30982983E+03</pdfrwt>
<totfact> 0.10548857E+05</totfact>
</mgrwt>
</event>
<event>
 8    1  0.9123825E-006  0.3114094E+03  0.7546771E-02  0.1079672E+00
         21   -1    0    0  504  503  0.00000000000E+00  0.00000000000E+00  0.31336941737E+02  0.31336941737E+02  0.00000000000E+00 0. -1.
         21   -1    0    0  503  504 -0.00000000000E+00 -0.00000000000E+00 -0.77365403054E+03  0.77365403054E+03  0.00000000000E+00 0. -1.
         25    2    1    2    0    0  0.43364197128E+02  0.71331874591E+02 -0.47615508598E+03  0.49931646683E+03  0.12499831284E+03 0.  0.
         25    2    1    2    0    0 -0.43364197128E+02 -0.71331874591E+02 -0.26616200282E+03  0.30567450545E+03  0.12500400638E+03 0.  0.
          5    1    3    3  501    0  0.22782440392E+02  0.59201317389E+02 -0.46988894730E+03  0.47417459692E+03  0.47000000000E+01 0.  1.
         -5    1    3    3    0  501  0.20581756737E+02  0.12130557202E+02 -0.62661386829E+01  0.25141869906E+02  0.47000000000E+01 0.  1.
          5    1    4    4  502    0  0.44047669055E+02 -0.29892850937E+02 -0.97266473474E+02  0.11098034307E+03  0.47000000000E+01 0.  1.
         -5    1    4    4    0  502 -0.87411866183E+02 -0.41439023653E+02 -0.16889552935E+03  0.19469416238E+03  0.47000000000E+01 0.  1.
<mgrwt>
<rscale>  0 0.31140939E+03</rscale>
<asrwt>0</asrwt>
<pdfrwt beam="1">  1       21 0.48210677E-02 0.31140939E+03</pdfrwt>
<pdfrwt beam="2">  1       21 0.11902370E+00 0.31140939E+03</pdfrwt>
<totfact> 0.14818000E+05</totfact>
</mgrwt>
</event>
<event>
 8    1  0.9123825E-006  0.3262909E+03  0.7546771E-02  0.1072790E+00
         21   -1    0    0  504  503  0.00000000000E+00  0.00000000000E+00  0.22646106396E+03  0.22646106396E+03  0.00000000000E+00 0. -1.
         21   -1    0    0  503  504 -0.00000000000E+00 -0.00000000000E+00 -0.11753205231E+03  0.11753205231E+03  0.00000000000E+00 0. -1.
         25    2    1    2    0    0 -0.60312019448E+02 -0.21077422181E+02  0.14209354770E+03  0.19974717589E+03  0.12500624210E+03 0.  0.
         25    2    1    2    0    0  0.60312019448E+02  0.21077422181E+02 -0.33164536041E+02  0.14424594038E+03  0.12500082979E+03 0.  0.
          5    1    3    3  501    0 -0.46664096031E+02  0.48841030075E+02  0.82654920832E+02  0.10684994158E+03  0.47000000000E+01 0. -1.
         -5    1    3    3    0  501 -0.13647923416E+02 -0.69918452256E+02  0.59438626867E+02  0.92897234315E+02  0.47000000000E+01 0. -1.
          5    1    4    4  502    0  0.89286687641E+02  0.43814342442E+02 -0.90633927202E+01  0.99980219449E+02  0.47000000000E+01 0. -1.
         -5    1    4    4    0  502 -0.28974668194E+02 -0.22736920261E+02 -0.24101143321E+02  0.44265720928E+02  0.47000000000E+01 0. -1.
<mgrwt>
<rscale>  0 0.32629087E+03</rscale>
<asrwt>0</asrwt>
<pdfrwt beam="1">  1       21 0.34840164E-01 0.32629087E+03</pdfrwt>
<pdfrwt beam="2">  1       21 0.18081854E-01 0.32629087E+03</pdfrwt>
<totfact> 0.21377849E+05</totfact>
</mgrwt>
</event>
<event>
 8    1  0.9123825E-006  0.2729476E+03  0.7546771E-02  0.1099604E+00
         21   -1    0    0  504  503  0.00000000000E+00  0.00000000000E+00  0.39872513342E+03  0.39872513342E+03  0.00000000000E+00 0. -1.
         21   -1    0    0  503  504 -0.00000000000E+00 -0.00000000000E+00 -0.46711633281E+02  0.46711633281E+02  0.00000000000E+00 0. -1.
         25    2    1    2    0    0 -0.54455416228E+02  0.36243995418E+00  0.16644217742E+03  0.21516093627E+03  0.12500282539E+03 0.  0.
         25    2    1    2    0    0  0.54455416228E+02 -0.36243995418E+00  0.18557132273E+03  0.23027583043E+03  0.12499887417E+03 0.  0.
          5    1    3    3  501    0 -0.38052878352E+02 -0.38550532697E+02  0.12944539978E+02  0.55891110540E+02  0.47000000000E+01 0. -1.
         -5    1    3    3    0  501 -0.16402537875E+02  0.38912972652E+02  0.15349763744E+03  0.15926982573E+03  0.47000000000E+01 0. -1.
          5    1    4    4  502    0  0.74775365073E+02 -0.42494356492E+02  0.14253899423E+03  0.16654302877E+03  0.47000000000E+01 0. -1.
         -5    1    4    4    0  502 -0.20319948845E+02  0.42131916538E+02  0.43032328500E+02  0.63732801667E+02  0.47000000000E+01 0. -1.
<mgrwt>
<rscale>  0 0.27294763E+03</rscale>
<asrwt>0</asrwt>
<pdfrwt beam="1">  1       21 0.61342326E-01 0.27294763E+03</pdfrwt>
<pdfrwt beam="2">  1       21 0.71864054E-02 0.27294763E+03</pdfrwt>
<totfact> 0.35043640E+05</totfact>
</mgrwt>
</event>
<event>
 8    1  0.9123825E-006  0.2941294E+03  0.7546771E-02  0.1088213E+00
         21   -1    0    0  504  503  0.00000000000E+00  0.00000000000E+00  0.20973744761E+02  0.20973744761E+02  0.00000000000E+00 0. -1.
         21   -1    0    0  503  504 -0.00000000000E+00 -0.00000000000E+00 -0.10311950848E+04  0.10311950848E+04  0.00000000000E+00 0. -1.
         25    2    1    2    0    0 -0.40114888511E+02  0.62124464772E+02 -0.42242298313E+03  0.44669282442E+03  0.12499859725E+03 0.  0.
         25    2    1    2    0    0  0.40114888511E+02 -0.62124464772E+02 -0.58779835690E+03  0.60547600512E+03  0.12500252400E+03 0.  0.
          5    1    3    3  501    0  0.27020605072E+02  0.32149636851E+02 -0.43397088455E+02  0.60573175041E+02  0.47000000000E+01 0. -1.
         -5    1    3    3    0  501 -0.67135493583E+02  0.29974827921E+02 -0.37902589467E+03  0.38611964938E+03  0.47000000000E+01 0. -1.
          5    1    4    4  502    0  0.64275807845E+02 -0.25240545798E+02 -0.51920410591E+03  0.52379715369E+03  0.47000000000E+01 0.  1.
         -5    1    4    4    0  502 -0.24160919334E+02 -0.36883918975E+02 -0.68594250987E+02  0.81678851427E+02  0.47000000000E+01 0.  1.
<mgrwt>
<rscale>  0 0.29412938E+03</rscale>
<asrwt>0</asrwt>
<pdfrwt beam="1">  1       21 0.32267299E-02 0.29412938E+03</pdfrwt>
<pdfrwt beam="2">  1       21 0.15864540E+00 0.29412938E+03</pdfrwt>
<totfact> 0.13872892E+05</totfact>
</mgrwt>
</event>
<event>
 8    1  0.9123825E-006  0.2683551E+03  0.7546771E-02  0.1102225E+00
         21   -1    0    0  504  503  0.00000000000E+00  0.00000000000E+00  0.16332117105E+03  0.16332117105E+03  0.00000000000E+00 0.  1.
         21   -1    0    0  503  504 -0.00000000000E+00 -0.00000000000E+00 -0.11023444240E+03  0.11023444240E+03  0.00000000000E+00 0.  1.
         25    2    1    2    0    0 -0.47242362297E+02 -0.12029605036E+02  0.25876642319E+02  0.13664147864E+03  0.12499896349E+03 0.  0.
         25    2    1    2    0    0  0.47242362297E+02  0.12029605036E+02  0.27210086323E+02  0.13691413481E+03  0.12501415648E+03 0.  0.
          5    1    3    3  501    0 -0.35793040290E+02 -0.15421877208E+01  0.75895395849E+02  0.84057844293E+02  0.47000000000E+01 0. -1.
         -5    1    3    3    0  501 -0.11449322008E+02 -0.10487417315E+02 -0.50018753530E+02  0.52583634346E+02  0.47000000000E+01 0. -1.
          5    1    4    4  502    0 -0.38666997749E+02 -0.10740750686E+02 -0.80224952285E+01  0.41194063528E+02  0.47000000000E+01 0.  1.
         -5    1    4    4    0  502  0.85909360047E+02  0.22770355722E+02  0.35232581551E+02  0.95720071282E+02  0.47000000000E+01 0.  1.
<mgrwt>
<rscale>  0 0.26835512E+03</rscale>
<asrwt>0</asrwt>
<pdfrwt beam="1">  1       21 0.25126334E-01 0.26835512E+03</pdfrwt>
<pdfrwt beam="2">  1       21 0.16959145E-01 0.26835512E+03</pdfrwt>
<totfact> 0.46310046E+05</totfact>
</mgrwt>
</event>
<event>
 8    1  0.9123825E-006  0.2747540E+03  0.7546771E-02  0.1098589E+00
         21   -1    0    0  504  503  0.00000000000E+00  0.00000000000E+00  0.21910379750E+02  0.21910379750E+02  0.00000000000E+00 0. -1.
         21   -1    0    0  503  504 -0.00000000000E+00 -0.00000000000E+00 -0.86134713085E+03  0.86134713085E+03  0.00000000000E+00 0. -1.
         25    2    1    2    0    0  0.32668454179E+02  0.79499543278E+01 -0.56761783558E+03  0.58218990779E+03  0.12499860718E+03 0.  0.
         25    2    1    2    0    0 -0.32668454179E+02 -0.79499543278E+01 -0.27181891553E+03  0.30106760281E+03  0.12500299577E+03 0.  0.
          5    1    3    3  501    0  0.62110385784E+02  0.46436876167E+02 -0.28454359967E+03  0.29495971522E+03  0.47000000000E+01 0. -1.
         -5    1    3    3    0  501 -0.29441931605E+02 -0.38486921839E+02 -0.28307423591E+03  0.28723019258E+03  0.47000000000E+01 0. -1.
          5    1    4    4  502    0 -0.64748678316E+02  0.31422610963E+02 -0.11117102845E+03  0.13251739278E+03  0.47000000000E+01 0. -1.
         -5    1    4    4    0  502  0.32080224137E+02 -0.39372565291E+02 -0.16064788708E+03  0.16855021003E+03  0.47000000000E+01 0. -1.
<mgrwt>
<rscale>  0 0.27475402E+03</rscale>
<asrwt>0</asrwt>
<pdfrwt beam="1">  1       21 0.33708276E-02 0.27475402E+03</pdfrwt>
<pdfrwt beam="2">  1       21 0.13251495E+00 0.27475402E+03</pdfrwt>
<totfact> 0.20884063E+05</totfact>
</mgrwt>
</event>
<event>
 8    1  0.9123825E-006  0.3810094E+03  0.7546771E-02  0.1050561E+00
         21   -1    0    0  504  503  0.00000000000E+00  0.00000000000E+00  0.66864653613E+02  0.66864653613E+02  0.00000000000E+00 0.  1.
         21   -1    0    0  503  504 -0.00000000000E+00 -0.00000000000E+00 -0.54276858816E+03  0.54276858816E+03  0.00000000000E+00 0.  1.
         25    2    1    2    0    0 -0.49789487204E+02  0.12424868148E+03 -0.32187541781E+03  0.37033018772E+03  0.12499574177E+03 0.  0.
         25    2    1    2    0    0  0.49789487204E+02 -0.12424868148E+03 -0.15402851674E+03  0.23930305406E+03  0.12499775928E+03 0.  0.
          5    1    3    3  501    0 -0.62933266728E+02  0.67820311336E+01 -0.13474207335E+03  0.14894330578E+03  0.47000000000E+01 0. -1.
         -5    1    3    3    0  501  0.13143779524E+02  0.11746665035E+03 -0.18713334446E+03  0.22138688193E+03  0.47000000000E+01 0. -1.
          5    1    4    4  502    0  0.81369244284E+02 -0.11541243364E+03 -0.90886439226E+02  0.16799826960E+03  0.47000000000E+01 0.  1.
         -5    1    4    4    0  502 -0.31579757080E+02 -0.88362478410E+01 -0.63142077514E+02  0.71304784453E+02  0.47000000000E+01 0.  1.
<mgrwt>
<rscale>  0 0.38100936E+03</rscale>
<asrwt>0</asrwt>
<pdfrwt beam="1">  1       21 0.10286870E-01 0.38100936E+03</pdfrwt>
<pdfrwt beam="2">  1       21 0.83502856E-01 0.38100936E+03</pdfrwt>
<totfact> 0.90762362E+04</totfact>
</mgrwt>
</event>
<event>
 8    1  0.9123825E-006  0.2988061E+03  0.7546771E-02  0.1085839E+00
         21   -1    0    0  504  503  0.00000000000E+00  0.00000000000E+00  0.28469571973E+02  0.28469571973E+02  0.00000000000E+00 0. -1.
         21   -1    0    0  503  504 -0.00000000000E+00 -0.00000000000E+00 -0.78403973152E+03  0.78403973152E+03  0.00000000000E+00 0. -1.
         25    2    1    2    0    0  0.19759352434E+02  0.51108644447E+02 -0.54299264754E+03  0.55988888794E+03  0.12502810086E+03 0.  0.
         25    2    1    2    0    0 -0.19759352434E+02 -0.51108644447E+02 -0.21257751201E+03  0.25262041556E+03  0.12500140079E+03 0.  0.
          5    1    3    3  501    0  0.95364663247E+01 -0.10293594166E+02 -0.15722672210E+01  0.14881676486E+02  0.47000000000E+01 0.  1.
         -5    1    3    3    0  501  0.10222886110E+02  0.61402238613E+02 -0.54142038032E+03  0.54500721145E+03  0.47000000000E+01 0.  1.
          5    1    4    4  502    0  0.22875027862E+02 -0.77739683205E+02 -0.16177520051E+03  0.18099732248E+03  0.47000000000E+01 0.  1.
         -5    1    4    4    0  502 -0.42634380297E+02  0.26631038758E+02 -0.50802311494E+02  0.71623093076E+02  0.47000000000E+01 0.  1.
<mgrwt>
<rscale>  0 0.29880613E+03</rscale>
<asrwt>0</asrwt>
<pdfrwt beam="1">  1       21 0.43799347E-02 0.29880613E+03</pdfrwt>
<pdfrwt beam="2">  1       21 0.12062148E+00 0.29880613E+03</pdfrwt>
<totfact> 0.16933895E+05</totfact>
</mgrwt>
</event>
<event>
 8    1  0.9123825E-006  0.3150243E+03  0.7546771E-02  0.1077962E+00
         21   -1    0    0  504  503  0.00000000000E+00  0.00000000000E+00  0.90551671619E+02  0.90551671619E+02  0.00000000000E+00 0.  1.
         21   -1    0    0  503  504 -0.00000000000E+00 -0.00000000000E+00 -0.27398805418E+03  0.27398805418E+03  0.00000000000E+00 0.  1.
         25    2    1    2    0    0  0.93297227231E+02  0.71029182618E+01 -0.11571660786E+03  0.19434523405E+03  0.12499965043E+03 0.  0.
         25    2    1    2    0    0 -0.93297227231E+02 -0.71029182618E+01 -0.67719774706E+02  0.17019449175E+03  0.12500149230E+03 0.  0.
          5    1    3    3  501    0 -0.24855533349E+02 -0.13990589727E+02 -0.20571582605E+01  0.28980269824E+02  0.47000000000E+01 0. -1.
         -5    1    3    3    0  501  0.11815276058E+03  0.21093507989E+02 -0.11365944959E+03  0.16536496423E+03  0.47000000000E+01 0. -1.
          5    1    4    4  502    0  0.26524064182E+02 -0.22504892891E+02 -0.18302710404E+02  0.39586303097E+02  0.47000000000E+01 0. -1.
         -5    1    4    4    0  502 -0.11982129141E+03  0.15401974629E+02 -0.49417064302E+02  0.13060818865E+03  0.47000000000E+01 0. -1.
<mgrwt>
<rscale>  0 0.31502429E+03</rscale>
<asrwt>0</asrwt>
<pdfrwt beam="1">  1       21 0.13931026E-01 0.31502429E+03</pdfrwt>
<pdfrwt beam="2">  1       21 0.42152009E-01 0.31502429E+03</pdfrwt>
<totfact> 0.23570076E+05</totfact>
</mgrwt>
</event>
<event>
 8    1  0.9123825E-006  0.2883301E+03  0.7546771E-02  0.1091224E+00
         21   -1    0    0  504  503  0.00000000000E+00  0.00000000000E+00  0.26164791807E+03  0.26164791807E+03  0.00000000000E+00 0. -1.
         21   -1    0    0  503  504 -0.00000000000E+00 -0.00000000000E+00 -0.79433297521E+02  0.79433297521E+02  0.00000000000E+00 0. -1.
         25    2    1    2    0    0  0.64902261768E+02 -0.12702995462E+02  0.57972919339E+02  0.15284748701E+03  0.12501130041E+03 0.  0.
         25    2    1    2    0    0 -0.64902261768E+02  0.12702995462E+02  0.12424170121E+03  0.18823372859E+03  0.12498906585E+03 0.  0.
          5    1    3    3  501    0  0.96118074390E+02  0.15228961152E+02  0.28842807805E+02  0.10161005385E+03  0.47000000000E+01 0. -1.
         -5    1    3    3    0  501 -0.31215812622E+02 -0.27931956614E+02  0.29130111534E+02  0.51237433151E+02  0.47000000000E+01 0. -1.
          5    1    4    4  502    0  0.28573524884E+02 -0.14992318937E+02  0.32350537675E+01  0.32768453188E+02  0.47000000000E+01 0.  1.
         -5    1    4    4    0  502 -0.93475786652E+02  0.27695314399E+02  0.12100664745E+03  0.15546527540E+03  0.47000000000E+01 0.  1.
<mgrwt>
<rscale>  0 0.28833007E+03</rscale>
<asrwt>0</asrwt>
<pdfrwt beam="1">  1       21 0.40253525E-01 0.28833007E+03</pdfrwt>
<pdfrwt beam="2">  1       21 0.12220507E-01 0.28833007E+03</pdfrwt>
<totfact> 0.33052703E+05</totfact>
</mgrwt>
</event>
<event>
 8    1  0.9123825E-006  0.3233193E+03  0.7546771E-02  0.1074132E+00
         21   -1    0    0  504  503  0.00000000000E+00  0.00000000000E+00  0.83519426407E+03  0.83519426407E+03  0.00000000000E+00 0. -1.
         21   -1    0    0  503  504 -0.00000000000E+00 -0.00000000000E+00 -0.31290732953E+02  0.31290732953E+02  0.00000000000E+00 0. -1.
         25    2    1    2    0    0 -0.58198834910E+02  0.83799056735E+02  0.37537487642E+03  0.40858393090E+03  0.12500057778E+03 0.  0.
         25    2    1    2    0    0  0.58198834910E+02 -0.83799056735E+02  0.42852865470E+03  0.45790106613E+03  0.12500876837E+03 0.  0.
          5    1    3    3  501    0 -0.15338136351E+02  0.91294682444E+02  0.33970582043E+03  0.35212513671E+03  0.47000000000E+01 0. -1.
         -5    1    3    3    0  501 -0.42860698559E+02 -0.74956257091E+01  0.35669055987E+02  0.56458794184E+02  0.47000000000E+01 0. -1.
          5    1    4    4  502    0 -0.27111297919E+02  0.79161208611E+01  0.36919848975E+02  0.46721009114E+02  0.47000000000E+01 0. -1.
         -5    1    4    4    0  502  0.85310132829E+02 -0.91715177597E+02  0.39160880573E+03  0.41118005701E+03  0.47000000000E+01 0. -1.
<mgrwt>
<rscale>  0 0.32331929E+03</rscale>
<asrwt>0</asrwt>
<pdfrwt beam="1">  1       21 0.12849141E+00 0.32331929E+03</pdfrwt>
<pdfrwt beam="2">  1       21 0.48139596E-02 0.32331929E+03</pdfrwt>
<totfact> 0.12192457E+05</totfact>
</mgrwt>
</event>
<event>
 8    1  0.9123825E-006  0.2680864E+03  0.7546771E-02  0.1102380E+00
         21   -1    0    0  504  503  0.00000000000E+00  0.00000000000E+00  0.60299708928E+02  0.60299708928E+02  0.00000000000E+00 0.  1.
         21   -1    0    0  503  504 -0.00000000000E+00 -0.00000000000E+00 -0.29797121152E+03  0.29797121152E+03  0.00000000000E+00 0.  1.
         25    2    1    2    0    0 -0.19985360534E+02 -0.38737062684E+02 -0.90715605910E+02  0.16048188339E+03  0.12500055631E+03 0.  0.
         25    2    1    2    0    0  0.19985360534E+02  0.38737062684E+02 -0.14695589668E+03  0.19778903706E+03  0.12499797179E+03 0.  0.
          5    1    3    3  501    0 -0.11889109832E+02 -0.72005612814E+02 -0.11467243420E+02  0.74025312434E+02  0.47000000000E+01 0.  1.
         -5    1    3    3    0  501 -0.80962507013E+01  0.33268550130E+02 -0.79248362490E+02  0.86456570951E+02  0.47000000000E+01 0.  1.
          5    1    4    4  502    0  0.51367107934E+01 -0.38718630186E+02 -0.96073354967E+02  0.10381569080E+03  0.47000000000E+01 0.  1.
         -5    1    4    4    0  502  0.14848649740E+02  0.77455692869E+02 -0.50882541717E+02  0.93973346266E+02  0.47000000000E+01 0.  1.
<mgrwt>
<rscale>  0 0.26808638E+03</rscale>
<asrwt>0</asrwt>
<pdfrwt beam="1">  1       21 0.92768781E-02 0.26808638E+03</pdfrwt>
<pdfrwt beam="2">  1       21 0.45841726E-01 0.26808638E+03</pdfrwt>
<totfact> 0.41570089E+05</totfact>
</mgrwt>
</event>
<event>
 8    1  0.9123825E-006  0.3383597E+03  0.7546771E-02  0.1067497E+00
         21   -1    0    0  504  503  0.00000000000E+00  0.00000000000E+00  0.99610029182E+03  0.99610029182E+03  0.00000000000E+00 0.  1.
         21   -1    0    0  503  504 -0.00000000000E+00 -0.00000000000E+00 -0.28733869805E+02  0.28733869805E+02  0.00000000000E+00 0.  1.
         25    2    1    2    0    0 -0.41728291158E+01  0.97576548900E+02  0.66181784282E+03  0.68056233862E+03  0.12499457696E+03 0.  0.
         25    2    1    2    0    0  0.41728291158E+01 -0.97576548900E+02  0.30554857919E+03  0.34427182300E+03  0.12499823388E+03 0.  0.
          5    1    3    3  501    0  0.22355895615E+02 -0.13159927833E+01  0.19341985545E+02  0.29961981086E+02  0.47000000000E+01 0.  1.
         -5    1    3    3    0  501 -0.26528724731E+02  0.98892541683E+02  0.64247585728E+03  0.65060035753E+03  0.47000000000E+01 0.  1.
          5    1    4    4  502    0  0.47600061865E+02 -0.81111948930E+02  0.11781898765E+03  0.15082545541E+03  0.47000000000E+01 0. -1.
         -5    1    4    4    0  502 -0.43427232749E+02 -0.16464599970E+02  0.18772959153E+03  0.19344636759E+03  0.47000000000E+01 0. -1.
<mgrwt>
<rscale>  0 0.33835967E+03</rscale>
<asrwt>0</asrwt>
<pdfrwt beam="1">  1       21 0.15324617E+00 0.33835967E+03</pdfrwt>
<pdfrwt beam="2">  1       21 0.44205961E-02 0.33835967E+03</pdfrwt>
<totfact> 0.88308682E+04</totfact>
</mgrwt>
</event>
<event>
 8    1  0.9123825E-006  0.3658251E+03  0.7546771E-02  0.1056301E+00
         21   -1    0    0  504  503  0.00000000000E+00  0.00000000000E+00  0.68607534821E+02  0.68607534821E+02  0.00000000000E+00 0.  1.
         21   -1    0    0  503  504 -0.00000000000E+00 -0.00000000000E+00 -0.48765787752E+03  0.48765787752E+03  0.00000000000E+00 0.  1.
         25    2    1    2    0    0 -0.28358856807E+02  0.13040108808E+03 -0.20317109917E+03  0.27333674558E+03  0.12500324962E+03 0.  0.
         25    2    1    2    0    0  0.28358856807E+02 -0.13040108808E+03 -0.21587924353E+03  0.28292866676E+03  0.12504444872E+03 0.  0.
          5    1    3    3  501    0 -0.19688484839E+02  0.13405764624E+03 -0.21705521350E+03  0.25591823823E+03  0.47000000000E+01 0.  1.
         -5    1    3    3    0  501 -0.86703719685E+01 -0.36565581545E+01  0.13884114333E+02  0.17418507353E+02  0.47000000000E+01 0.  1.
          5    1    4    4  502    0 -0.39475716072E+02 -0.10049921915E+03 -0.11734033517E+03  0.15952827168E+03  0.47000000000E+01 0. -1.
         -5    1    4    4    0  502  0.67834572880E+02 -0.29901868932E+02 -0.98538908366E+02  0.12340039508E+03  0.47000000000E+01 0. -1.
<mgrwt>
<rscale>  0 0.36582512E+03</rscale>
<asrwt>0</asrwt>
<pdfrwt beam="1">  1       21 0.10555006E-01 0.36582512E+03</pdfrwt>
<pdfrwt beam="2">  1       21 0.75024287E-01 0.36582512E+03</pdfrwt>
<totfact> 0.11118639E+05</totfact>
</mgrwt>
</event>
<event>
 8    1  0.9123825E-006  0.2877500E+03  0.7546771E-02  0.1091530E+00
         21   -1    0    0  504  503  0.00000000000E+00  0.00000000000E+00  0.24422841063E+04  0.24422841063E+04  0.00000000000E+00 0. -1.
         21   -1    0    0  503  504 -0.00000000000E+00 -0.00000000000E+00 -0.84756809579E+01  0.84756809579E+01  0.00000000000E+00 0. -1.
         25    2    1    2    0    0  0.48613116321E+02  0.27336372889E+02  0.15942742725E+04  0.16001397221E+04  0.12500464871E+03 0.  0.
         25    2    1    2    0    0 -0.48613116321E+02 -0.27336372889E+02  0.83953415288E+03  0.85062006511E+03  0.12500555570E+03 0.  0.
          5    1    3    3  501    0  0.39636306686E+02  0.27160548804E+02  0.15868320582E+04  0.15875663145E+04  0.47000000000E+01 0. -1.
         -5    1    3    3    0  501  0.89768096353E+01  0.17582408567E+00  0.74422142905E+01  0.12573407608E+02  0.47000000000E+01 0. -1.
          5    1    4    4  502    0 -0.65096917075E+02 -0.59405429804E+02  0.72747865186E+03  0.73281231745E+03  0.47000000000E+01 0.  1.
         -5    1    4    4    0  502  0.16483800754E+02  0.32069056914E+02  0.11205550103E+03  0.11780774766E+03  0.47000000000E+01 0.  1.
<mgrwt>
<rscale>  0 0.28775004E+03</rscale>
<asrwt>0</asrwt>
<pdfrwt beam="1">  1       21 0.37573546E+00 0.28775004E+03</pdfrwt>
<pdfrwt beam="2">  1       21 0.13039529E-02 0.28775004E+03</pdfrwt>
<totfact> 0.27616631E+04</totfact>
</mgrwt>
</event>
<event>
 8    1  0.9123825E-006  0.4221753E+03  0.7546771E-02  0.1036361E+00
         21   -1    0    0  504  503  0.00000000000E+00  0.00000000000E+00  0.48809355179E+03  0.48809355179E+03  0.00000000000E+00 0. -1.
         21   -1    0    0  503  504 -0.00000000000E+00 -0.00000000000E+00 -0.91289876326E+02  0.91289876326E+02  0.00000000000E+00 0. -1.
         25    2    1    2    0    0 -0.15230905976E+01 -0.69518576170E+01 -0.34833894280E+02  0.12995470043E+03  0.12499670334E+03 0.  0.
         25    2    1    2    0    0  0.15230905976E+01  0.69518576170E+01  0.43163756974E+03  0.44942872768E+03  0.12499816608E+03 0.  0.
          5    1    3    3  501    0  0.13741547073E+01 -0.15933370821E+02  0.45745880841E+02  0.48688152777E+02  0.47000000000E+01 0. -1.
         -5    1    3    3    0  501 -0.28972453050E+01  0.89815132045E+01 -0.80579775120E+02  0.81266547658E+02  0.47000000000E+01 0. -1.
          5    1    4    4  502    0  0.52430296802E+02  0.38417608427E+02  0.22377458867E+03  0.23307081584E+03  0.47000000000E+01 0. -1.
         -5    1    4    4    0  502 -0.50907206205E+02 -0.31465750810E+02  0.20786298107E+03  0.21635791184E+03  0.47000000000E+01 0. -1.
<mgrwt>
<rscale>  0 0.42217532E+03</rscale>
<asrwt>0</asrwt>
<pdfrwt beam="1">  1       21 0.75091314E-01 0.42217532E+03</pdfrwt>
<pdfrwt beam="2">  1       21 0.14044597E-01 0.42217532E+03</pdfrwt>
<totfact> 0.65148596E+04</totfact>
</mgrwt>
</event>
<event>
 8    1  0.9123825E-006  0.2960893E+03  0.7546771E-02  0.1087212E+00
         21   -1    0    0  504  503  0.00000000000E+00  0.00000000000E+00  0.22855775214E+03  0.22855775214E+03  0.00000000000E+00 0. -1.
         21   -1    0    0  503  504 -0.00000000000E+00 -0.00000000000E+00 -0.95893542964E+02  0.95893542964E+02  0.00000000000E+00 0. -1.
         25    2    1    2    0    0 -0.77198092514E+02  0.56486934511E+01  0.47339293651E+02  0.15446213651E+03  0.12500435859E+03 0.  0.
         25    2    1    2    0    0  0.77198092514E+02 -0.56486934511E+01  0.85324915525E+02  0.16998915860E+03  0.12499807841E+03 0.  0.
          5    1    3    3  501    0 -0.42215499746E+01  0.39664542651E+02 -0.23998099401E+02  0.46787778348E+02  0.47000000000E+01 0. -1.
         -5    1    3    3    0  501 -0.72976542540E+02 -0.34015849200E+02  0.71337393052E+02  0.10767435816E+03  0.47000000000E+01 0. -1.
          5    1    4    4  502    0  0.24110427657E+02  0.30705227412E+02  0.96782915627E+02  0.10446600629E+03  0.47000000000E+01 0. -1.
         -5    1    4    4    0  502  0.53087664858E+02 -0.36353920863E+02 -0.11458000102E+02  0.65523152309E+02  0.47000000000E+01 0. -1.
<mgrwt>
<rscale>  0 0.29608926E+03</rscale>
<asrwt>0</asrwt>
<pdfrwt beam="1">  1       21 0.35162731E-01 0.29608926E+03</pdfrwt>
<pdfrwt beam="2">  1       21 0.14752853E-01 0.29608926E+03</pdfrwt>
<totfact> 0.30785144E+05</totfact>
</mgrwt>
</event>
<event>
 8    1  0.9123825E-006  0.4138555E+03  0.7546771E-02  0.1039085E+00
         21   -1    0    0  504  503  0.00000000000E+00  0.00000000000E+00  0.18076827789E+03  0.18076827789E+03  0.00000000000E+00 0. -1.
         21   -1    0    0  503  504 -0.00000000000E+00 -0.00000000000E+00 -0.23687281536E+03  0.23687281536E+03  0.00000000000E+00 0. -1.
         25    2    1    2    0    0 -0.22953607089E+02  0.93253263393E+02  0.10723445729E+03  0.19065005356E+03  0.12500069951E+03 0.  0.
         25    2    1    2    0    0  0.22953607089E+02 -0.93253263393E+02 -0.16333899476E+03  0.22699103969E+03  0.12498906225E+03 0.  0.
          5    1    3    3  501    0 -0.62346069059E+01 -0.82377976721E+01  0.84429021356E+02  0.85188504394E+02  0.47000000000E+01 0. -1.
         -5    1    3    3    0  501 -0.16719000183E+02  0.10149106107E+03  0.22805435934E+02  0.10546154916E+03  0.47000000000E+01 0. -1.
          5    1    4    4  502    0  0.65250777329E+02 -0.60501532728E+02 -0.51480404799E+02  0.10290977350E+03  0.47000000000E+01 0. -1.
         -5    1    4    4    0  502 -0.42297170240E+02 -0.32751730665E+02 -0.11185858996E+03  0.12408126619E+03  0.47000000000E+01 0. -1.
<mgrwt>
<rscale>  0 0.41385549E+03</rscale>
<asrwt>0</asrwt>
<pdfrwt beam="1">  1       21 0.27810505E-01 0.41385549E+03</pdfrwt>
<pdfrwt beam="2">  1       21 0.36441971E-01 0.41385549E+03</pdfrwt>
<totfact> 0.83990855E+04</totfact>
</mgrwt>
</event>
<event>
 8    1  0.9123825E-006  0.5396058E+03  0.7546771E-02  0.1003929E+00
         21   -1    0    0  504  503  0.00000000000E+00  0.00000000000E+00  0.37298466280E+03  0.37298466280E+03  0.00000000000E+00 0. -1.
         21   -1    0    0  503  504 -0.00000000000E+00 -0.00000000000E+00 -0.19516513905E+03  0.19516513905E+03  0.00000000000E+00 0. -1.
         25    2    1    2    0    0  0.16461268307E+03  0.11014844335E+03  0.22993179968E+03  0.32821150461E+03  0.12499657698E+03 0.  0.
         25    2    1    2    0    0 -0.16461268307E+03 -0.11014844335E+03 -0.52112275925E+02  0.23993829724E+03  0.12499872870E+03 0.  0.
          5    1    3    3  501    0  0.81363559104E+02  0.11668494154E+03  0.18453968234E+03  0.23305018491E+03  0.47000000000E+01 0. -1.
         -5    1    3    3    0  501  0.83249123970E+02 -0.65364981858E+01  0.45392117344E+02  0.95161319701E+02  0.47000000000E+01 0. -1.
          5    1    4    4  502    0 -0.68771171844E+01 -0.17932912883E+02  0.32881510093E+02  0.38368839066E+02  0.47000000000E+01 0.  1.
         -5    1    4    4    0  502 -0.15773556589E+03 -0.92215530467E+02 -0.84993786018E+02  0.20156945817E+03  0.47000000000E+01 0.  1.
<mgrwt>
<rscale>  0 0.53960580E+03</rscale>
<asrwt>0</asrwt>
<pdfrwt beam="1">  1       21 0.57382256E-01 0.53960580E+03</pdfrwt>
<pdfrwt beam="2">  1       21 0.30025406E-01 0.53960580E+03</pdfrwt>
<totfact> 0.27059866E+04</totfact>
</mgrwt>
</event>
<event>
 8    1  0.9123825E-006  0.3211047E+03  0.7546771E-02  0.1075142E+00
         21   -1    0    0  504  503  0.00000000000E+00  0.00000000000E+00  0.15877332244E+03  0.15877332244E+03  0.00000000000E+00 0.  1.
         21   -1    0    0  503  504 -0.00000000000E+00 -0.00000000000E+00 -0.16235135104E+03  0.16235135104E+03  0.00000000000E+00 0.  1.
         25    2    1    2    0    0 -0.28702668294E+01 -0.74229737640E+01  0.98657884252E+02  0.15944455906E+03  0.12500340122E+03 0.  0.
         25    2    1    2    0    0  0.28702668294E+01  0.74229737640E+01 -0.10223591285E+03  0.16168011443E+03  0.12499975422E+03 0.  0.
          5    1    3    3  501    0 -0.42867513868E+02 -0.46501165369E+02  0.75851942459E+02  0.98871579843E+02  0.47000000000E+01 0.  1.
         -5    1    3    3    0  501  0.39997247038E+02  0.39078191605E+02  0.22805941793E+02  0.60572979214E+02  0.47000000000E+01 0.  1.
          5    1    4    4  502    0  0.34351858428E+02 -0.43882838550E+02 -0.19443969786E+02  0.59210739378E+02  0.47000000000E+01 0.  1.
         -5    1    4    4    0  502 -0.31481591599E+02  0.51305812314E+02 -0.82791943061E+02  0.10246937505E+03  0.47000000000E+01 0.  1.
<mgrwt>
<rscale>  0 0.32110474E+03</rscale>
<asrwt>0</asrwt>
<pdfrwt beam="1">  1       21 0.24426665E-01 0.32110474E+03</pdfrwt>
<pdfrwt beam="2">  1       21 0.24977131E-01 0.32110474E+03</pdfrwt>
<totfact> 0.23277648E+05</totfact>
</mgrwt>
</event>
<event>
 8    1  0.9123825E-006  0.3373271E+03  0.7546771E-02  0.1067940E+00
         21   -1    0    0  504  503  0.00000000000E+00  0.00000000000E+00  0.43828397064E+03  0.43828397064E+03  0.00000000000E+00 0.  1.
         21   -1    0    0  503  504 -0.00000000000E+00 -0.00000000000E+00 -0.64906314922E+02  0.64906314922E+02  0.00000000000E+00 0.  1.
         25    2    1    2    0    0 -0.47177482591E+02  0.23390949808E+02  0.37162655045E+02  0.14063799470E+03  0.12500052491E+03 0.  0.
         25    2    1    2    0    0  0.47177482591E+02 -0.23390949808E+02  0.33621500067E+03  0.36255229085E+03  0.12502313999E+03 0.  0.
          5    1    3    3  501    0 -0.39255487518E+02  0.59699481458E+02  0.62803661493E+02  0.95243956677E+02  0.47000000000E+01 0.  1.
         -5    1    3    3    0  501 -0.79219950734E+01 -0.36308531650E+02 -0.25641006449E+02  0.45394038025E+02  0.47000000000E+01 0.  1.
          5    1    4    4  502    0  0.97811797502E+01 -0.56554394477E+01  0.31602593420E+03  0.31626276505E+03  0.47000000000E+01 0. -1.
         -5    1    4    4    0  502  0.37396302841E+02 -0.17735510360E+02  0.20189066469E+02  0.46289525800E+02  0.47000000000E+01 0. -1.
<mgrwt>
<rscale>  0 0.33732713E+03</rscale>
<asrwt>0</asrwt>
<pdfrwt beam="1">  1       21 0.67428301E-01 0.33732713E+03</pdfrwt>
<pdfrwt beam="2">  1       21 0.99855872E-02 0.33732713E+03</pdfrwt>
<totfact> 0.15708012E+05</totfact>
</mgrwt>
</event>
<event>
 8    1  0.9123825E-006  0.2667086E+03  0.7546771E-02  0.1103178E+00
         21   -1    0    0  504  503  0.00000000000E+00  0.00000000000E+00  0.20156931954E+03  0.20156931954E+03  0.00000000000E+00 0.  1.
         21   -1    0    0  503  504 -0.00000000000E+00 -0.00000000000E+00 -0.88224609363E+02  0.88224609363E+02  0.00000000000E+00 0.  1.
         25    2    1    2    0    0 -0.29872264925E+01  0.46359833227E+02  0.56700966390E+02  0.14490696733E+03  0.12499948773E+03 0.  0.
         25    2    1    2    0    0  0.29872264925E+01 -0.46359833227E+02  0.56643743785E+02  0.14488696157E+03  0.12500224104E+03 0.  0.
          5    1    3    3  501    0 -0.36993948557E+02  0.72790565873E+02  0.60030597823E+02  0.10145334585E+03  0.47000000000E+01 0.  1.
         -5    1    3    3    0  501  0.34006722065E+02 -0.26430732646E+02 -0.33296314335E+01  0.43453621475E+02  0.47000000000E+01 0.  1.
          5    1    4    4  502    0 -0.27299241288E+02 -0.66166326459E+02  0.75219789243E+02  0.10393910730E+03  0.47000000000E+01 0. -1.
         -5    1    4    4    0  502  0.30286467781E+02  0.19806493232E+02 -0.18576045458E+02  0.40947854274E+02  0.47000000000E+01 0. -1.
<mgrwt>
<rscale>  0 0.26670864E+03</rscale>
<asrwt>0</asrwt>
<pdfrwt beam="1">  1       21 0.31010664E-01 0.26670864E+03</pdfrwt>
<pdfrwt beam="2">  1       21 0.13573017E-01 0.26670864E+03</pdfrwt>
<totfact> 0.46283753E+05</totfact>
</mgrwt>
</event>
<event>
 8    1  0.9123825E-006  0.2849606E+03  0.7546771E-02  0.1093010E+00
         21   -1    0    0  504  503  0.00000000000E+00  0.00000000000E+00  0.94007238842E+02  0.94007238842E+02  0.00000000000E+00 0.  1.
         21   -1    0    0  503  504 -0.00000000000E+00 -0.00000000000E+00 -0.21594765273E+03  0.21594765273E+03  0.00000000000E+00 0.  1.
         25    2    1    2    0    0  0.28042320834E+02 -0.24877846224E+00  0.68156926579E+01  0.12828835499E+03  0.12500005885E+03 0.  0.
         25    2    1    2    0    0 -0.28042320834E+02  0.24877846224E+00 -0.12875610654E+03  0.18166653658E+03  0.12505263648E+03 0.  0.
          5    1    3    3  501    0 -0.16045296418E+02  0.16902308058E+02 -0.49305830545E+02  0.54738418689E+02  0.47000000000E+01 0.  1.
         -5    1    3    3    0  501  0.44087617252E+02 -0.17151086520E+02  0.56121523203E+02  0.73549936305E+02  0.47000000000E+01 0.  1.
          5    1    4    4  502    0 -0.28911539207E+02  0.31699326459E+02 -0.14109274523E+03  0.14754652538E+03  0.47000000000E+01 0. -1.
         -5    1    4    4    0  502  0.86921837231E+00 -0.31450547997E+02  0.12336638682E+02  0.34120011194E+02  0.47000000000E+01 0. -1.
<mgrwt>
<rscale>  0 0.28496065E+03</rscale>
<asrwt>0</asrwt>
<pdfrwt beam="1">  1       21 0.14462652E-01 0.28496065E+03</pdfrwt>
<pdfrwt beam="2">  1       21 0.33222716E-01 0.28496065E+03</pdfrwt>
<totfact> 0.35838853E+05</totfact>
</mgrwt>
</event>
<event>
 8    1  0.9123825E-006  0.2744220E+03  0.7546771E-02  0.1098775E+00
         21   -1    0    0  504  503  0.00000000000E+00  0.00000000000E+00  0.10899374539E+03  0.10899374539E+03  0.00000000000E+00 0.  1.
         21   -1    0    0  503  504 -0.00000000000E+00 -0.00000000000E+00 -0.17273342748E+03  0.17273342748E+03  0.00000000000E+00 0.  1.
         25    2    1    2    0    0 -0.13181619701E+02 -0.30534436664E+02 -0.78867027363E+02  0.15149644663E+03  0.12500023366E+03 0.  0.
         25    2    1    2    0    0  0.13181619701E+02  0.30534436664E+02  0.15127345267E+02  0.13023072624E+03  0.12500039425E+03 0.  0.
          5    1    3    3  501    0 -0.60991693268E+02 -0.63603129583E+01 -0.75823311232E+02  0.97630449937E+02  0.47000000000E+01 0. -1.
         -5    1    3    3    0  501  0.47810073567E+02 -0.24174123706E+02 -0.30437161307E+01  0.53865996689E+02  0.47000000000E+01 0. -1.
          5    1    4    4  502    0 -0.44065882697E+01 -0.36014870842E+02  0.42434186955E+02  0.56028913647E+02  0.47000000000E+01 0.  1.
         -5    1    4    4    0  502  0.17588207971E+02  0.66549307506E+02 -0.27306841688E+02  0.74201812593E+02  0.47000000000E+01 0.  1.
<mgrwt>
<rscale>  0 0.27442203E+03</rscale>
<asrwt>0</asrwt>
<pdfrwt beam="1">  1       21 0.16768269E-01 0.27442203E+03</pdfrwt>
<pdfrwt beam="2">  1       21 0.26574373E-01 0.27442203E+03</pdfrwt>
<totfact> 0.42396239E+05</totfact>
</mgrwt>
</event>
<event>
 8    1  0.9123825E-006  0.3130147E+03  0.7546771E-02  0.1078910E+00
         21   -1    0    0  504  503  0.00000000000E+00  0.00000000000E+00  0.37675894420E+02  0.37675894420E+02  0.00000000000E+00 0. -1.
         21   -1    0    0  503  504 -0.00000000000E+00 -0.00000000000E+00 -0.65013867035E+03  0.65013867035E+03  0.00000000000E+00 0. -1.
         25    2    1    2    0    0  0.91972232211E+02 -0.16495715896E+02 -0.28040470149E+03  0.32090968451E+03  0.12500091541E+03 0.  0.
         25    2    1    2    0    0 -0.91972232211E+02  0.16495715896E+02 -0.33205807444E+03  0.36690488026E+03  0.12500250484E+03 0.  0.
          5    1    3    3  501    0 -0.22461694092E+02 -0.32959340396E+02 -0.79450286555E+02  0.89024063346E+02  0.47000000000E+01 0. -1.
         -5    1    3    3    0  501  0.11443392630E+03  0.16463624501E+02 -0.20095441493E+03  0.23188562116E+03  0.47000000000E+01 0. -1.
          5    1    4    4  502    0 -0.11651569386E+02 -0.15300769972E+02  0.37341622918E+01  0.20147123837E+02  0.47000000000E+01 0.  1.
         -5    1    4    4    0  502 -0.80320662825E+02  0.31796485868E+02 -0.33579223673E+03  0.34675775642E+03  0.47000000000E+01 0.  1.
<mgrwt>
<rscale>  0 0.31301473E+03</rscale>
<asrwt>0</asrwt>
<pdfrwt beam="1">  1       21 0.57962914E-02 0.31301473E+03</pdfrwt>
<pdfrwt beam="2">  1       21 0.10002133E+00 0.31301473E+03</pdfrwt>
<totfact> 0.16536939E+05</totfact>
</mgrwt>
</event>
<event>
 8    1  0.9123825E-006  0.3223123E+03  0.7546771E-02  0.1074590E+00
         21   -1    0    0  504  503  0.00000000000E+00  0.00000000000E+00  0.50797617330E+03  0.50797617330E+03  0.00000000000E+00 0.  1.
         21   -1    0    0  503  504 -0.00000000000E+00 -0.00000000000E+00 -0.51127010064E+02  0.51127010064E+02  0.00000000000E+00 0.  1.
         25    2    1    2    0    0 -0.27705490603E+01  0.48661500569E+02  0.38326845916E+03  0.40607292291E+03  0.12499955742E+03 0.  0.
         25    2    1    2    0    0  0.27705490603E+01 -0.48661500569E+02  0.73580704075E+02  0.15303026045E+03  0.12501409129E+03 0.  0.
          5    1    3    3  501    0  0.56919436650E+02  0.47230587008E+02  0.20200973147E+03  0.21517567759E+03  0.47000000000E+01 0.  1.
         -5    1    3    3    0  501 -0.59689985711E+02  0.14309135615E+01  0.18125872769E+03  0.19089724532E+03  0.47000000000E+01 0.  1.
          5    1    4    4  502    0 -0.25750110099E+02 -0.44674053631E+02  0.10067641169E+03  0.11321072877E+03  0.47000000000E+01 0.  1.
         -5    1    4    4    0  502  0.28520659160E+02 -0.39874469383E+01 -0.27095707617E+02  0.39819531680E+02  0.47000000000E+01 0.  1.
<mgrwt>
<rscale>  0 0.32231229E+03</rscale>
<asrwt>0</asrwt>
<pdfrwt beam="1">  1       21 0.78150177E-01 0.32231229E+03</pdfrwt>
<pdfrwt beam="2">  1       21 0.78656942E-02 0.32231229E+03</pdfrwt>
<totfact> 0.17263595E+05</totfact>
</mgrwt>
</event>
<event>
 8    1  0.9123825E-006  0.3877932E+03  0.7546771E-02  0.1048090E+00
         21   -1    0    0  504  503  0.00000000000E+00  0.00000000000E+00  0.17832597037E+03  0.17832597037E+03  0.00000000000E+00 0. -1.
         21   -1    0    0  503  504 -0.00000000000E+00 -0.00000000000E+00 -0.21082680694E+03  0.21082680694E+03  0.00000000000E+00 0. -1.
         25    2    1    2    0    0 -0.12623044073E+03  0.72823772423E+02  0.10954587368E+02  0.19230157825E+03  0.12498987166E+03 0.  0.
         25    2    1    2    0    0  0.12623044073E+03 -0.72823772423E+02 -0.43455423938E+02  0.19685119905E+03  0.12499837879E+03 0.  0.
          5    1    3    3  501    0 -0.40895359673E+02  0.55808229496E+02 -0.50399640787E+02  0.85727491003E+02  0.47000000000E+01 0. -1.
         -5    1    3    3    0  501 -0.85335081059E+02  0.17015542926E+02  0.61354228155E+02  0.10657408725E+03  0.47000000000E+01 0. -1.
          5    1    4    4  502    0 -0.14544539528E+02 -0.46162590411E+02 -0.10010756637E+02  0.49647090871E+02  0.47000000000E+01 0.  1.
         -5    1    4    4    0  502  0.14077498026E+03 -0.26661182012E+02 -0.33444667301E+02  0.14720410818E+03  0.47000000000E+01 0.  1.
<mgrwt>
<rscale>  0 0.38779322E+03</rscale>
<asrwt>0</asrwt>
<pdfrwt beam="1">  1       21 0.27434765E-01 0.38779322E+03</pdfrwt>
<pdfrwt beam="2">  1       21 0.32434893E-01 0.38779322E+03</pdfrwt>
<totfact> 0.10967229E+05</totfact>
</mgrwt>
</event>
<event>
 8    1  0.9123825E-006  0.3362207E+03  0.7546771E-02  0.1068417E+00
         21   -1    0    0  504  503  0.00000000000E+00  0.00000000000E+00  0.28529434885E+03  0.28529434885E+03  0.00000000000E+00 0.  1.
         21   -1    0    0  503  504 -0.00000000000E+00 -0.00000000000E+00 -0.99059407729E+02  0.99059407729E+02  0.00000000000E+00 0.  1.
         25    2    1    2    0    0 -0.43228031112E+02 -0.87072306843E+02  0.28578397618E+02  0.16090730175E+03  0.12499674257E+03 0.  0.
         25    2    1    2    0    0  0.43228031112E+02  0.87072306843E+02  0.15765654351E+03  0.22344645483E+03  0.12498993229E+03 0.  0.
          5    1    3    3  501    0 -0.61281155472E+02 -0.66072531097E+02 -0.30693903113E+02  0.95316132264E+02  0.47000000000E+01 0. -1.
         -5    1    3    3    0  501  0.18053124360E+02 -0.20999775745E+02  0.59272300731E+02  0.65591169486E+02  0.47000000000E+01 0. -1.
          5    1    4    4  502    0 -0.10650212021E+02  0.21140739171E+02 -0.16703269733E+02  0.29350418882E+02  0.47000000000E+01 0. -1.
         -5    1    4    4    0  502  0.53878243133E+02  0.65931567672E+02  0.17435981324E+03  0.19409603595E+03  0.47000000000E+01 0. -1.
<mgrwt>
<rscale>  0 0.33622070E+03</rscale>
<asrwt>0</asrwt>
<pdfrwt beam="1">  1       21 0.43891438E-01 0.33622070E+03</pdfrwt>
<pdfrwt beam="2">  1       21 0.15239909E-01 0.33622070E+03</pdfrwt>
<totfact> 0.18301589E+05</totfact>
</mgrwt>
</event>
<event>
 8    1  0.9123825E-006  0.3122388E+03  0.7546771E-02  0.1079278E+00
         21   -1    0    0  504  503  0.00000000000E+00  0.00000000000E+00  0.79322956869E+02  0.79322956869E+02  0.00000000000E+00 0.  1.
         21   -1    0    0  503  504 -0.00000000000E+00 -0.00000000000E+00 -0.30726619264E+03  0.30726619264E+03  0.00000000000E+00 0.  1.
         25    2    1    2    0    0  0.17245178601E+02  0.58949116196E+01 -0.38219122709E+00  0.12632304337E+03  0.12500087619E+03 0.  0.
         25    2    1    2    0    0 -0.17245178601E+02 -0.58949116196E+01 -0.22756104454E+03  0.26026610614E+03  0.12498908290E+03 0.  0.
          5    1    3    3  501    0  0.60644378028E+02  0.20833511790E+02  0.30133436958E+02  0.71006266081E+02  0.47000000000E+01 0. -1.
         -5    1    3    3    0  501 -0.43399199427E+02 -0.14938600171E+02 -0.30515628185E+02  0.55316777287E+02  0.47000000000E+01 0. -1.
          5    1    4    4  502    0 -0.77213469932E+01 -0.17091790457E+02 -0.23979462519E+03  0.24057285959E+03  0.47000000000E+01 0. -1.
         -5    1    4    4    0  502 -0.95238316079E+01  0.11196878837E+02  0.12233580648E+02  0.19693246550E+02  0.47000000000E+01 0. -1.
<mgrwt>
<rscale>  0 0.31223877E+03</rscale>
<asrwt>0</asrwt>
<pdfrwt beam="1">  1       21 0.12203532E-01 0.31223877E+03</pdfrwt>
<pdfrwt beam="2">  1       21 0.47271722E-01 0.31223877E+03</pdfrwt>
<totfact> 0.23656674E+05</totfact>
</mgrwt>
</event>
<event>
 8    1  0.9123825E-006  0.2703290E+03  0.7546771E-02  0.1101091E+00
         21   -1    0    0  504  503  0.00000000000E+00  0.00000000000E+00  0.18460098230E+02  0.18460098230E+02  0.00000000000E+00 0.  1.
         21   -1    0    0  503  504 -0.00000000000E+00 -0.00000000000E+00 -0.98967197815E+03  0.98967197815E+03  0.00000000000E+00 0.  1.
         25    2    1    2    0    0 -0.38458451246E+02 -0.28666190842E+02 -0.55459702388E+03  0.57053087008E+03  0.12500724717E+03 0.  0.
         25    2    1    2    0    0  0.38458451246E+02  0.28666190842E+02 -0.41661485604E+03  0.43760120630E+03  0.12500429798E+03 0.  0.
          5    1    3    3  501    0 -0.55143189069E+02 -0.62401635318E+02 -0.47610162982E+03  0.48335244626E+03  0.47000000000E+01 0.  1.
         -5    1    3    3    0  501  0.16684737823E+02  0.33735444475E+02 -0.78495394060E+02  0.87178423814E+02  0.47000000000E+01 0.  1.
          5    1    4    4  502    0  0.70050472583E+01  0.69857664311E+02 -0.32220370379E+03  0.32979763596E+03  0.47000000000E+01 0.  1.
         -5    1    4    4    0  502  0.31453403988E+02 -0.41191473468E+02 -0.94411152250E+02  0.10780357034E+03  0.47000000000E+01 0.  1.
<mgrwt>
<rscale>  0 0.27032900E+03</rscale>
<asrwt>0</asrwt>
<pdfrwt beam="1">  1       21 0.28400148E-02 0.27032900E+03</pdfrwt>
<pdfrwt beam="2">  1       21 0.15225724E+00 0.27032900E+03</pdfrwt>
<totfact> 0.19336052E+05</totfact>
</mgrwt>
</event>
<event>
 8    1  0.9123825E-006  0.4021943E+03  0.7546771E-02  0.1043023E+00
         21   -1    0    0  504  503  0.00000000000E+00  0.00000000000E+00  0.57808353653E+02  0.57808353653E+02  0.00000000000E+00 0.  1.
         21   -1    0    0  503  504 -0.00000000000E+00 -0.00000000000E+00 -0.69955390357E+03  0.69955390357E+03  0.00000000000E+00 0.  1.
         25    2    1    2    0    0  0.61079968060E+02  0.14364524973E+03 -0.36083864081E+03  0.41254590306E+03  0.12499950864E+03 0.  0.
         25    2    1    2    0    0 -0.61079968060E+02 -0.14364524973E+03 -0.28090690911E+03  0.34481635417E+03  0.12499962499E+03 0.  0.
          5    1    3    3  501    0  0.32014458366E+02  0.15839661501E+03 -0.32979388512E+03  0.36728804753E+03  0.47000000000E+01 0. -1.
         -5    1    3    3    0  501  0.29065509694E+02 -0.14751365285E+02 -0.31044755685E+02  0.45257855530E+02  0.47000000000E+01 0. -1.
          5    1    4    4  502    0 -0.16940919176E+02 -0.13358575548E+03 -0.13012399026E+03  0.18731388537E+03  0.47000000000E+01 0.  1.
         -5    1    4    4    0  502 -0.44139048884E+02 -0.10059494243E+02 -0.15078291885E+03  0.15750246880E+03  0.47000000000E+01 0.  1.
<mgrwt>
<rscale>  0 0.40219428E+03</rscale>
<asrwt>0</asrwt>
<pdfrwt beam="1">  1       21 0.88935927E-02 0.40219428E+03</pdfrwt>
<pdfrwt beam="2">  1       21 0.10762368E+00 0.40219428E+03</pdfrwt>
<totfact> 0.63865893E+04</totfact>
</mgrwt>
</event>
<event>
 8    1  0.9123825E-006  0.3034902E+03  0.7546771E-02  0.1083509E+00
         21   -1    0    0  504  503  0.00000000000E+00  0.00000000000E+00  0.12668214755E+03  0.12668214755E+03  0.00000000000E+00 0.  1.
         21   -1    0    0  503  504 -0.00000000000E+00 -0.00000000000E+00 -0.18176651651E+03  0.18176651651E+03  0.00000000000E+00 0.  1.
         25    2    1    2    0    0 -0.53260622262E+02  0.55327945595E+02 -0.66958748831E+02  0.16126011280E+03  0.12499389780E+03 0.  0.
         25    2    1    2    0    0  0.53260622262E+02 -0.55327945595E+02  0.11874379876E+02  0.14718855126E+03  0.12500237308E+03 0.  0.
          5    1    3    3  501    0 -0.50188048895E+02  0.11093097780E+02 -0.95332728787E+02  0.10840810047E+03  0.47000000000E+01 0. -1.
         -5    1    3    3    0  501 -0.30725733670E+01  0.44234847815E+02  0.28373979957E+02  0.52852012326E+02  0.47000000000E+01 0. -1.
          5    1    4    4  502    0  0.30344673586E+02 -0.47618942548E+02 -0.53130197346E+02  0.77674131952E+02  0.47000000000E+01 0.  1.
         -5    1    4    4    0  502  0.22915948675E+02 -0.77090030469E+01  0.65004577222E+02  0.69514419306E+02  0.47000000000E+01 0.  1.
<mgrwt>
<rscale>  0 0.30349018E+03</rscale>
<asrwt>0</asrwt>
<pdfrwt beam="1">  1       21 0.19489561E-01 0.30349018E+03</pdfrwt>
<pdfrwt beam="2">  1       21 0.27964080E-01 0.30349018E+03</pdfrwt>
<totfact> 0.28835208E+05</totfact>
</mgrwt>
</event>
<event>
 8    1  0.9123825E-006  0.2766301E+03  0.7546771E-02  0.1097544E+00
         21   -1    0    0  504  503  0.00000000000E+00  0.00000000000E+00  0.32421403470E+02  0.32421403470E+02  0.00000000000E+00 0.  1.
         21   -1    0    0  503  504 -0.00000000000E+00 -0.00000000000E+00 -0.59007464611E+03  0.59007464611E+03  0.00000000000E+00 0.  1.
         25    2    1    2    0    0 -0.47695537945E+02  0.29592510223E+02 -0.32129600520E+03  0.34929434506E+03  0.12499934212E+03 0.  0.
         25    2    1    2    0    0  0.47695537945E+02 -0.29592510223E+02 -0.23635723744E+03  0.27320170452E+03  0.12499538657E+03 0.  0.
          5    1    3    3  501    0 -0.84095151436E+02  0.18050353684E+01 -0.25520949287E+03  0.26875495884E+03  0.47000000000E+01 0.  1.
         -5    1    3    3    0  501  0.36399613491E+02  0.27787474854E+02 -0.66086512332E+02  0.80539386224E+02  0.47000000000E+01 0.  1.
          5    1    4    4  502    0 -0.36984940781E+02 -0.32711365682E+02 -0.62962707416E+02  0.80151804811E+02  0.47000000000E+01 0. -1.
         -5    1    4    4    0  502  0.84680478726E+02  0.31188554591E+01 -0.17339453002E+03  0.19304989971E+03  0.47000000000E+01 0. -1.
<mgrwt>
<rscale>  0 0.27663006E+03</rscale>
<asrwt>0</asrwt>
<pdfrwt beam="1">  1       21 0.49879088E-02 0.27663006E+03</pdfrwt>
<pdfrwt beam="2">  1       21 0.90780705E-01 0.27663006E+03</pdfrwt>
<totfact> 0.27175798E+05</totfact>
</mgrwt>
</event>
<event>
 8    1  0.9123825E-006  0.3016198E+03  0.7546771E-02  0.1084434E+00
         21   -1    0    0  504  503  0.00000000000E+00  0.00000000000E+00  0.30440948036E+03  0.30440948036E+03  0.00000000000E+00 0.  1.
         21   -1    0    0  503  504 -0.00000000000E+00 -0.00000000000E+00 -0.74713941666E+02  0.74713941666E+02  0.00000000000E+00 0.  1.
         25    2    1    2    0    0  0.67946477862E+02  0.21480174617E+02  0.17162500757E+03  0.22396211915E+03  0.12500306330E+03 0.  0.
         25    2    1    2    0    0 -0.67946477862E+02 -0.21480174617E+02  0.58070531122E+02  0.15516130288E+03  0.12499888628E+03 0.  0.
          5    1    3    3  501    0 -0.18069377814E+02  0.48004962219E+02  0.44153912648E+02  0.67842735899E+02  0.47000000000E+01 0. -1.
         -5    1    3    3    0  501  0.86015855676E+02 -0.26524787602E+02  0.12747109492E+03  0.15611938325E+03  0.47000000000E+01 0. -1.
          5    1    4    4  502    0 -0.18152986159E+02 -0.12108493192E+02 -0.39356784518E+02  0.45245916959E+02  0.47000000000E+01 0. -1.
         -5    1    4    4    0  502 -0.49793491703E+02 -0.93716814248E+01  0.97427315640E+02  0.10991538592E+03  0.47000000000E+01 0. -1.
<mgrwt>
<rscale>  0 0.30161984E+03</rscale>
<asrwt>0</asrwt>
<pdfrwt beam="1">  1       21 0.46832227E-01 0.30161984E+03</pdfrwt>
<pdfrwt beam="2">  1       21 0.11494453E-01 0.30161984E+03</pdfrwt>
<totfact> 0.26935674E+05</totfact>
</mgrwt>
</event>
<event>
 8    1  0.9123825E-006  0.3240665E+03  0.7546771E-02  0.1073793E+00
         21   -1    0    0  504  503  0.00000000000E+00  0.00000000000E+00  0.29990348809E+03  0.29990348809E+03  0.00000000000E+00 0.  1.
         21   -1    0    0  503  504 -0.00000000000E+00 -0.00000000000E+00 -0.87544101841E+02  0.87544101841E+02  0.00000000000E+00 0.  1.
         25    2    1    2    0    0  0.38451288533E+02 -0.37204666256E+02  0.21152938934E+03  0.25147605738E+03  0.12503134048E+03 0.  0.
         25    2    1    2    0    0 -0.38451288533E+02  0.37204666256E+02  0.82999690841E+00  0.13597153255E+03  0.12499951995E+03 0.  0.
          5    1    3    3  501    0  0.15461831722E+02  0.36824728848E+02  0.20234071609E+02  0.45018180204E+02  0.47000000000E+01 0. -1.
         -5    1    3    3    0  501  0.22989456811E+02 -0.74029395104E+02  0.19129531773E+03  0.20645787718E+03  0.47000000000E+01 0. -1.
          5    1    4    4  502    0  0.31414723849E+02 -0.17427090046E+01 -0.35780404182E+02  0.47877439704E+02  0.47000000000E+01 0.  1.
         -5    1    4    4    0  502 -0.69866012382E+02  0.38947375261E+02  0.36610401090E+02  0.88094092843E+02  0.47000000000E+01 0.  1.
<mgrwt>
<rscale>  0 0.32406655E+03</rscale>
<asrwt>0</asrwt>
<pdfrwt beam="1">  1       21 0.46138998E-01 0.32406655E+03</pdfrwt>
<pdfrwt beam="2">  1       21 0.13468324E-01 0.32406655E+03</pdfrwt>
<totfact> 0.20750107E+05</totfact>
</mgrwt>
</event>
<event>
 8    1  0.9123825E-006  0.3724150E+03  0.7546771E-02  0.1053773E+00
         21   -1    0    0  504  503  0.00000000000E+00  0.00000000000E+00  0.78018207354E+02  0.78018207354E+02  0.00000000000E+00 0.  1.
         21   -1    0    0  503  504 -0.00000000000E+00 -0.00000000000E+00 -0.44442488411E+03  0.44442488411E+03  0.00000000000E+00 0.  1.
         25    2    1    2    0    0  0.13450551393E+03  0.84806470760E+01 -0.22500654068E+03  0.29054562485E+03  0.12500064848E+03 0.  0.
         25    2    1    2    0    0 -0.13450551393E+03 -0.84806470760E+01 -0.14140013608E+03  0.23189746661E+03  0.12497512506E+03 0.  0.
          5    1    3    3  501    0  0.82452310678E+01  0.37885403922E+02 -0.11160917678E+03  0.11824544814E+03  0.47000000000E+01 0.  1.
         -5    1    3    3    0  501  0.12626028286E+03 -0.29404756846E+02 -0.11339736390E+03  0.17230017671E+03  0.47000000000E+01 0.  1.
          5    1    4    4  502    0 -0.10675796995E+03  0.11564183578E+02 -0.24831950105E+02  0.11031640964E+03  0.47000000000E+01 0.  1.
         -5    1    4    4    0  502 -0.27747543980E+02 -0.20044830654E+02 -0.11656818597E+03  0.12158105697E+03  0.47000000000E+01 0.  1.
<mgrwt>
<rscale>  0 0.37241500E+03</rscale>
<asrwt>0</asrwt>
<pdfrwt beam="1">  1       21 0.12002801E-01 0.37241500E+03</pdfrwt>
<pdfrwt beam="2">  1       21 0.68373059E-01 0.37241500E+03</pdfrwt>
<totfact> 0.10846936E+05</totfact>
</mgrwt>
</event>
<event>
 8    1  0.9123825E-006  0.2556922E+03  0.7546771E-02  0.1109759E+00
         21   -1    0    0  504  503  0.00000000000E+00  0.00000000000E+00  0.77300222543E+02  0.77300222543E+02  0.00000000000E+00 0.  1.
         21   -1    0    0  503  504 -0.00000000000E+00 -0.00000000000E+00 -0.21144349815E+03  0.21144349815E+03  0.00000000000E+00 0.  1.
         25    2    1    2    0    0 -0.20307442825E+02  0.96079740083E+01 -0.83652995936E+02  0.15207643800E+03  0.12499885547E+03 0.  0.
         25    2    1    2    0    0  0.20307442825E+02 -0.96079740083E+01 -0.50490279675E+02  0.13666728269E+03  0.12499588960E+03 0.  0.
          5    1    3    3  501    0  0.23550828324E+02 -0.27082526103E+02 -0.87380604987E+02  0.94580996308E+02  0.47000000000E+01 0.  1.
         -5    1    3    3    0  501 -0.43858271149E+02  0.36690500111E+02  0.37276090510E+01  0.57495441696E+02  0.47000000000E+01 0.  1.
          5    1    4    4  502    0  0.58837181815E+02 -0.30471786871E+02 -0.62273527626E+02  0.91051776490E+02  0.47000000000E+01 0. -1.
         -5    1    4    4    0  502 -0.38529738990E+02  0.20863812863E+02  0.11783247951E+02  0.45615506202E+02  0.47000000000E+01 0. -1.
<mgrwt>
<rscale>  0 0.25569223E+03</rscale>
<asrwt>0</asrwt>
<pdfrwt beam="1">  1       21 0.11892342E-01 0.25569223E+03</pdfrwt>
<pdfrwt beam="2">  1       21 0.32529768E-01 0.25569223E+03</pdfrwt>
<totfact> 0.53591557E+05</totfact>
</mgrwt>
</event>
<event>
 8    1  0.9123825E-006  0.2519820E+03  0.7546771E-02  0.1112059E+00
         21   -1    0    0  504  503  0.00000000000E+00  0.00000000000E+00  0.15191978887E+03  0.15191978887E+03  0.00000000000E+00 0.  1.
         21   -1    0    0  503  504 -0.00000000000E+00 -0.00000000000E+00 -0.10448760322E+03  0.10448760322E+03  0.00000000000E+00 0.  1.
         25    2    1    2    0    0 -0.11965341177E+02  0.10142729084E+02  0.21001282817E+02  0.12768517056E+03  0.12496561350E+03 0.  0.
         25    2    1    2    0    0  0.11965341177E+02 -0.10142729084E+02  0.26430902827E+02  0.12872222153E+03  0.12499909340E+03 0.  0.
          5    1    3    3  501    0  0.12684928033E+02  0.82965465157E+01 -0.49946837400E+02  0.52407219441E+02  0.47000000000E+01 0.  1.
         -5    1    3    3    0  501 -0.24650269210E+02  0.18461825679E+01  0.70948120217E+02  0.75277951118E+02  0.47000000000E+01 0.  1.
          5    1    4    4  502    0 -0.46489385997E+01 -0.48809337030E+02 -0.30376023737E+02  0.57868444160E+02  0.47000000000E+01 0.  1.
         -5    1    4    4    0  502  0.16614279777E+02  0.38666607946E+02  0.56806926564E+02  0.70853777375E+02  0.47000000000E+01 0.  1.
<mgrwt>
<rscale>  0 0.25198202E+03</rscale>
<asrwt>0</asrwt>
<pdfrwt beam="1">  1       21 0.23372275E-01 0.25198202E+03</pdfrwt>
<pdfrwt beam="2">  1       21 0.16075016E-01 0.25198202E+03</pdfrwt>
<totfact> 0.58895359E+05</totfact>
</mgrwt>
</event>
<event>
 8    1  0.9123825E-006  0.2814579E+03  0.7546771E-02  0.1094895E+00
         21   -1    0    0  504  503  0.00000000000E+00  0.00000000000E+00  0.16553177041E+03  0.16553177041E+03  0.00000000000E+00 0.  1.
         21   -1    0    0  503  504 -0.00000000000E+00 -0.00000000000E+00 -0.11964252403E+03  0.11964252403E+03  0.00000000000E+00 0.  1.
         25    2    1    2    0    0 -0.63555383538E+02 -0.11187209878E+02  0.26874805551E+02  0.14321336086E+03  0.12499348428E+03 0.  0.
         25    2    1    2    0    0  0.63555383538E+02  0.11187209878E+02  0.19014440825E+02  0.14196093358E+03  0.12500766881E+03 0.  0.
          5    1    3    3  501    0 -0.73399926932E+02  0.36631784043E+02  0.41470969274E+02  0.92040035682E+02  0.47000000000E+01 0.  1.
         -5    1    3    3    0  501  0.98445433939E+01 -0.47818993921E+02 -0.14596163723E+02  0.51173325177E+02  0.47000000000E+01 0.  1.
          5    1    4    4  502    0 -0.35188365690E+02  0.28494210191E+01  0.23472485144E+02  0.42654282773E+02  0.47000000000E+01 0.  1.
         -5    1    4    4    0  502  0.98743749229E+02  0.83377888588E+01 -0.44580443186E+01  0.99306650804E+02  0.47000000000E+01 0.  1.
<mgrwt>
<rscale>  0 0.28145791E+03</rscale>
<asrwt>0</asrwt>
<pdfrwt beam="1">  1       21 0.25466426E-01 0.28145791E+03</pdfrwt>
<pdfrwt beam="2">  1       21 0.18406542E-01 0.28145791E+03</pdfrwt>
<totfact> 0.38655840E+05</totfact>
</mgrwt>
</event>
<event>
 8    1  0.9123825E-006  0.2607464E+03  0.7546771E-02  0.1106696E+00
         21   -1    0    0  504  503  0.00000000000E+00  0.00000000000E+00  0.15609966093E+04  0.15609966093E+04  0.00000000000E+00 0.  1.
         21   -1    0    0  503  504 -0.00000000000E+00 -0.00000000000E+00 -0.10888662279E+02  0.10888662279E+02  0.00000000000E+00 0.  1.
         25    2    1    2    0    0  0.30665136115E+02  0.52031385635E+01  0.89636010123E+03  0.90556819710E+03  0.12499962124E+03 0.  0.
         25    2    1    2    0    0 -0.30665136115E+02 -0.52031385635E+01  0.65374784582E+03  0.66631707450E+03  0.12499909852E+03 0.  0.
          5    1    3    3  501    0  0.69171084332E+02 -0.30588017589E+02  0.50017802438E+03  0.50588576952E+03  0.47000000000E+01 0.  1.
         -5    1    3    3    0  501 -0.38505948217E+02  0.35791156153E+02  0.39618207684E+03  0.39968242758E+03  0.47000000000E+01 0.  1.
          5    1    4    4  502    0  0.25558383483E+02  0.41899441675E+02  0.16956060675E+03  0.17658336145E+03  0.47000000000E+01 0. -1.
         -5    1    4    4    0  502 -0.56223519598E+02 -0.47102580238E+02  0.48418723906E+03  0.48973371305E+03  0.47000000000E+01 0. -1.
<mgrwt>
<rscale>  0 0.26074635E+03</rscale>
<asrwt>0</asrwt>
<pdfrwt beam="1">  1       21 0.24015315E+00 0.26074635E+03</pdfrwt>
<pdfrwt beam="2">  1       21 0.16751801E-02 0.26074635E+03</pdfrwt>
<totfact> 0.11994487E+05</totfact>
</mgrwt>
</event>
<event>
 8    1  0.9123825E-006  0.2825485E+03  0.7546771E-02  0.1094305E+00
         21   -1    0    0  504  503  0.00000000000E+00  0.00000000000E+00  0.33054377457E+03  0.33054377457E+03  0.00000000000E+00 0. -1.
         21   -1    0    0  503  504 -0.00000000000E+00 -0.00000000000E+00 -0.60380558427E+02  0.60380558427E+02  0.00000000000E+00 0. -1.
         25    2    1    2    0    0 -0.26650831374E+01  0.32375236728E+02  0.21439106767E+03  0.25029146772E+03  0.12500812092E+03 0.  0.
         25    2    1    2    0    0  0.26650831374E+01 -0.32375236728E+02  0.55772148474E+02  0.14063286528E+03  0.12494723538E+03 0.  0.
          5    1    3    3  501    0  0.11103399013E+02 -0.31614513323E+02  0.94941375521E+01  0.35142446844E+02  0.47000000000E+01 0.  1.
         -5    1    3    3    0  501 -0.13768482151E+02  0.63989750051E+02  0.20489693012E+03  0.21514902088E+03  0.47000000000E+01 0.  1.
          5    1    4    4  502    0 -0.10113532406E+02 -0.78205091216E+02  0.47311717402E+02  0.92080445445E+02  0.47000000000E+01 0.  1.
         -5    1    4    4    0  502  0.12778615543E+02  0.45829854488E+02  0.84604310716E+01  0.48552419832E+02  0.47000000000E+01 0.  1.
<mgrwt>
<rscale>  0 0.28254853E+03</rscale>
<asrwt>0</asrwt>
<pdfrwt beam="1">  1       21 0.50852887E-01 0.28254853E+03</pdfrwt>
<pdfrwt beam="2">  1       21 0.92893169E-02 0.28254853E+03</pdfrwt>
<totfact> 0.33284491E+05</totfact>
</mgrwt>
</event>
<event>
 8    1  0.9123825E-006  0.3784588E+03  0.7546771E-02  0.1051505E+00
         21   -1    0    0  504  503  0.00000000000E+00  0.00000000000E+00  0.21595079497E+03  0.21595079497E+03  0.00000000000E+00 0.  1.
         21   -1    0    0  503  504 -0.00000000000E+00 -0.00000000000E+00 -0.16581446698E+03  0.16581446698E+03  0.00000000000E+00 0.  1.
         25    2    1    2    0    0 -0.14160733281E+03  0.58567776164E+01  0.14985520067E+02  0.18954442376E+03  0.12496233120E+03 0.  0.
         25    2    1    2    0    0  0.14160733281E+03 -0.58567776164E+01  0.35150807918E+02  0.19222083819E+03  0.12500533104E+03 0.  0.
          5    1    3    3  501    0 -0.34279455938E+01  0.84918357930E+01  0.46574082193E+02  0.47697979184E+02  0.47000000000E+01 0.  1.
         -5    1    3    3    0  501 -0.13817938721E+03 -0.26350581766E+01 -0.31588562126E+02  0.14184644458E+03  0.47000000000E+01 0.  1.
          5    1    4    4  502    0  0.30053960737E+02 -0.36912093040E+02 -0.32688683913E+02  0.57934300933E+02  0.47000000000E+01 0. -1.
         -5    1    4    4    0  502  0.11155337207E+03  0.31055315424E+02  0.67839491830E+02  0.13428653726E+03  0.47000000000E+01 0. -1.
<mgrwt>
<rscale>  0 0.37845880E+03</rscale>
<asrwt>0</asrwt>
<pdfrwt beam="1">  1       21 0.33223199E-01 0.37845880E+03</pdfrwt>
<pdfrwt beam="2">  1       21 0.25509918E-01 0.37845880E+03</pdfrwt>
<totfact> 0.12069987E+05</totfact>
</mgrwt>
</event>
<event>
 8    1  0.9123825E-006  0.3261842E+03  0.7546771E-02  0.1072838E+00
         21   -1    0    0  504  503  0.00000000000E+00  0.00000000000E+00  0.13391095868E+04  0.13391095868E+04  0.00000000000E+00 0.  1.
         21   -1    0    0  503  504 -0.00000000000E+00 -0.00000000000E+00 -0.19863224962E+02  0.19863224962E+02  0.00000000000E+00 0.  1.
         25    2    1    2    0    0 -0.20018913004E+02 -0.19100949927E+02  0.10805597117E+04  0.10881173478E+04  0.12499787583E+03 0.  0.
         25    2    1    2    0    0  0.20018913004E+02  0.19100949927E+02  0.23868665010E+03  0.27085546388E+03  0.12500304881E+03 0.  0.
          5    1    3    3  501    0 -0.38221033588E+02  0.32166323676E+02  0.21256404138E+03  0.21840577253E+03  0.47000000000E+01 0.  1.
         -5    1    3    3    0  501  0.18202120583E+02 -0.51267273603E+02  0.86799567031E+03  0.86971157530E+03  0.47000000000E+01 0.  1.
          5    1    4    4  502    0  0.24887078159E+02  0.68261758618E+02  0.10106516592E+03  0.12456039543E+03  0.47000000000E+01 0. -1.
         -5    1    4    4    0  502 -0.48681651543E+01 -0.49160808692E+02  0.13762148419E+03  0.14629506845E+03  0.47000000000E+01 0. -1.
<mgrwt>
<rscale>  0 0.32618421E+03</rscale>
<asrwt>0</asrwt>
<pdfrwt beam="1">  1       21 0.20601679E+00 0.32618421E+03</pdfrwt>
<pdfrwt beam="2">  1       21 0.30558818E-02 0.32618421E+03</pdfrwt>
<totfact> 0.70609280E+04</totfact>
</mgrwt>
</event>
<event>
 8    1  0.9123825E-006  0.2617614E+03  0.7546771E-02  0.1106090E+00
         21   -1    0    0  504  503  0.00000000000E+00  0.00000000000E+00  0.46741858569E+02  0.46741858569E+02  0.00000000000E+00 0.  1.
         21   -1    0    0  503  504 -0.00000000000E+00 -0.00000000000E+00 -0.36647582696E+03  0.36647582696E+03  0.00000000000E+00 0.  1.
         25    2    1    2    0    0  0.22633316023E+02 -0.18782959387E+02 -0.19978551752E+03  0.23749602471E+03  0.12500016874E+03 0.  0.
         25    2    1    2    0    0 -0.22633316023E+02  0.18782959387E+02 -0.11994845087E+03  0.17572166082E+03  0.12500161862E+03 0.  0.
          5    1    3    3  501    0  0.30473145039E+01 -0.28172414912E+02 -0.21076178170E+03  0.21271010722E+03  0.47000000000E+01 0. -1.
         -5    1    3    3    0  501  0.19586001519E+02  0.93894555251E+01  0.10976264179E+02  0.24785917492E+02  0.47000000000E+01 0. -1.
          5    1    4    4  502    0  0.34181722039E+02 -0.18517715051E+02 -0.95709785895E+02  0.10341058460E+03  0.47000000000E+01 0. -1.
         -5    1    4    4    0  502 -0.56815038062E+02  0.37300674438E+02 -0.24238664977E+02  0.72311076216E+02  0.47000000000E+01 0. -1.
<mgrwt>
<rscale>  0 0.26176143E+03</rscale>
<asrwt>0</asrwt>
<pdfrwt beam="1">  1       21 0.71910552E-02 0.26176143E+03</pdfrwt>
<pdfrwt beam="2">  1       21 0.56380896E-01 0.26176143E+03</pdfrwt>
<totfact> 0.42084980E+05</totfact>
</mgrwt>
</event>
<event>
 8    1  0.9123825E-006  0.2612397E+03  0.7546771E-02  0.1106401E+00
         21   -1    0    0  504  503  0.00000000000E+00  0.00000000000E+00  0.13843142713E+03  0.13843142713E+03  0.00000000000E+00 0.  1.
         21   -1    0    0  503  504 -0.00000000000E+00 -0.00000000000E+00 -0.12324906619E+03  0.12324906619E+03  0.00000000000E+00 0.  1.
         25    2    1    2    0    0 -0.31197186534E+02 -0.76973045682E+01 -0.12633886728E+02  0.12965389784E+03  0.12497201761E+03 0.  0.
         25    2    1    2    0    0  0.31197186534E+02  0.76973045682E+01  0.27816247665E+02  0.13202659548E+03  0.12499906133E+03 0.  0.
          5    1    3    3  501    0 -0.78938531522E+02 -0.12761021129E+02 -0.13483279629E+01  0.80112691925E+02  0.47000000000E+01 0. -1.
         -5    1    3    3    0  501  0.47741344988E+02  0.50637165605E+01 -0.11285558765E+02  0.49541205913E+02  0.47000000000E+01 0. -1.
          5    1    4    4  502    0  0.48091763551E+02 -0.44939487064E+02 -0.72614795844E+01  0.66386702771E+02  0.47000000000E+01 0.  1.
         -5    1    4    4    0  502 -0.16894577017E+02  0.52636791632E+02  0.35077727249E+02  0.65639892709E+02  0.47000000000E+01 0.  1.
<mgrwt>
<rscale>  0 0.26123969E+03</rscale>
<asrwt>0</asrwt>
<pdfrwt beam="1">  1       21 0.21297143E-01 0.26123969E+03</pdfrwt>
<pdfrwt beam="2">  1       21 0.18961395E-01 0.26123969E+03</pdfrwt>
<totfact> 0.51641641E+05</totfact>
</mgrwt>
</event>
<event>
 8    1  0.9123825E-006  0.3382584E+03  0.7546771E-02  0.1067540E+00
         21   -1    0    0  504  503  0.00000000000E+00  0.00000000000E+00  0.32013796359E+03  0.32013796359E+03  0.00000000000E+00 0.  1.
         21   -1    0    0  503  504 -0.00000000000E+00 -0.00000000000E+00 -0.89351142856E+02  0.89351142856E+02  0.00000000000E+00 0.  1.
         25    2    1    2    0    0 -0.27752509144E+02  0.50051467864E+02  0.23464973790E+03  0.27195827959E+03  0.12500182056E+03 0.  0.
         25    2    1    2    0    0  0.27752509144E+02 -0.50051467864E+02 -0.38629171621E+01  0.13753082685E+03  0.12499782001E+03 0.  0.
          5    1    3    3  501    0  0.25741555341E+02 -0.30802633935E+02  0.68494805156E+02  0.79530234893E+02  0.47000000000E+01 0.  1.
         -5    1    3    3    0  501 -0.53494064485E+02  0.80854101798E+02  0.16615493274E+03  0.19242804470E+03  0.47000000000E+01 0.  1.
          5    1    4    4  502    0 -0.44044258144E+02 -0.45449543059E+02  0.96042952152E+01  0.64186370254E+02  0.47000000000E+01 0. -1.
         -5    1    4    4    0  502  0.71796767288E+02 -0.46019248043E+01 -0.13467212377E+02  0.73344456601E+02  0.47000000000E+01 0. -1.
<mgrwt>
<rscale>  0 0.33825844E+03</rscale>
<asrwt>0</asrwt>
<pdfrwt beam="1">  1       21 0.49251994E-01 0.33825844E+03</pdfrwt>
<pdfrwt beam="2">  1       21 0.13746330E-01 0.33825844E+03</pdfrwt>
<totfact> 0.17378775E+05</totfact>
</mgrwt>
</event>
<event>
 8    1  0.9123825E-006  0.4165507E+03  0.7546771E-02  0.1038195E+00
         21   -1    0    0  504  503  0.00000000000E+00  0.00000000000E+00  0.81004300692E+02  0.81004300692E+02  0.00000000000E+00 0. -1.
         21   -1    0    0  503  504 -0.00000000000E+00 -0.00000000000E+00 -0.53551007724E+03  0.53551007724E+03  0.00000000000E+00 0. -1.
         25    2    1    2    0    0  0.44498842778E+02 -0.60754676261E+02 -0.44720225729E+03  0.47040946815E+03  0.12499572434E+03 0.  0.
         25    2    1    2    0    0 -0.44498842778E+02  0.60754676261E+02 -0.73035192594E+01  0.14610490978E+03  0.12498810173E+03 0.  0.
          5    1    3    3  501    0  0.24594273771E+02  0.33320856166E+02 -0.21564616362E+03  0.21963723646E+03  0.47000000000E+01 0. -1.
         -5    1    3    3    0  501  0.19904569007E+02 -0.94075532427E+02 -0.23155609367E+03  0.25077223168E+03  0.47000000000E+01 0. -1.
          5    1    4    4  502    0 -0.78147494306E+02  0.27492007924E+02 -0.36131737786E+02  0.90501015693E+02  0.47000000000E+01 0.  1.
         -5    1    4    4    0  502  0.33648651528E+02  0.33262668337E+02  0.28828218526E+02  0.55603894090E+02  0.47000000000E+01 0.  1.
<mgrwt>
<rscale>  0 0.41655069E+03</rscale>
<asrwt>0</asrwt>
<pdfrwt beam="1">  1       21 0.12462200E-01 0.41655069E+03</pdfrwt>
<pdfrwt beam="2">  1       21 0.82386170E-01 0.41655069E+03</pdfrwt>
<totfact> 0.65630070E+04</totfact>
</mgrwt>
</event>
<event>
 8    1  0.9123825E-006  0.4234967E+03  0.7546771E-02  0.1035934E+00
         21   -1    0    0  504  503  0.00000000000E+00  0.00000000000E+00  0.77959354387E+02  0.77959354387E+02  0.00000000000E+00 0.  1.
         21   -1    0    0  503  504 -0.00000000000E+00 -0.00000000000E+00 -0.57513769418E+03  0.57513769418E+03  0.00000000000E+00 0.  1.
         25    2    1    2    0    0 -0.11582125433E+03 -0.20001822401E+02 -0.43995187025E+03  0.47222623404E+03  0.12500132847E+03 0.  0.
         25    2    1    2    0    0  0.11582125433E+03  0.20001822401E+02 -0.57226469540E+02  0.18087081453E+03  0.12499898751E+03 0.  0.
          5    1    3    3  501    0  0.82761393387E+01 -0.38086027695E+02 -0.17082013650E+03  0.17527306987E+03  0.47000000000E+01 0.  1.
         -5    1    3    3    0  501 -0.12409739366E+03  0.18084205294E+02 -0.26913173376E+03  0.29695316417E+03  0.47000000000E+01 0.  1.
          5    1    4    4  502    0  0.89952193777E+02 -0.44105164610E+02 -0.47252806060E+02  0.11086740004E+03  0.47000000000E+01 0.  1.
         -5    1    4    4    0  502  0.25869060549E+02  0.64106987011E+02 -0.99736634794E+01  0.70003414492E+02  0.47000000000E+01 0.  1.
<mgrwt>
<rscale>  0 0.42349670E+03</rscale>
<asrwt>0</asrwt>
<pdfrwt beam="1">  1       21 0.11993746E-01 0.42349670E+03</pdfrwt>
<pdfrwt beam="2">  1       21 0.88482727E-01 0.42349670E+03</pdfrwt>
<totfact> 0.59462747E+04</totfact>
</mgrwt>
</event>
<event>
 8    1  0.9123825E-006  0.2558346E+03  0.7546771E-02  0.1109672E+00
         21   -1    0    0  504  503  0.00000000000E+00  0.00000000000E+00  0.23161997728E+03  0.23161997728E+03  0.00000000000E+00 0.  1.
         21   -1    0    0  503  504 -0.00000000000E+00 -0.00000000000E+00 -0.70645176409E+02  0.70645176409E+02  0.00000000000E+00 0.  1.
         25    2    1    2    0    0  0.16209225046E+02  0.14377472426E+02  0.61206528251E+02  0.14086216760E+03  0.12500584175E+03 0.  0.
         25    2    1    2    0    0 -0.16209225046E+02 -0.14377472426E+02  0.99768272616E+02  0.16140298608E+03  0.12501105953E+03 0.  0.
          5    1    3    3  501    0  0.27827707990E+01 -0.29770873184E+02  0.83923126406E+02  0.89214515911E+02  0.47000000000E+01 0. -1.
         -5    1    3    3    0  501  0.13426454247E+02  0.44148345610E+02 -0.22716598155E+02  0.51647651694E+02  0.47000000000E+01 0. -1.
          5    1    4    4  502    0 -0.61700846449E+02  0.24729685985E+02  0.54950822464E+02  0.86372650248E+02  0.47000000000E+01 0. -1.
         -5    1    4    4    0  502  0.45491621403E+02 -0.39107158411E+02  0.44817450152E+02  0.75030335832E+02  0.47000000000E+01 0. -1.
<mgrwt>
<rscale>  0 0.25583459E+03</rscale>
<asrwt>0</asrwt>
<pdfrwt beam="1">  1       21 0.35633842E-01 0.25583459E+03</pdfrwt>
<pdfrwt beam="2">  1       21 0.10868489E-01 0.25583459E+03</pdfrwt>
<totfact> 0.52526764E+05</totfact>
</mgrwt>
</event>
<event>
 8    1  0.9123825E-006  0.3892405E+03  0.7546771E-02  0.1047570E+00
         21   -1    0    0  504  503  0.00000000000E+00  0.00000000000E+00  0.27444020191E+03  0.27444020191E+03  0.00000000000E+00 0. -1.
         21   -1    0    0  503  504 -0.00000000000E+00 -0.00000000000E+00 -0.13801561222E+03  0.13801561222E+03  0.00000000000E+00 0. -1.
         25    2    1    2    0    0 -0.76837294495E+02  0.43125876386E+02 -0.59331444028E+02  0.16404122145E+03  0.12500196416E+03 0.  0.
         25    2    1    2    0    0  0.76837294495E+02 -0.43125876386E+02  0.19575603371E+03  0.24841459268E+03  0.12500229632E+03 0.  0.
          5    1    3    3  501    0 -0.46094877240E+02 -0.17219002120E+02  0.25314333164E+02  0.55535008826E+02  0.47000000000E+01 0. -1.
         -5    1    3    3    0  501 -0.30742417255E+02  0.60344878506E+02 -0.84645777192E+02  0.10850621262E+03  0.47000000000E+01 0. -1.
          5    1    4    4  502    0 -0.14704721692E+02  0.43320632710E+01  0.11825813425E+03  0.11934015221E+03  0.47000000000E+01 0. -1.
         -5    1    4    4    0  502  0.91542016188E+02 -0.47457939657E+02  0.77497899461E+02  0.12907444048E+03  0.47000000000E+01 0. -1.
<mgrwt>
<rscale>  0 0.38924045E+03</rscale>
<asrwt>0</asrwt>
<pdfrwt beam="1">  1       21 0.42221570E-01 0.38924045E+03</pdfrwt>
<pdfrwt beam="2">  1       21 0.21233171E-01 0.38924045E+03</pdfrwt>
<totfact> 0.10527624E+05</totfact>
</mgrwt>
</event>
<event>
 8    1  0.9123825E-006  0.3213169E+03  0.7546771E-02  0.1075045E+00
         21   -1    0    0  504  503  0.00000000000E+00  0.00000000000E+00  0.39032749313E+03  0.39032749313E+03  0.00000000000E+00 0.  1.
         21   -1    0    0  503  504 -0.00000000000E+00 -0.00000000000E+00 -0.66126892550E+02  0.66126892550E+02  0.00000000000E+00 0.  1.
         25    2    1    2    0    0 -0.70220469135E+02  0.24203610381E+02  0.65026677899E+02  0.15928064072E+03  0.12500049852E+03 0.  0.
         25    2    1    2    0    0  0.70220469135E+02 -0.24203610381E+02  0.25917392268E+03  0.29717374496E+03  0.12499753379E+03 0.  0.
          5    1    3    3  501    0 -0.98610627344E+02  0.44309591299E+02  0.60248575160E+02  0.12385223662E+03  0.47000000000E+01 0. -1.
         -5    1    3    3    0  501  0.28390158208E+02 -0.20105980918E+02  0.47781027391E+01  0.35428404107E+02  0.47000000000E+01 0. -1.
          5    1    4    4  502    0 -0.32612218209E+02 -0.11281185066E+02  0.31430885486E+02  0.46912817817E+02  0.47000000000E+01 0. -1.
         -5    1    4    4    0  502  0.10283268734E+03 -0.12922425315E+02  0.22774303719E+03  0.25026092714E+03  0.47000000000E+01 0. -1.
<mgrwt>
<rscale>  0 0.32131694E+03</rscale>
<asrwt>0</asrwt>
<pdfrwt beam="1">  1       21 0.60050382E-01 0.32131694E+03</pdfrwt>
<pdfrwt beam="2">  1       21 0.10173368E-01 0.32131694E+03</pdfrwt>
<totfact> 0.19669494E+05</totfact>
</mgrwt>
</event>
<event>
 8    1  0.9123825E-006  0.2981683E+03  0.7546771E-02  0.1086160E+00
         21   -1    0    0  504  503  0.00000000000E+00  0.00000000000E+00  0.14458026642E+03  0.14458026642E+03  0.00000000000E+00 0.  1.
         21   -1    0    0  503  504 -0.00000000000E+00 -0.00000000000E+00 -0.15372831264E+03  0.15372831264E+03  0.00000000000E+00 0.  1.
         25    2    1    2    0    0 -0.14629929239E+02  0.71951928463E+02 -0.39378451416E+02  0.15022297410E+03  0.12500065868E+03 0.  0.
         25    2    1    2    0    0  0.14629929239E+02 -0.71951928463E+02  0.30230405192E+02  0.14808560497E+03  0.12499741662E+03 0.  0.
          5    1    3    3  501    0 -0.38472575866E+02 -0.18967531817E+02  0.94874524972E+01  0.44181535870E+02  0.47000000000E+01 0.  1.
         -5    1    3    3    0  501  0.23842646626E+02  0.90919460280E+02 -0.48865903913E+02  0.10604143823E+03  0.47000000000E+01 0.  1.
          5    1    4    4  502    0 -0.50286177878E+02 -0.39269883075E+01  0.13931771338E+02  0.52538606523E+02  0.47000000000E+01 0.  1.
         -5    1    4    4    0  502  0.64916107118E+02 -0.68024940155E+02  0.16298633854E+02  0.95546998445E+02  0.47000000000E+01 0.  1.
<mgrwt>
<rscale>  0 0.29816828E+03</rscale>
<asrwt>0</asrwt>
<pdfrwt beam="1">  1       21 0.22243118E-01 0.29816828E+03</pdfrwt>
<pdfrwt beam="2">  1       21 0.23650510E-01 0.29816828E+03</pdfrwt>
<totfact> 0.31076953E+05</totfact>
</mgrwt>
</event>
<event>
 8    1  0.9123825E-006  0.2666987E+03  0.7546771E-02  0.1103184E+00
         21   -1    0    0  504  503  0.00000000000E+00  0.00000000000E+00  0.55097804453E+02  0.55097804453E+02  0.00000000000E+00 0.  1.
         21   -1    0    0  503  504 -0.00000000000E+00 -0.00000000000E+00 -0.32273616472E+03  0.32273616472E+03  0.00000000000E+00 0.  1.
         25    2    1    2    0    0 -0.26736947746E+02 -0.24290857181E+02 -0.17537281826E+03  0.21836938323E+03  0.12499860812E+03 0.  0.
         25    2    1    2    0    0  0.26736947746E+02  0.24290857181E+02 -0.92265542013E+02  0.15946458594E+03  0.12494444289E+03 0.  0.
          5    1    3    3  501    0  0.47772663715E+02  0.71278705993E+01 -0.55891265673E+02  0.74019980520E+02  0.47000000000E+01 0. -1.
         -5    1    3    3    0  501 -0.74509611461E+02 -0.31418727781E+02 -0.11948155259E+03  0.14434940271E+03  0.47000000000E+01 0. -1.
          5    1    4    4  502    0  0.23660961028E+02  0.67570332556E+02 -0.19057878094E+02  0.74235326065E+02  0.47000000000E+01 0.  1.
         -5    1    4    4    0  502  0.30759867182E+01 -0.43279475375E+02 -0.73207663920E+02  0.85229259879E+02  0.47000000000E+01 0.  1.
<mgrwt>
<rscale>  0 0.26669874E+03</rscale>
<asrwt>0</asrwt>
<pdfrwt beam="1">  1       21 0.84765853E-02 0.26669874E+03</pdfrwt>
<pdfrwt beam="2">  1       21 0.49651718E-01 0.26669874E+03</pdfrwt>
<totfact> 0.41273702E+05</totfact>
</mgrwt>
</event>
<event>
 8    1  0.9123825E-006  0.3227869E+03  0.7546771E-02  0.1074374E+00
         21   -1    0    0  504  503  0.00000000000E+00  0.00000000000E+00  0.87866856687E+03  0.87866856687E+03  0.00000000000E+00 0. -1.
         21   -1    0    0  503  504 -0.00000000000E+00 -0.00000000000E+00 -0.29644668192E+02  0.29644668192E+02  0.00000000000E+00 0. -1.
         25    2    1    2    0    0 -0.13251317402E+01  0.84587966005E+02  0.26369280767E+03  0.30383463062E+03  0.12499882391E+03 0.  0.
         25    2    1    2    0    0  0.13251317402E+01 -0.84587966005E+02  0.58533109100E+03  0.60447860444E+03  0.12500006864E+03 0.  0.
          5    1    3    3  501    0 -0.55549958096E+02  0.41268139332E+02  0.19107328610E+03  0.20327308683E+03  0.47000000000E+01 0.  1.
         -5    1    3    3    0  501  0.54224826356E+02  0.43319826673E+02  0.72619521571E+02  0.10056154379E+03  0.47000000000E+01 0.  1.
          5    1    4    4  502    0 -0.41346488070E+02 -0.13076682796E+02  0.38520841448E+03  0.38767014883E+03  0.47000000000E+01 0. -1.
         -5    1    4    4    0  502  0.42671619810E+02 -0.71511283209E+02  0.20012267652E+03  0.21680845560E+03  0.47000000000E+01 0. -1.
<mgrwt>
<rscale>  0 0.32278685E+03</rscale>
<asrwt>0</asrwt>
<pdfrwt beam="1">  1       21 0.13517976E+00 0.32278685E+03</pdfrwt>
<pdfrwt beam="2">  1       21 0.45607188E-02 0.32278685E+03</pdfrwt>
<totfact> 0.11735393E+05</totfact>
</mgrwt>
</event>
<event>
 8    1  0.9123825E-006  0.3188034E+03  0.7546771E-02  0.1076201E+00
         21   -1    0    0  504  503  0.00000000000E+00  0.00000000000E+00  0.19447487650E+03  0.19447487650E+03  0.00000000000E+00 0. -1.
         21   -1    0    0  503  504 -0.00000000000E+00 -0.00000000000E+00 -0.13065393002E+03  0.13065393002E+03  0.00000000000E+00 0. -1.
         25    2    1    2    0    0 -0.49712305815E+01 -0.89666891261E+02  0.74227964616E+02  0.17086086428E+03  0.12497511628E+03 0.  0.
         25    2    1    2    0    0  0.49712305815E+01  0.89666891261E+02 -0.10407018135E+02  0.15426794224E+03  0.12500170980E+03 0.  0.
          5    1    3    3  501    0 -0.24906697121E+02 -0.16407664613E+02 -0.29511578621E+02  0.42220590857E+02  0.47000000000E+01 0. -1.
         -5    1    3    3    0  501  0.19935466540E+02 -0.73259226648E+02  0.10373954324E+03  0.12864027342E+03  0.47000000000E+01 0. -1.
          5    1    4    4  502    0 -0.32099340107E+02  0.12502114530E+02  0.41425301660E+02  0.54081569140E+02  0.47000000000E+01 0.  1.
         -5    1    4    4    0  502  0.37070570689E+02  0.77164776731E+02 -0.51832319795E+02  0.10018637310E+03  0.47000000000E+01 0.  1.
<mgrwt>
<rscale>  0 0.31880343E+03</rscale>
<asrwt>0</asrwt>
<pdfrwt beam="1">  1       21 0.29919212E-01 0.31880343E+03</pdfrwt>
<pdfrwt beam="2">  1       21 0.20100605E-01 0.31880343E+03</pdfrwt>
<totfact> 0.23752833E+05</totfact>
</mgrwt>
</event>
<event>
 8    1  0.9123825E-006  0.3070496E+03  0.7546771E-02  0.1081769E+00
         21   -1    0    0  504  503  0.00000000000E+00  0.00000000000E+00  0.74510009744E+03  0.74510009744E+03  0.00000000000E+00 0.  1.
         21   -1    0    0  503  504 -0.00000000000E+00 -0.00000000000E+00 -0.31633150847E+02  0.31633150847E+02  0.00000000000E+00 0.  1.
         25    2    1    2    0    0  0.47111204915E+02  0.58012713606E+02  0.23385657589E+03  0.27549852593E+03  0.12500239652E+03 0.  0.
         25    2    1    2    0    0 -0.47111204915E+02 -0.58012713606E+02  0.47961037070E+03  0.50123472235E+03  0.12500079455E+03 0.  0.
          5    1    3    3  501    0  0.11671998829E+02  0.64067855500E+02  0.22993855269E+03  0.23902877165E+03  0.47000000000E+01 0. -1.
         -5    1    3    3    0  501  0.35439206086E+02 -0.60551418939E+01  0.39180231978E+01  0.36469754279E+02  0.47000000000E+01 0. -1.
          5    1    4    4  502    0  0.37118326919E+02 -0.25581423415E+02  0.25718463250E+03  0.26114785967E+03  0.47000000000E+01 0.  1.
         -5    1    4    4    0  502 -0.84229531834E+02 -0.32431290191E+02  0.22242573820E+03  0.24008686268E+03  0.47000000000E+01 0.  1.
<mgrwt>
<rscale>  0 0.30704960E+03</rscale>
<asrwt>0</asrwt>
<pdfrwt beam="1">  1       21 0.11463077E+00 0.30704960E+03</pdfrwt>
<pdfrwt beam="2">  1       21 0.48666392E-02 0.30704960E+03</pdfrwt>
<totfact> 0.16028449E+05</totfact>
</mgrwt>
</event>
<event>
 8    1  0.9123825E-006  0.2799741E+03  0.7546771E-02  0.1095703E+00
         21   -1    0    0  504  503  0.00000000000E+00  0.00000000000E+00  0.40633256391E+02  0.40633256391E+02  0.00000000000E+00 0. -1.
         21   -1    0    0  503  504 -0.00000000000E+00 -0.00000000000E+00 -0.48227431124E+03  0.48227431124E+03  0.00000000000E+00 0. -1.
         25    2    1    2    0    0  0.13453644498E+02  0.43103587885E+02 -0.13891256717E+03  0.19225344665E+03  0.12500306633E+03 0.  0.
         25    2    1    2    0    0 -0.13453644498E+02 -0.43103587885E+02 -0.30272848768E+03  0.33065412098E+03  0.12509472663E+03 0.  0.
          5    1    3    3  501    0 -0.28845406964E+02 -0.76301872423E-01 -0.12718689848E+03  0.13050157267E+03  0.47000000000E+01 0. -1.
         -5    1    3    3    0  501  0.42299051462E+02  0.43179889757E+02 -0.11725668696E+02  0.61751873983E+02  0.47000000000E+01 0. -1.
          5    1    4    4  502    0 -0.11041887208E+02 -0.83328574674E+02 -0.25204049540E+03  0.26572932836E+03  0.47000000000E+01 0. -1.
         -5    1    4    4    0  502 -0.24117572903E+01  0.40224986788E+02 -0.50687992277E+02  0.64924792617E+02  0.47000000000E+01 0. -1.
<mgrwt>
<rscale>  0 0.27997411E+03</rscale>
<asrwt>0</asrwt>
<pdfrwt beam="1">  1       21 0.62512705E-02 0.27997411E+03</pdfrwt>
<pdfrwt beam="2">  1       21 0.74196044E-01 0.27997411E+03</pdfrwt>
<totfact> 0.29268118E+05</totfact>
</mgrwt>
</event>
<event>
 8    1  0.9123825E-006  0.3416210E+03  0.7546771E-02  0.1066108E+00
         21   -1    0    0  504  503  0.00000000000E+00  0.00000000000E+00  0.36810579088E+02  0.36810579088E+02  0.00000000000E+00 0. -1.
         21   -1    0    0  503  504 -0.00000000000E+00 -0.00000000000E+00 -0.79260451020E+03  0.79260451020E+03  0.00000000000E+00 0. -1.
         25    2    1    2    0    0  0.10209029688E+03 -0.38341364069E+02 -0.27908376263E+03  0.32466726272E+03  0.12501438319E+03 0.  0.
         25    2    1    2    0    0 -0.10209029688E+03  0.38341364069E+02 -0.47671016848E+03  0.50474782656E+03  0.12500117908E+03 0.  0.
          5    1    3    3  501    0  0.76316176417E+01  0.38178699784E+02 -0.10670355196E+03  0.11368198057E+03  0.47000000000E+01 0.  1.
         -5    1    3    3    0  501  0.94458679237E+02 -0.76520063853E+02 -0.17238021067E+03  0.21098528215E+03  0.47000000000E+01 0.  1.
          5    1    4    4  502    0 -0.11870149593E+03  0.61369145726E+02 -0.42538282065E+03  0.44590228895E+03  0.47000000000E+01 0.  1.
         -5    1    4    4    0  502  0.16611199051E+02 -0.23027781657E+02 -0.51327347829E+02  0.58845537614E+02  0.47000000000E+01 0.  1.
<mgrwt>
<rscale>  0 0.34162102E+03</rscale>
<asrwt>0</asrwt>
<pdfrwt beam="1">  1       21 0.56631655E-02 0.34162102E+03</pdfrwt>
<pdfrwt beam="2">  1       21 0.12193917E+00 0.34162102E+03</pdfrwt>
<totfact> 0.10484330E+05</totfact>
</mgrwt>
</event>
<event>
 8    1  0.9123825E-006  0.3641677E+03  0.7546771E-02  0.1056946E+00
         21   -1    0    0  504  503  0.00000000000E+00  0.00000000000E+00  0.39385336935E+02  0.39385336935E+02  0.00000000000E+00 0. -1.
         21   -1    0    0  503  504 -0.00000000000E+00 -0.00000000000E+00 -0.84179863206E+03  0.84179863206E+03  0.00000000000E+00 0. -1.
         25    2    1    2    0    0  0.20817334532E+02 -0.36107017770E+02 -0.97138941533E+02  0.16370568165E+03  0.12500599224E+03 0.  0.
         25    2    1    2    0    0 -0.20817334532E+02  0.36107017770E+02 -0.70527435359E+03  0.71747828734E+03  0.12500440321E+03 0.  0.
          5    1    3    3  501    0  0.98399195017E+01 -0.58012309767E+02 -0.11750614352E+03  0.13149918580E+03  0.47000000000E+01 0. -1.
         -5    1    3    3    0  501  0.10977415031E+02  0.21905291997E+02  0.20367201992E+02  0.32206495854E+02  0.47000000000E+01 0. -1.
          5    1    4    4  502    0 -0.34404091411E+02 -0.40770766376E+02 -0.28348763963E+03  0.28850169622E+03  0.47000000000E+01 0.  1.
         -5    1    4    4    0  502  0.13586756879E+02  0.76877784146E+02 -0.42178671396E+03  0.42897659112E+03  0.47000000000E+01 0.  1.
<mgrwt>
<rscale>  0 0.36416767E+03</rscale>
<asrwt>0</asrwt>
<pdfrwt beam="1">  1       21 0.60592831E-02 0.36416767E+03</pdfrwt>
<pdfrwt beam="2">  1       21 0.12950747E+00 0.36416767E+03</pdfrwt>
<totfact> 0.79474140E+04</totfact>
</mgrwt>
</event>
<event>
 8    1  0.9123825E-006  0.2633330E+03  0.7546771E-02  0.1105157E+00
         21   -1    0    0  504  503  0.00000000000E+00  0.00000000000E+00  0.25389348932E+02  0.25389348932E+02  0.00000000000E+00 0.  1.
         21   -1    0    0  503  504 -0.00000000000E+00 -0.00000000000E+00 -0.68280888051E+03  0.68280888051E+03  0.00000000000E+00 0.  1.
         25    2    1    2    0    0 -0.62938198038E+00  0.37411204223E+02 -0.37579272962E+03  0.39779919614E+03  0.12499612192E+03 0.  0.
         25    2    1    2    0    0  0.62938198038E+00 -0.37411204223E+02 -0.28162680196E+03  0.31039903330E+03  0.12503563479E+03 0.  0.
          5    1    3    3  501    0  0.24933304571E+02  0.75485305408E+02 -0.28578108590E+03  0.29666920984E+03  0.47000000000E+01 0. -1.
         -5    1    3    3    0  501 -0.25562686551E+02 -0.38074101185E+02 -0.90011643714E+02  0.10112998630E+03  0.47000000000E+01 0. -1.
          5    1    4    4  502    0  0.10837193346E+02 -0.39364135040E+01 -0.27398886499E+03  0.27427163223E+03  0.47000000000E+01 0. -1.
         -5    1    4    4    0  502 -0.10207811365E+02 -0.33474790719E+02 -0.76379369722E+01  0.36127401066E+02  0.47000000000E+01 0. -1.
<mgrwt>
<rscale>  0 0.26333304E+03</rscale>
<asrwt>0</asrwt>
<pdfrwt beam="1">  1       21 0.39060541E-02 0.26333304E+03</pdfrwt>
<pdfrwt beam="2">  1       21 0.10504751E+00 0.26333304E+03</pdfrwt>
<totfact> 0.29160496E+05</totfact>
</mgrwt>
</event>
<event>
 8    1  0.9123825E-006  0.2829350E+03  0.7546771E-02  0.1094097E+00
         21   -1    0    0  504  503  0.00000000000E+00  0.00000000000E+00  0.12637287225E+02  0.12637287225E+02  0.00000000000E+00 0. -1.
         21   -1    0    0  503  504 -0.00000000000E+00 -0.00000000000E+00 -0.15836506721E+04  0.15836506721E+04  0.00000000000E+00 0. -1.
         25    2    1    2    0    0 -0.25974449138E+02  0.37463397586E+02 -0.51415974691E+03  0.53109208687E+03  0.12498152357E+03 0.  0.
         25    2    1    2    0    0  0.25974449138E+02 -0.37463397586E+02 -0.10568536379E+04  0.10651958724E+04  0.12499782572E+03 0.  0.
          5    1    3    3  501    0  0.14184307909E+01  0.76911425879E+02 -0.22254435814E+03  0.23551106284E+03  0.47000000000E+01 0. -1.
         -5    1    3    3    0  501 -0.27392879929E+02 -0.39448028294E+02 -0.29161538876E+03  0.29558102404E+03  0.47000000000E+01 0. -1.
          5    1    4    4  502    0 -0.23511230671E+02 -0.27398806064E+02 -0.89140645016E+03  0.89214966341E+03  0.47000000000E+01 0.  1.
         -5    1    4    4    0  502  0.49485679809E+02 -0.10064591521E+02 -0.16544718778E+03  0.17304620901E+03  0.47000000000E+01 0.  1.
<mgrwt>
<rscale>  0 0.28293496E+03</rscale>
<asrwt>0</asrwt>
<pdfrwt beam="1">  1       21 0.19441974E-02 0.28293496E+03</pdfrwt>
<pdfrwt beam="2">  1       21 0.24363864E+00 0.28293496E+03</pdfrwt>
<totfact> 0.88608407E+04</totfact>
</mgrwt>
</event>
<event>
 8    1  0.9123825E-006  0.3138149E+03  0.7546771E-02  0.1078532E+00
         21   -1    0    0  504  503  0.00000000000E+00  0.00000000000E+00  0.74359455856E+02  0.74359455856E+02  0.00000000000E+00 0.  1.
         21   -1    0    0  503  504 -0.00000000000E+00 -0.00000000000E+00 -0.33109373308E+03  0.33109373308E+03  0.00000000000E+00 0.  1.
         25    2    1    2    0    0  0.63456472285E+01  0.36975501815E+02 -0.24089000863E+03  0.27397084121E+03  0.12499828239E+03 0.  0.
         25    2    1    2    0    0 -0.63456472285E+01 -0.36975501815E+02 -0.15844268588E+02  0.13148234773E+03  0.12501644669E+03 0.  0.
          5    1    3    3  501    0 -0.26666588012E+02  0.63300423011E+02 -0.21120459749E+03  0.22214302255E+03  0.47000000000E+01 0.  1.
         -5    1    3    3    0  501  0.33012235241E+02 -0.26324921196E+02 -0.29685411146E+02  0.51827818654E+02  0.47000000000E+01 0.  1.
          5    1    4    4  502    0  0.35867468126E+02 -0.68511312363E+02 -0.63381489345E+01  0.77733759226E+02  0.47000000000E+01 0.  1.
         -5    1    4    4    0  502 -0.42213115354E+02  0.31535810549E+02 -0.95061196539E+01  0.53748588500E+02  0.47000000000E+01 0.  1.
<mgrwt>
<rscale>  0 0.31381491E+03</rscale>
<asrwt>0</asrwt>
<pdfrwt beam="1">  1       21 0.11439917E-01 0.31381491E+03</pdfrwt>
<pdfrwt beam="2">  1       21 0.50937496E-01 0.31381491E+03</pdfrwt>
<totfact> 0.22712356E+05</totfact>
</mgrwt>
</event>
<event>
 8    1  0.9123825E-006  0.3881886E+03  0.7546771E-02  0.1047948E+00
         21   -1    0    0  504  503  0.00000000000E+00  0.00000000000E+00  0.90622501151E+02  0.90622501151E+02  0.00000000000E+00 0.  1.
         21   -1    0    0  503  504 -0.00000000000E+00 -0.00000000000E+00 -0.41570909823E+03  0.41570909823E+03  0.00000000000E+00 0.  1.
         25    2    1    2    0    0 -0.14341684180E+03  0.24388263553E+02 -0.12375959635E+03  0.22826395513E+03  0.12499927045E+03 0.  0.
         25    2    1    2    0    0  0.14341684180E+03 -0.24388263553E+02 -0.20132700072E+03  0.27806764424E+03  0.12500350252E+03 0.  0.
          5    1    3    3  501    0 -0.45884205123E+02 -0.48964181907E+02 -0.61671075013E+02  0.91259316690E+02  0.47000000000E+01 0.  1.
         -5    1    3    3    0  501 -0.97532636681E+02  0.73352445460E+02 -0.62088521340E+02  0.13700463844E+03  0.47000000000E+01 0.  1.
          5    1    4    4  502    0  0.10992031057E+03  0.29384950315E+02 -0.74103167725E+02  0.13586507810E+03  0.47000000000E+01 0. -1.
         -5    1    4    4    0  502  0.33496531233E+02 -0.53773213868E+02 -0.12722383300E+03  0.14220256614E+03  0.47000000000E+01 0. -1.
<mgrwt>
<rscale>  0 0.38818860E+03</rscale>
<asrwt>0</asrwt>
<pdfrwt beam="1">  1       21 0.13941923E-01 0.38818860E+03</pdfrwt>
<pdfrwt beam="2">  1       21 0.63955245E-01 0.38818860E+03</pdfrwt>
<totfact> 0.95363542E+04</totfact>
</mgrwt>
</event>
<event>
 8    1  0.9123825E-006  0.5375289E+03  0.7546771E-02  0.1004422E+00
         21   -1    0    0  504  503  0.00000000000E+00  0.00000000000E+00  0.88195674853E+02  0.88195674853E+02  0.00000000000E+00 0. -1.
         21   -1    0    0  503  504 -0.00000000000E+00 -0.00000000000E+00 -0.81902348814E+03  0.81902348814E+03  0.00000000000E+00 0. -1.
         25    2    1    2    0    0  0.20296502007E+03  0.12412547606E+03 -0.36981095137E+03  0.45715082424E+03  0.12499921267E+03 0.  0.
         25    2    1    2    0    0 -0.20296502007E+03 -0.12412547606E+03 -0.36101686192E+03  0.45006833876E+03  0.12500560703E+03 0.  0.
          5    1    3    3  501    0  0.79789669495E+02  0.84769221527E+02 -0.84674910476E+02  0.14402827063E+03  0.47000000000E+01 0. -1.
         -5    1    3    3    0  501  0.12317535057E+03  0.39356254531E+02 -0.28513604090E+03  0.31312255361E+03  0.47000000000E+01 0. -1.
          5    1    4    4  502    0 -0.92207610564E+02  0.12005804821E+02 -0.11961907252E+03  0.15158230538E+03  0.47000000000E+01 0. -1.
         -5    1    4    4    0  502 -0.11075740950E+03 -0.13613128088E+03 -0.24139778940E+03  0.29848603337E+03  0.47000000000E+01 0. -1.
<mgrwt>
<rscale>  0 0.53752890E+03</rscale>
<asrwt>0</asrwt>
<pdfrwt beam="1">  1       21 0.13568565E-01 0.53752890E+03</pdfrwt>
<pdfrwt beam="2">  1       21 0.12600361E+00 0.53752890E+03</pdfrwt>
<totfact> 0.19318139E+04</totfact>
</mgrwt>
</event>
<event>
 8    1  0.9123825E-006  0.4334324E+03  0.7546771E-02  0.1032781E+00
         21   -1    0    0  504  503  0.00000000000E+00  0.00000000000E+00  0.66198825565E+02  0.66198825565E+02  0.00000000000E+00 0. -1.
         21   -1    0    0  503  504 -0.00000000000E+00 -0.00000000000E+00 -0.70946751624E+03  0.70946751624E+03  0.00000000000E+00 0. -1.
         25    2    1    2    0    0  0.70002556782E+02 -0.12288314662E+03 -0.51224196060E+03  0.54590967960E+03  0.12499970562E+03 0.  0.
         25    2    1    2    0    0 -0.70002556782E+02  0.12288314662E+03 -0.13102673008E+03  0.22975666221E+03  0.12497797467E+03 0.  0.
          5    1    3    3  501    0  0.75737436178E+02 -0.11576153221E+03 -0.26965772939E+03  0.30310769142E+03  0.47000000000E+01 0. -1.
         -5    1    3    3    0  501 -0.57348793959E+01 -0.71216144137E+01 -0.24258423121E+03  0.24280198818E+03  0.47000000000E+01 0. -1.
          5    1    4    4  502    0 -0.89573023852E+02  0.31903531946E+02 -0.73231456438E+02  0.12010869313E+03  0.47000000000E+01 0. -1.
         -5    1    4    4    0  502  0.19570467070E+02  0.90979614678E+02 -0.57795273643E+02  0.10964796908E+03  0.47000000000E+01 0. -1.
<mgrwt>
<rscale>  0 0.43343242E+03</rscale>
<asrwt>0</asrwt>
<pdfrwt beam="1">  1       21 0.10184434E-01 0.43343242E+03</pdfrwt>
<pdfrwt beam="2">  1       21 0.10914885E+00 0.43343242E+03</pdfrwt>
<totfact> 0.48025616E+04</totfact>
</mgrwt>
</event>
<event>
 8    1  0.9123825E-006  0.4252248E+03  0.7546771E-02  0.1035379E+00
         21   -1    0    0  504  503  0.00000000000E+00  0.00000000000E+00  0.16175773827E+03  0.16175773827E+03  0.00000000000E+00 0. -1.
         21   -1    0    0  503  504 -0.00000000000E+00 -0.00000000000E+00 -0.27945514787E+03  0.27945514787E+03  0.00000000000E+00 0. -1.
         25    2    1    2    0    0  0.14190920036E+03 -0.76697808099E+02  0.30504712652E+01  0.20410571051E+03  0.12501624204E+03 0.  0.
         25    2    1    2    0    0 -0.14190920036E+03  0.76697808099E+02 -0.12074788087E+03  0.23710717563E+03  0.12497594604E+03 0.  0.
          5    1    3    3  501    0  0.15720829950E+03 -0.86415750910E+02  0.17707921377E+02  0.18032690292E+03  0.47000000000E+01 0.  1.
         -5    1    3    3    0  501 -0.15299099133E+02  0.97179428117E+01 -0.14657450111E+02  0.23778807593E+02  0.47000000000E+01 0.  1.
          5    1    4    4  502    0 -0.10942851683E+03  0.28233263070E+02 -0.12176054442E+02  0.11376319150E+03  0.47000000000E+01 0.  1.
         -5    1    4    4    0  502 -0.32480683534E+02  0.48464545029E+02 -0.10857182643E+03  0.12334398413E+03  0.47000000000E+01 0.  1.
<mgrwt>
<rscale>  0 0.42522480E+03</rscale>
<asrwt>0</asrwt>
<pdfrwt beam="1">  1       21 0.24885806E-01 0.42522480E+03</pdfrwt>
<pdfrwt beam="2">  1       21 0.42993099E-01 0.42522480E+03</pdfrwt>
<totfact> 0.74132617E+04</totfact>
</mgrwt>
</event>
<event>
 8    1  0.9123825E-006  0.2740957E+03  0.7546771E-02  0.1098958E+00
         21   -1    0    0  504  503  0.00000000000E+00  0.00000000000E+00  0.53185103038E+02  0.53185103038E+02  0.00000000000E+00 0. -1.
         21   -1    0    0  503  504 -0.00000000000E+00 -0.00000000000E+00 -0.35314604628E+03  0.35314604628E+03  0.00000000000E+00 0. -1.
         25    2    1    2    0    0  0.54079842814E+02 -0.54187068872E+01 -0.12891248405E+03  0.18760548486E+03  0.12499359033E+03 0.  0.
         25    2    1    2    0    0 -0.54079842814E+02  0.54187068872E+01 -0.17104845919E+03  0.21872566445E+03  0.12501739525E+03 0.  0.
          5    1    3    3  501    0  0.23132822740E+02 -0.15654476088E+02 -0.14722407739E+03  0.14992401099E+03  0.47000000000E+01 0. -1.
         -5    1    3    3    0  501  0.30947020074E+02  0.10235769201E+02  0.18311593337E+02  0.37681473872E+02  0.47000000000E+01 0. -1.
          5    1    4    4  502    0 -0.82523856093E+02  0.37107790711E+02 -0.93933526705E+02  0.13050966399E+03  0.47000000000E+01 0. -1.
         -5    1    4    4    0  502  0.28444013279E+02 -0.31689083824E+02 -0.77114932482E+02  0.88216000458E+02  0.47000000000E+01 0. -1.
<mgrwt>
<rscale>  0 0.27409567E+03</rscale>
<asrwt>0</asrwt>
<pdfrwt beam="1">  1       21 0.81823236E-02 0.27409567E+03</pdfrwt>
<pdfrwt beam="2">  1       21 0.54330160E-01 0.27409567E+03</pdfrwt>
<totfact> 0.36251349E+05</totfact>
</mgrwt>
</event>
<event>
 8    1  0.9123825E-006  0.2538749E+03  0.7546771E-02  0.1110880E+00
         21   -1    0    0  504  503  0.00000000000E+00  0.00000000000E+00  0.13324060353E+03  0.13324060353E+03  0.00000000000E+00 0.  1.
         21   -1    0    0  503  504 -0.00000000000E+00 -0.00000000000E+00 -0.12093249453E+03  0.12093249453E+03  0.00000000000E+00 0.  1.
         25    2    1    2    0    0 -0.17566542672E+02  0.13254130462E+02  0.42590892702E+01  0.12699383350E+03  0.12500015403E+03 0.  0.
         25    2    1    2    0    0  0.17566542672E+02 -0.13254130462E+02  0.80490197327E+01  0.12717926456E+03  0.12500209286E+03 0.  0.
          5    1    3    3  501    0 -0.52842181664E+02  0.24283070370E+02 -0.38789220779E+02  0.70061810698E+02  0.47000000000E+01 0. -1.
         -5    1    3    3    0  501  0.35275638992E+02 -0.11028939908E+02  0.43048310050E+02  0.56932022798E+02  0.47000000000E+01 0. -1.
          5    1    4    4  502    0 -0.19013892016E+02  0.21758373076E+02  0.52190191935E+02  0.59840295978E+02  0.47000000000E+01 0.  1.
         -5    1    4    4    0  502  0.36580434688E+02 -0.35012503538E+02 -0.44141172203E+02  0.67338968580E+02  0.47000000000E+01 0.  1.
<mgrwt>
<rscale>  0 0.25387492E+03</rscale>
<asrwt>0</asrwt>
<pdfrwt beam="1">  1       21 0.20498554E-01 0.25387492E+03</pdfrwt>
<pdfrwt beam="2">  1       21 0.18604999E-01 0.25387492E+03</pdfrwt>
<totfact> 0.57581128E+05</totfact>
</mgrwt>
</event>
<event>
 8    1  0.9123825E-006  0.4831974E+03  0.7546771E-02  0.1018260E+00
         21   -1    0    0  504  503  0.00000000000E+00  0.00000000000E+00  0.12918178747E+04  0.12918178747E+04  0.00000000000E+00 0.  1.
         21   -1    0    0  503  504 -0.00000000000E+00 -0.00000000000E+00 -0.45184343539E+02  0.45184343539E+02  0.00000000000E+00 0.  1.
         25    2    1    2    0    0 -0.10090617003E+03 -0.17991733070E+03  0.66187322045E+03  0.70444932931E+03  0.12498158496E+03 0.  0.
         25    2    1    2    0    0  0.10090617003E+03  0.17991733070E+03  0.58476031066E+03  0.63255288888E+03  0.12500494097E+03 0.  0.
          5    1    3    3  501    0 -0.11508841310E+03 -0.91491888657E+02  0.47341661877E+03  0.49574337459E+03  0.47000000000E+01 0.  1.
         -5    1    3    3    0  501  0.14182243071E+02 -0.88425442046E+02  0.18845660168E+03  0.20870595472E+03  0.47000000000E+01 0.  1.
          5    1    4    4  502    0 -0.20735261042E+01 -0.16553058423E+02  0.68022170465E+02  0.70195505044E+02  0.47000000000E+01 0.  1.
         -5    1    4    4    0  502  0.10297969614E+03  0.19647038913E+03  0.51673814020E+03  0.56235738384E+03  0.47000000000E+01 0.  1.
<mgrwt>
<rscale>  0 0.48319744E+03</rscale>
<asrwt>0</asrwt>
<pdfrwt beam="1">  1       21 0.19874118E+00 0.48319744E+03</pdfrwt>
<pdfrwt beam="2">  1       21 0.69514384E-02 0.48319744E+03</pdfrwt>
<totfact> 0.18255560E+04</totfact>
</mgrwt>
</event>
<event>
 8    1  0.9123825E-006  0.4687319E+03  0.7546771E-02  0.1022279E+00
         21   -1    0    0  504  503  0.00000000000E+00  0.00000000000E+00  0.17429189219E+03  0.17429189219E+03  0.00000000000E+00 0. -1.
         21   -1    0    0  503  504 -0.00000000000E+00 -0.00000000000E+00 -0.31514597183E+03  0.31514597183E+03  0.00000000000E+00 0. -1.
         25    2    1    2    0    0  0.15391408156E+03  0.30959918427E+02  0.55983919943E+02  0.20834136287E+03  0.12499545247E+03 0.  0.
         25    2    1    2    0    0 -0.15391408156E+03 -0.30959918427E+02 -0.19683799958E+03  0.28109650115E+03  0.12498793471E+03 0.  0.
          5    1    3    3  501    0  0.22749525908E+01 -0.90664120868E+01  0.50256099887E+02  0.51333622639E+02  0.47000000000E+01 0.  1.
         -5    1    3    3    0  501  0.15163912897E+03  0.40026330514E+02  0.57278200567E+01  0.15700774023E+03  0.47000000000E+01 0.  1.
          5    1    4    4  502    0 -0.96876382663E+02  0.15358209093E+02 -0.36679674878E+02  0.10482555344E+03  0.47000000000E+01 0. -1.
         -5    1    4    4    0  502 -0.57037698902E+02 -0.46318127521E+02 -0.16015832471E+03  0.17627094771E+03  0.47000000000E+01 0. -1.
<mgrwt>
<rscale>  0 0.46873185E+03</rscale>
<asrwt>0</asrwt>
<pdfrwt beam="1">  1       21 0.26814137E-01 0.46873185E+03</pdfrwt>
<pdfrwt beam="2">  1       21 0.48483995E-01 0.46873185E+03</pdfrwt>
<totfact> 0.49342793E+04</totfact>
</mgrwt>
</event>
<event>
 8    1  0.9123825E-006  0.3909952E+03  0.7546771E-02  0.1046943E+00
         21   -1    0    0  504  503  0.00000000000E+00  0.00000000000E+00  0.34072246878E+02  0.34072246878E+02  0.00000000000E+00 0.  1.
         21   -1    0    0  503  504 -0.00000000000E+00 -0.00000000000E+00 -0.11217136467E+04  0.11217136467E+04  0.00000000000E+00 0.  1.
         25    2    1    2    0    0 -0.79717023951E+02 -0.47496877400E+02 -0.19419518691E+03  0.24887796287E+03  0.12497084665E+03 0.  0.
         25    2    1    2    0    0  0.79717023951E+02  0.47496877400E+02 -0.89344621295E+03  0.90690793075E+03  0.12500040860E+03 0.  0.
          5    1    3    3  501    0  0.15102009215E+01 -0.60730306335E+02 -0.13274741850E+03  0.14606306149E+03  0.47000000000E+01 0. -1.
         -5    1    3    3    0  501 -0.81227224872E+02  0.13233428935E+02 -0.61447768408E+02  0.10281490137E+03  0.47000000000E+01 0. -1.
          5    1    4    4  502    0  0.35979686949E+02 -0.32417496888E+02 -0.14551797108E+03  0.15343728975E+03  0.47000000000E+01 0.  1.
         -5    1    4    4    0  502  0.43737337001E+02  0.79914374288E+02 -0.74792824187E+03  0.75347064100E+03  0.47000000000E+01 0.  1.
<mgrwt>
<rscale>  0 0.39099516E+03</rscale>
<asrwt>0</asrwt>
<pdfrwt beam="1">  1       21 0.52418856E-02 0.39099516E+03</pdfrwt>
<pdfrwt beam="2">  1       21 0.17257128E+00 0.39099516E+03</pdfrwt>
<totfact> 0.46629193E+04</totfact>
</mgrwt>
</event>
<event>
 8    1  0.9123825E-006  0.3554259E+03  0.7546771E-02  0.1060410E+00
         21   -1    0    0  504  503  0.00000000000E+00  0.00000000000E+00  0.89850422742E+03  0.89850422742E+03  0.00000000000E+00 0.  1.
         21   -1    0    0  503  504 -0.00000000000E+00 -0.00000000000E+00 -0.35149410470E+02  0.35149410470E+02  0.00000000000E+00 0.  1.
         25    2    1    2    0    0 -0.70465276807E+02 -0.10352118567E+03  0.38809230507E+03  0.42652317506E+03  0.12499756191E+03 0.  0.
         25    2    1    2    0    0  0.70465276807E+02  0.10352118567E+03  0.47526251188E+03  0.50713046284E+03  0.12499944009E+03 0.  0.
          5    1    3    3  501    0 -0.46467158957E+02 -0.28074219055E+02  0.35303172239E+02  0.64928904251E+02  0.47000000000E+01 0.  1.
         -5    1    3    3    0  501 -0.23998117850E+02 -0.75446966618E+02  0.35278913283E+03  0.36159427080E+03  0.47000000000E+01 0.  1.
          5    1    4    4  502    0  0.58704774627E+02  0.10263897604E+03  0.20600246928E+03  0.23757128891E+03  0.47000000000E+01 0.  1.
         -5    1    4    4    0  502  0.11760502180E+02  0.88220962867E+00  0.26926004260E+03  0.26955917392E+03  0.47000000000E+01 0.  1.
<mgrwt>
<rscale>  0 0.35542591E+03</rscale>
<asrwt>0</asrwt>
<pdfrwt beam="1">  1       21 0.13823140E+00 0.35542591E+03</pdfrwt>
<pdfrwt beam="2">  1       21 0.54076023E-02 0.35542591E+03</pdfrwt>
<totfact> 0.81893549E+04</totfact>
</mgrwt>
</event>
<event>
 8    1  0.9123825E-006  0.3318106E+03  0.7546771E-02  0.1070339E+00
         21   -1    0    0  504  503  0.00000000000E+00  0.00000000000E+00  0.70712963403E+03  0.70712963403E+03  0.00000000000E+00 0.  1.
         21   -1    0    0  503  504 -0.00000000000E+00 -0.00000000000E+00 -0.38924364461E+02  0.38924364461E+02  0.00000000000E+00 0.  1.
         25    2    1    2    0    0  0.61628776397E+02 -0.22634107933E+02  0.52998507409E+03  0.54847053964E+03  0.12500138071E+03 0.  0.
         25    2    1    2    0    0 -0.61628776397E+02  0.22634107933E+02  0.13822019548E+03  0.19758345885E+03  0.12499596733E+03 0.  0.
          5    1    3    3  501    0 -0.18599233859E+02 -0.45525334172E+02  0.11510182804E+03  0.12525577181E+03  0.47000000000E+01 0. -1.
         -5    1    3    3    0  501  0.80228010256E+02  0.22891226239E+02  0.41488324604E+03  0.42321476784E+03  0.47000000000E+01 0. -1.
          5    1    4    4  502    0 -0.68530069217E+02 -0.97325546429E+01  0.16438971208E+02  0.71298126070E+02  0.47000000000E+01 0.  1.
         -5    1    4    4    0  502  0.69012928201E+01  0.32366662576E+02  0.12178122427E+03  0.12628533278E+03  0.47000000000E+01 0.  1.
<mgrwt>
<rscale>  0 0.33181062E+03</rscale>
<asrwt>0</asrwt>
<pdfrwt beam="1">  1       21 0.10878917E+00 0.33181062E+03</pdfrwt>
<pdfrwt beam="2">  1       21 0.59883643E-02 0.33181062E+03</pdfrwt>
<totfact> 0.12677681E+05</totfact>
</mgrwt>
</event>
<event>
 8    1  0.9123825E-006  0.3194679E+03  0.7546771E-02  0.1075894E+00
         21   -1    0    0  504  503  0.00000000000E+00  0.00000000000E+00  0.19024461914E+03  0.19024461914E+03  0.00000000000E+00 0. -1.
         21   -1    0    0  503  504 -0.00000000000E+00 -0.00000000000E+00 -0.13411642090E+03  0.13411642090E+03  0.00000000000E+00 0. -1.
         25    2    1    2    0    0 -0.10414033710E+02  0.83109420327E+01 -0.71991628936E+02  0.14486832086E+03  0.12500604744E+03 0.  0.
         25    2    1    2    0    0  0.10414033710E+02 -0.83109420327E+01  0.12811982717E+03  0.17949271918E+03  0.12500168905E+03 0.  0.
          5    1    3    3  501    0 -0.65062108724E+02  0.22566420668E+02 -0.38334997363E+02  0.78955578373E+02  0.47000000000E+01 0. -1.
         -5    1    3    3    0  501  0.54648075015E+02 -0.14255478635E+02 -0.33656631573E+02  0.65912742492E+02  0.47000000000E+01 0. -1.
          5    1    4    4  502    0  0.11915932426E+02  0.38780729863E+02 -0.21365305154E+01  0.40897300852E+02  0.47000000000E+01 0.  1.
         -5    1    4    4    0  502 -0.15018987165E+01 -0.47091671896E+02  0.13025635769E+03  0.13859541832E+03  0.47000000000E+01 0.  1.
<mgrwt>
<rscale>  0 0.31946785E+03</rscale>
<asrwt>0</asrwt>
<pdfrwt beam="1">  1       21 0.29268403E-01 0.31946785E+03</pdfrwt>
<pdfrwt beam="2">  1       21 0.20633296E-01 0.31946785E+03</pdfrwt>
<totfact> 0.23602763E+05</totfact>
</mgrwt>
</event>
<event>
 8    1  0.9123825E-006  0.4122577E+03  0.7546771E-02  0.1039616E+00
         21   -1    0    0  504  503  0.00000000000E+00  0.00000000000E+00  0.10381459844E+04  0.10381459844E+04  0.00000000000E+00 0.  1.
         21   -1    0    0  503  504 -0.00000000000E+00 -0.00000000000E+00 -0.40927863173E+02  0.40927863173E+02  0.00000000000E+00 0.  1.
         25    2    1    2    0    0  0.98832431296E+02 -0.12905870346E+03  0.44357970192E+03  0.48868434253E+03  0.12500174504E+03 0.  0.
         25    2    1    2    0    0 -0.98832431296E+02  0.12905870346E+03  0.55363841930E+03  0.59038950504E+03  0.12498107824E+03 0.  0.
          5    1    3    3  501    0  0.12082443097E+02 -0.10631938431E+03  0.17180734601E+03  0.20245901080E+03  0.47000000000E+01 0.  1.
         -5    1    3    3    0  501  0.86749988199E+02 -0.22739319158E+02  0.27177235590E+03  0.28622533173E+03  0.47000000000E+01 0.  1.
          5    1    4    4  502    0 -0.60701064122E+02  0.13836545817E+03  0.50798079993E+03  0.52999641725E+03  0.47000000000E+01 0.  1.
         -5    1    4    4    0  502 -0.38131367174E+02 -0.93067547112E+01  0.45657619372E+02  0.60393087788E+02  0.47000000000E+01 0.  1.
<mgrwt>
<rscale>  0 0.41225767E+03</rscale>
<asrwt>0</asrwt>
<pdfrwt beam="1">  1       21 0.15971475E+00 0.41225767E+03</pdfrwt>
<pdfrwt beam="2">  1       21 0.62965951E-02 0.41225767E+03</pdfrwt>
<totfact> 0.41907842E+04</totfact>
</mgrwt>
</event>
<event>
 8    1  0.9123825E-006  0.2972293E+03  0.7546771E-02  0.1086634E+00
         21   -1    0    0  504  503  0.00000000000E+00  0.00000000000E+00  0.15488699192E+03  0.15488699192E+03  0.00000000000E+00 0. -1.
         21   -1    0    0  503  504 -0.00000000000E+00 -0.00000000000E+00 -0.14259629903E+03  0.14259629903E+03  0.00000000000E+00 0. -1.
         25    2    1    2    0    0 -0.71286579711E+02 -0.22937567162E+02  0.35367092309E+02  0.14995356062E+03  0.12500932241E+03 0.  0.
         25    2    1    2    0    0  0.71286579711E+02  0.22937567162E+02 -0.23076399415E+02  0.14752973034E+03  0.12499837074E+03 0.  0.
          5    1    3    3  501    0 -0.64686061151E+02 -0.12079588998E+02 -0.37467913128E+02  0.75869213070E+02  0.47000000000E+01 0.  1.
         -5    1    3    3    0  501 -0.66005185595E+01 -0.10857978164E+02  0.72835005437E+02  0.74084347551E+02  0.47000000000E+01 0.  1.
          5    1    4    4  502    0 -0.11238086431E+02  0.77826792333E+01 -0.55578223824E+02  0.57427290081E+02  0.47000000000E+01 0.  1.
         -5    1    4    4    0  502  0.82524666142E+02  0.15154887928E+02  0.32501824409E+02  0.90102440254E+02  0.47000000000E+01 0.  1.
<mgrwt>
<rscale>  0 0.29722928E+03</rscale>
<asrwt>0</asrwt>
<pdfrwt beam="1">  1       21 0.23828768E-01 0.29722928E+03</pdfrwt>
<pdfrwt beam="2">  1       21 0.21937892E-01 0.29722928E+03</pdfrwt>
<totfact> 0.31455047E+05</totfact>
</mgrwt>
</event>
<event>
 8    1  0.9123825E-006  0.6103584E+03  0.7546771E-02  0.9884146E-01
         21   -1    0    0  504  503  0.00000000000E+00  0.00000000000E+00  0.17913618543E+04  0.17913618543E+04  0.00000000000E+00 0. -1.
         21   -1    0    0  503  504 -0.00000000000E+00 -0.00000000000E+00 -0.51990801553E+02  0.51990801553E+02  0.00000000000E+00 0. -1.
         25    2    1    2    0    0 -0.20971116858E+03  0.16322212033E+03  0.61903424166E+03  0.68516378185E+03  0.12500312323E+03 0.  0.
         25    2    1    2    0    0  0.20971116858E+03 -0.16322212033E+03  0.11203368111E+04  0.11581888740E+04  0.12500665102E+03 0.  0.
          5    1    3    3  501    0 -0.14326142065E+03  0.11877336115E+03  0.27603021643E+03  0.33293500318E+03  0.47000000000E+01 0. -1.
         -5    1    3    3    0  501 -0.66449747933E+02  0.44448759175E+02  0.34300402523E+03  0.35222877866E+03  0.47000000000E+01 0. -1.
          5    1    4    4  502    0  0.11955901491E+03 -0.15895741587E+03  0.85643731891E+03  0.87924330496E+03  0.47000000000E+01 0. -1.
         -5    1    4    4    0  502  0.90152153668E+02 -0.42647044587E+01  0.26389949219E+03  0.27894556905E+03  0.47000000000E+01 0. -1.
<mgrwt>
<rscale>  0 0.61035838E+03</rscale>
<asrwt>0</asrwt>
<pdfrwt beam="1">  1       21 0.27559408E+00 0.61035838E+03</pdfrwt>
<pdfrwt beam="2">  1       21 0.79985862E-02 0.61035838E+03</pdfrwt>
<totfact> 0.44636675E+03</totfact>
</mgrwt>
</event>
<event>
 8    1  0.9123825E-006  0.3229867E+03  0.7546771E-02  0.1074283E+00
         21   -1    0    0  504  503  0.00000000000E+00  0.00000000000E+00  0.33607086649E+02  0.33607086649E+02  0.00000000000E+00 0.  1.
         21   -1    0    0  503  504 -0.00000000000E+00 -0.00000000000E+00 -0.77602976591E+03  0.77602976591E+03  0.00000000000E+00 0.  1.
         25    2    1    2    0    0  0.25820388071E+02  0.40734724764E+02 -0.59723217294E+03  0.61207746135E+03  0.12500616010E+03 0.  0.
         25    2    1    2    0    0 -0.25820388071E+02 -0.40734724764E+02 -0.14519050632E+03  0.19755939121E+03  0.12499367858E+03 0.  0.
          5    1    3    3  501    0  0.73564717487E+02  0.29369568457E+02 -0.44623080247E+03  0.45323102088E+03  0.47000000000E+01 0. -1.
         -5    1    3    3    0  501 -0.47744329416E+02  0.11365156307E+02 -0.15100137046E+03  0.15884644047E+03  0.47000000000E+01 0. -1.
          5    1    4    4  502    0  0.32781767042E+02 -0.41683771035E+02 -0.15955547540E+02  0.55577428111E+02  0.47000000000E+01 0.  1.
         -5    1    4    4    0  502 -0.58602155113E+02  0.94904627095E+00 -0.12923495879E+03  0.14198196310E+03  0.47000000000E+01 0.  1.
<mgrwt>
<rscale>  0 0.32298668E+03</rscale>
<asrwt>0</asrwt>
<pdfrwt beam="1">  1       21 0.51703216E-02 0.32298668E+03</pdfrwt>
<pdfrwt beam="2">  1       21 0.11938918E+00 0.32298668E+03</pdfrwt>
<totfact> 0.13002665E+05</totfact>
</mgrwt>
</event>
<event>
 8    1  0.9123825E-006  0.2616331E+03  0.7546771E-02  0.1106166E+00
         21   -1    0    0  504  503  0.00000000000E+00  0.00000000000E+00  0.34775420160E+02  0.34775420160E+02  0.00000000000E+00 0. -1.
         21   -1    0    0  503  504 -0.00000000000E+00 -0.00000000000E+00 -0.49209952999E+03  0.49209952999E+03  0.00000000000E+00 0. -1.
         25    2    1    2    0    0  0.25895434593E+01  0.15716218949E+02 -0.15790404838E+03  0.20202079430E+03  0.12500003025E+03 0.  0.
         25    2    1    2    0    0 -0.25895434593E+01 -0.15716218949E+02 -0.29942006146E+03  0.32485415586E+03  0.12499657635E+03 0.  0.
          5    1    3    3  501    0 -0.32889252185E+02 -0.24914359717E+02 -0.75414202835E+01  0.42206530885E+02  0.47000000000E+01 0. -1.
         -5    1    3    3    0  501  0.35478795645E+02  0.40630578667E+02 -0.15036262809E+03  0.15981426341E+03  0.47000000000E+01 0. -1.
          5    1    4    4  502    0  0.31131741784E+02  0.28272623343E+02 -0.35796007948E+02  0.55425362084E+02  0.47000000000E+01 0.  1.
         -5    1    4    4    0  502 -0.33721285243E+02 -0.43988842292E+02 -0.26362405351E+03  0.26942879377E+03  0.47000000000E+01 0.  1.
<mgrwt>
<rscale>  0 0.26163309E+03</rscale>
<asrwt>0</asrwt>
<pdfrwt beam="1">  1       21 0.53500645E-02 0.26163309E+03</pdfrwt>
<pdfrwt beam="2">  1       21 0.75707622E-01 0.26163309E+03</pdfrwt>
<totfact> 0.36708577E+05</totfact>
</mgrwt>
</event>
<event>
 8    1  0.9123825E-006  0.2933505E+03  0.7546771E-02  0.1088613E+00
         21   -1    0    0  504  503  0.00000000000E+00  0.00000000000E+00  0.65200921935E+03  0.65200921935E+03  0.00000000000E+00 0.  1.
         21   -1    0    0  503  504 -0.00000000000E+00 -0.00000000000E+00 -0.32995887866E+02  0.32995887866E+02  0.00000000000E+00 0.  1.
         25    2    1    2    0    0  0.65813661910E+02 -0.24433610126E+02  0.38174687531E+03  0.40778077637E+03  0.12500418140E+03 0.  0.
         25    2    1    2    0    0 -0.65813661910E+02  0.24433610126E+02  0.23726645617E+03  0.27722433084E+03  0.12501807466E+03 0.  0.
          5    1    3    3  501    0 -0.30524116332E+02  0.14683341297E+02  0.54122136383E+02  0.64020448578E+02  0.47000000000E+01 0. -1.
         -5    1    3    3    0  501  0.96337778242E+02 -0.39116951424E+02  0.32762473893E+03  0.34376032779E+03  0.47000000000E+01 0. -1.
          5    1    4    4  502    0 -0.87138114179E+02 -0.14506823390E+02  0.20134807017E+03  0.21992415563E+03  0.47000000000E+01 0.  1.
         -5    1    4    4    0  502  0.21324452268E+02  0.38940433516E+02  0.35918385999E+02  0.57300175215E+02  0.47000000000E+01 0.  1.
<mgrwt>
<rscale>  0 0.29335046E+03</rscale>
<asrwt>0</asrwt>
<pdfrwt beam="1">  1       21 0.10030910E+00 0.29335046E+03</pdfrwt>
<pdfrwt beam="2">  1       21 0.50762909E-02 0.29335046E+03</pdfrwt>
<totfact> 0.20730554E+05</totfact>
</mgrwt>
</event>
<event>
 8    1  0.9123825E-006  0.2770524E+03  0.7546771E-02  0.1097310E+00
         21   -1    0    0  504  503  0.00000000000E+00  0.00000000000E+00  0.58058483128E+02  0.58058483128E+02  0.00000000000E+00 0.  1.
         21   -1    0    0  503  504 -0.00000000000E+00 -0.00000000000E+00 -0.33052038145E+03  0.33052038145E+03  0.00000000000E+00 0.  1.
         25    2    1    2    0    0 -0.36951682575E+01 -0.56693344233E+02 -0.11042860550E+03  0.17619218508E+03  0.12498567766E+03 0.  0.
         25    2    1    2    0    0  0.36951682575E+01  0.56693344233E+02 -0.16203329282E+03  0.21238667950E+03  0.12500209638E+03 0.  0.
          5    1    3    3  501    0  0.44358321520E+02 -0.21005719518E+02  0.13341927120E+01  0.49323128558E+02  0.47000000000E+01 0. -1.
         -5    1    3    3    0  501 -0.48053489778E+02 -0.35687624716E+02 -0.11176279821E+03  0.12686905652E+03  0.47000000000E+01 0. -1.
          5    1    4    4  502    0  0.61459672526E+02  0.33282801827E+02 -0.11296718668E+03  0.13292370560E+03  0.47000000000E+01 0. -1.
         -5    1    4    4    0  502 -0.57764504269E+02  0.23410542406E+02 -0.49066106140E+02  0.79462973899E+02  0.47000000000E+01 0. -1.
<mgrwt>
<rscale>  0 0.27705243E+03</rscale>
<asrwt>0</asrwt>
<pdfrwt beam="1">  1       21 0.89320746E-02 0.27705243E+03</pdfrwt>
<pdfrwt beam="2">  1       21 0.50849288E-01 0.27705243E+03</pdfrwt>
<totfact> 0.35721921E+05</totfact>
</mgrwt>
</event>
<event>
 8    1  0.9123825E-006  0.4842867E+03  0.7546771E-02  0.1017964E+00
         21   -1    0    0  504  503  0.00000000000E+00  0.00000000000E+00  0.42238916641E+03  0.42238916641E+03  0.00000000000E+00 0. -1.
         21   -1    0    0  503  504 -0.00000000000E+00 -0.00000000000E+00 -0.13881369110E+03  0.13881369110E+03  0.00000000000E+00 0. -1.
         25    2    1    2    0    0 -0.11617854627E+03  0.93795362981E+02  0.30858475125E+03  0.36487940011E+03  0.12496960907E+03 0.  0.
         25    2    1    2    0    0  0.11617854627E+03 -0.93795362981E+02 -0.25009275937E+02  0.19632345740E+03  0.12498964482E+03 0.  0.
          5    1    3    3  501    0 -0.50186850019E+02  0.11391970145E+03  0.21556488523E+03  0.24897133979E+03  0.47000000000E+01 0. -1.
         -5    1    3    3    0  501 -0.65991696254E+02 -0.20124338469E+02  0.93019866018E+02  0.11590806032E+03  0.47000000000E+01 0. -1.
          5    1    4    4  502    0  0.11780992432E+03 -0.85469630414E+02  0.22925370418E+02  0.14741742977E+03  0.47000000000E+01 0. -1.
         -5    1    4    4    0  502 -0.16313780479E+01 -0.83257325672E+01 -0.47934646355E+02  0.48906027627E+02  0.47000000000E+01 0. -1.
<mgrwt>
<rscale>  0 0.48428669E+03</rscale>
<asrwt>0</asrwt>
<pdfrwt beam="1">  1       21 0.64982948E-01 0.48428669E+03</pdfrwt>
<pdfrwt beam="2">  1       21 0.21355953E-01 0.48428669E+03</pdfrwt>
<totfact> 0.40498471E+04</totfact>
</mgrwt>
</event>
<event>
 8    1  0.9123825E-006  0.2674822E+03  0.7546771E-02  0.1102729E+00
         21   -1    0    0  504  503  0.00000000000E+00  0.00000000000E+00  0.85668654695E+02  0.85668654695E+02  0.00000000000E+00 0. -1.
         21   -1    0    0  503  504 -0.00000000000E+00 -0.00000000000E+00 -0.20878916510E+03  0.20878916510E+03  0.00000000000E+00 0. -1.
         25    2    1    2    0    0 -0.67748067460E+00  0.38454025652E+02 -0.30961758062E+02  0.13444127997E+03  0.12504661622E+03 0.  0.
         25    2    1    2    0    0  0.67748067460E+00 -0.38454025652E+02 -0.92158752339E+02  0.16001653982E+03  0.12503154128E+03 0.  0.
          5    1    3    3  501    0  0.58484387160E+01  0.84121053334E+02 -0.19573187603E+02  0.86693457206E+02  0.47000000000E+01 0.  1.
         -5    1    3    3    0  501 -0.65259193906E+01 -0.45667027682E+02 -0.11388570459E+02  0.47747822759E+02  0.47000000000E+01 0.  1.
          5    1    4    4  502    0  0.11492466076E+02 -0.55130454555E+02  0.86411636775E+01  0.57168203625E+02  0.47000000000E+01 0.  1.
         -5    1    4    4    0  502 -0.10814985402E+02  0.16676428903E+02 -0.10079991602E+03  0.10284833620E+03  0.47000000000E+01 0.  1.
<mgrwt>
<rscale>  0 0.26748224E+03</rscale>
<asrwt>0</asrwt>
<pdfrwt beam="1">  1       21 0.13179793E-01 0.26748224E+03</pdfrwt>
<pdfrwt beam="2">  1       21 0.32121410E-01 0.26748224E+03</pdfrwt>
<totfact> 0.45539244E+05</totfact>
</mgrwt>
</event>
<event>
 8    1  0.9123825E-006  0.2756660E+03  0.7546771E-02  0.1098080E+00
         21   -1    0    0  504  503  0.00000000000E+00  0.00000000000E+00  0.74490759693E+02  0.74490759693E+02  0.00000000000E+00 0. -1.
         21   -1    0    0  503  504 -0.00000000000E+00 -0.00000000000E+00 -0.25503757544E+03  0.25503757544E+03  0.00000000000E+00 0. -1.
         25    2    1    2    0    0 -0.42651099611E+02 -0.31413532761E+02 -0.61894376305E+02  0.14920051399E+03  0.12499581281E+03 0.  0.
         25    2    1    2    0    0  0.42651099611E+02  0.31413532761E+02 -0.11865243944E+03  0.18032782114E+03  0.12503517646E+03 0.  0.
          5    1    3    3  501    0 -0.10419151045E+02 -0.41583178802E+02  0.29095385427E+02  0.52022600097E+02  0.47000000000E+01 0.  1.
         -5    1    3    3    0  501 -0.32231948566E+02  0.10169646040E+02 -0.90989761732E+02  0.97177913895E+02  0.47000000000E+01 0.  1.
          5    1    4    4  502    0 -0.59727835556E+01 -0.10766690439E+02 -0.11492614887E+03  0.11567932166E+03  0.47000000000E+01 0. -1.
         -5    1    4    4    0  502  0.48623883167E+02  0.42180223200E+02 -0.37262905739E+01  0.64648499479E+02  0.47000000000E+01 0. -1.
<mgrwt>
<rscale>  0 0.27566605E+03</rscale>
<asrwt>0</asrwt>
<pdfrwt beam="1">  1       21 0.11460117E-01 0.27566605E+03</pdfrwt>
<pdfrwt beam="2">  1       21 0.39236550E-01 0.27566605E+03</pdfrwt>
<totfact> 0.39191657E+05</totfact>
</mgrwt>
</event>
<event>
 8    1  0.9123825E-006  0.5928579E+03  0.7546771E-02  0.9920335E-01
         21   -1    0    0  504  503  0.00000000000E+00  0.00000000000E+00  0.31732003449E+03  0.31732003449E+03  0.00000000000E+00 0. -1.
         21   -1    0    0  503  504 -0.00000000000E+00 -0.00000000000E+00 -0.27691325252E+03  0.27691325252E+03  0.00000000000E+00 0. -1.
         25    2    1    2    0    0  0.22180091431E+02 -0.13918782533E+03 -0.20919037183E+03  0.28152104003E+03  0.12501310785E+03 0.  0.
         25    2    1    2    0    0 -0.22180091431E+02  0.13918782533E+03  0.24959715380E+03  0.31271224699E+03  0.12500001222E+03 0.  0.
          5    1    3    3  501    0  0.42867655935E+02 -0.14964427393E+03 -0.20508915941E+03  0.25751640327E+03  0.47000000000E+01 0. -1.
         -5    1    3    3    0  501 -0.20687564503E+02  0.10456448601E+02 -0.41012124176E+01  0.24004636755E+02  0.47000000000E+01 0. -1.
          5    1    4    4  502    0 -0.62942913670E+02  0.48232668117E+02  0.64074266096E+02  0.10205783767E+03  0.47000000000E+01 0. -1.
         -5    1    4    4    0  502  0.40762822238E+02  0.90955157209E+02  0.18552288771E+03  0.21065440931E+03  0.47000000000E+01 0. -1.
<mgrwt>
<rscale>  0 0.59285790E+03</rscale>
<asrwt>0</asrwt>
<pdfrwt beam="1">  1       21 0.48818467E-01 0.59285790E+03</pdfrwt>
<pdfrwt beam="2">  1       21 0.42602039E-01 0.59285790E+03</pdfrwt>
<totfact> 0.18580793E+04</totfact>
</mgrwt>
</event>
<event>
 8    1  0.9123825E-006  0.3449372E+03  0.7546771E-02  0.1064712E+00
         21   -1    0    0  504  503  0.00000000000E+00  0.00000000000E+00  0.60256443924E+02  0.60256443924E+02  0.00000000000E+00 0. -1.
         21   -1    0    0  503  504 -0.00000000000E+00 -0.00000000000E+00 -0.49364718677E+03  0.49364718677E+03  0.00000000000E+00 0. -1.
         25    2    1    2    0    0 -0.41453640938E+02  0.11071376089E+03 -0.19760102389E+03  0.26201918307E+03  0.12502778275E+03 0.  0.
         25    2    1    2    0    0  0.41453640938E+02 -0.11071376089E+03 -0.23578971896E+03  0.29188444762E+03  0.12499519190E+03 0.  0.
          5    1    3    3  501    0 -0.82021938120E+01  0.11069831103E+03 -0.72918023355E+02  0.13289288987E+03  0.47000000000E+01 0. -1.
         -5    1    3    3    0  501 -0.33251447126E+02  0.15449858358E-01 -0.12468300053E+03  0.12912629320E+03  0.47000000000E+01 0. -1.
          5    1    4    4  502    0  0.26980819022E+02  0.29964224806E+01 -0.13924091250E+03  0.14194035669E+03  0.47000000000E+01 0. -1.
         -5    1    4    4    0  502  0.14472821916E+02 -0.11371018337E+03 -0.96548806456E+02  0.14994409093E+03  0.47000000000E+01 0. -1.
<mgrwt>
<rscale>  0 0.34493724E+03</rscale>
<asrwt>0</asrwt>
<pdfrwt beam="1">  1       21 0.92702219E-02 0.34493724E+03</pdfrwt>
<pdfrwt beam="2">  1       21 0.75945723E-01 0.34493724E+03</pdfrwt>
<totfact> 0.13706656E+05</totfact>
</mgrwt>
</event>
<event>
 8    1  0.9123825E-006  0.3120362E+03  0.7546771E-02  0.1079374E+00
         21   -1    0    0  504  503  0.00000000000E+00  0.00000000000E+00  0.35558096430E+02  0.35558096430E+02  0.00000000000E+00 0. -1.
         21   -1    0    0  503  504 -0.00000000000E+00 -0.00000000000E+00 -0.68455973989E+03  0.68455973989E+03  0.00000000000E+00 0. -1.
         25    2    1    2    0    0 -0.91300759517E+02 -0.18001118192E+02 -0.30712130445E+03  0.34439494626E+03  0.12499805764E+03 0.  0.
         25    2    1    2    0    0  0.91300759517E+02  0.18001118192E+02 -0.34188033900E+03  0.37572289006E+03  0.12500261986E+03 0.  0.
          5    1    3    3  501    0 -0.53459944422E+02  0.30523033011E+02 -0.25866442340E+03  0.26593043289E+03  0.47000000000E+01 0. -1.
         -5    1    3    3    0  501 -0.37840815095E+02 -0.48524151204E+02 -0.48456881049E+02  0.78464513368E+02  0.47000000000E+01 0. -1.
          5    1    4    4  502    0  0.99153868335E+02  0.15888243189E+01 -0.13283676478E+03  0.16583639542E+03  0.47000000000E+01 0.  1.
         -5    1    4    4    0  502 -0.78531088173E+01  0.16412293874E+02 -0.20904357422E+03  0.20988649464E+03  0.47000000000E+01 0.  1.
<mgrwt>
<rscale>  0 0.31203616E+03</rscale>
<asrwt>0</asrwt>
<pdfrwt beam="1">  1       21 0.54704762E-02 0.31203616E+03</pdfrwt>
<pdfrwt beam="2">  1       21 0.10531689E+00 0.31203616E+03</pdfrwt>
<totfact> 0.16126080E+05</totfact>
</mgrwt>
</event>
<event>
 8    1  0.9123825E-006  0.2872162E+03  0.7546771E-02  0.1091812E+00
         21   -1    0    0  504  503  0.00000000000E+00  0.00000000000E+00  0.39289633072E+02  0.39289633072E+02  0.00000000000E+00 0.  1.
         21   -1    0    0  503  504 -0.00000000000E+00 -0.00000000000E+00 -0.52490388148E+03  0.52490388148E+03  0.00000000000E+00 0.  1.
         25    2    1    2    0    0 -0.56343717962E+02 -0.15201195514E+02 -0.32116126245E+03  0.34954345735E+03  0.12502152286E+03 0.  0.
         25    2    1    2    0    0  0.56343717962E+02  0.15201195514E+02 -0.16445298596E+03  0.21465005720E+03  0.12499668623E+03 0.  0.
          5    1    3    3  501    0  0.31283600630E+02 -0.13842265472E+02 -0.31015477466E+02  0.46414672510E+02  0.47000000000E+01 0. -1.
         -5    1    3    3    0  501 -0.87627318591E+02 -0.13589300417E+01 -0.29014578498E+03  0.30312878484E+03  0.47000000000E+01 0. -1.
          5    1    4    4  502    0 -0.15543828596E+02 -0.13972112063E+02  0.10018473969E+02  0.23649320151E+02  0.47000000000E+01 0. -1.
         -5    1    4    4    0  502  0.71887546558E+02  0.29173307577E+02 -0.17447145993E+03  0.19100073705E+03  0.47000000000E+01 0. -1.
<mgrwt>
<rscale>  0 0.28721616E+03</rscale>
<asrwt>0</asrwt>
<pdfrwt beam="1">  1       21 0.60445591E-02 0.28721616E+03</pdfrwt>
<pdfrwt beam="2">  1       21 0.80754441E-01 0.28721616E+03</pdfrwt>
<totfact> 0.25554021E+05</totfact>
</mgrwt>
</event>
<event>
 8    1  0.9123825E-006  0.3644893E+03  0.7546771E-02  0.1056820E+00
         21   -1    0    0  504  503  0.00000000000E+00  0.00000000000E+00  0.12075429398E+03  0.12075429398E+03  0.00000000000E+00 0. -1.
         21   -1    0    0  503  504 -0.00000000000E+00 -0.00000000000E+00 -0.27504706650E+03  0.27504706650E+03  0.00000000000E+00 0. -1.
         25    2    1    2    0    0  0.40847473600E+02  0.11810622807E+03 -0.12535183142E+03  0.21668983220E+03  0.12499521803E+03 0.  0.
         25    2    1    2    0    0 -0.40847473600E+02 -0.11810622807E+03 -0.28940941110E+02  0.17911152828E+03  0.12500305710E+03 0.  0.
          5    1    3    3  501    0  0.38798005365E+02  0.56252976806E+02  0.86228119136E+01  0.69037131351E+02  0.47000000000E+01 0.  1.
         -5    1    3    3    0  501  0.20494682357E+01  0.61853251261E+02 -0.13397464333E+03  0.14765270085E+03  0.47000000000E+01 0.  1.
          5    1    4    4  502    0 -0.62103136879E+02 -0.13450463893E+03 -0.32144364814E+02  0.15166953449E+03  0.47000000000E+01 0.  1.
         -5    1    4    4    0  502  0.21255663279E+02  0.16398410858E+02  0.32034237036E+01  0.27441993796E+02  0.47000000000E+01 0.  1.
<mgrwt>
<rscale>  0 0.36448931E+03</rscale>
<asrwt>0</asrwt>
<pdfrwt beam="1">  1       21 0.18577584E-01 0.36448931E+03</pdfrwt>
<pdfrwt beam="2">  1       21 0.42314933E-01 0.36448931E+03</pdfrwt>
<totfact> 0.13569718E+05</totfact>
</mgrwt>
</event>
<event>
 8    1  0.9123825E-006  0.2796051E+03  0.7546771E-02  0.1095905E+00
         21   -1    0    0  504  503  0.00000000000E+00  0.00000000000E+00  0.46893664658E+03  0.46893664658E+03  0.00000000000E+00 0. -1.
         21   -1    0    0  503  504 -0.00000000000E+00 -0.00000000000E+00 -0.41678871386E+02  0.41678871386E+02  0.00000000000E+00 0. -1.
         25    2    1    2    0    0  0.50411309926E+02 -0.91613474686E+01  0.14789117562E+03  0.20030102063E+03  0.12499387418E+03 0.  0.
         25    2    1    2    0    0 -0.50411309926E+02  0.91613474686E+01  0.27936659957E+03  0.31031449733E+03  0.12499663932E+03 0.  0.
          5    1    3    3  501    0  0.48220965613E+02  0.19502599449E+02  0.16033376349E+03  0.16862567605E+03  0.47000000000E+01 0.  1.
         -5    1    3    3    0  501  0.21903443125E+01 -0.28663946918E+02 -0.12442587871E+02  0.31675344576E+02  0.47000000000E+01 0.  1.
          5    1    4    4  502    0 -0.78124643798E+02  0.38131527774E+02  0.13688508818E+03  0.16222543187E+03  0.47000000000E+01 0. -1.
         -5    1    4    4    0  502  0.27713333872E+02 -0.28970180305E+02  0.14248151140E+03  0.14808906547E+03  0.47000000000E+01 0. -1.
<mgrwt>
<rscale>  0 0.27960508E+03</rscale>
<asrwt>0</asrwt>
<pdfrwt beam="1">  1       21 0.72144096E-01 0.27960508E+03</pdfrwt>
<pdfrwt beam="2">  1       21 0.64121344E-02 0.27960508E+03</pdfrwt>
<totfact> 0.29830500E+05</totfact>
</mgrwt>
</event>
<event>
 8    1  0.9123825E-006  0.3184934E+03  0.7546771E-02  0.1076345E+00
         21   -1    0    0  504  503  0.00000000000E+00  0.00000000000E+00  0.26595552752E+03  0.26595552752E+03  0.00000000000E+00 0.  1.
         21   -1    0    0  503  504 -0.00000000000E+00 -0.00000000000E+00 -0.95352424306E+02  0.95352424306E+02  0.00000000000E+00 0.  1.
         25    2    1    2    0    0  0.76921976647E+02 -0.47177620056E+02  0.40027758051E+02  0.15927610147E+03  0.12499574697E+03 0.  0.
         25    2    1    2    0    0 -0.76921976647E+02  0.47177620056E+02  0.13057534516E+03  0.20203185035E+03  0.12499691783E+03 0.  0.
          5    1    3    3  501    0  0.10261001400E+03 -0.39598453687E+02  0.60151243162E+02  0.12544765666E+03  0.47000000000E+01 0. -1.
         -5    1    3    3    0  501 -0.25688037350E+02 -0.75791663690E+01 -0.20123485111E+02  0.33828444817E+02  0.47000000000E+01 0. -1.
          5    1    4    4  502    0 -0.75701804115E+02  0.69561180970E+02  0.14283766272E+03  0.17605172233E+03  0.47000000000E+01 0.  1.
         -5    1    4    4    0  502 -0.12201725316E+01 -0.22383560915E+02 -0.12262317555E+02  0.25980128022E+02  0.47000000000E+01 0.  1.
<mgrwt>
<rscale>  0 0.31849336E+03</rscale>
<asrwt>0</asrwt>
<pdfrwt beam="1">  1       21 0.40916235E-01 0.31849336E+03</pdfrwt>
<pdfrwt beam="2">  1       21 0.14669604E-01 0.31849336E+03</pdfrwt>
<totfact> 0.22775022E+05</totfact>
</mgrwt>
</event>
<event>
 8    1  0.9123825E-006  0.2718227E+03  0.7546771E-02  0.1100241E+00
         21   -1    0    0  504  503  0.00000000000E+00  0.00000000000E+00  0.26101189740E+02  0.26101189740E+02  0.00000000000E+00 0.  1.
         21   -1    0    0  503  504 -0.00000000000E+00 -0.00000000000E+00 -0.70770316586E+03  0.70770316586E+03  0.00000000000E+00 0.  1.
         25    2    1    2    0    0  0.23360752081E+02 -0.20706063294E+02 -0.22398140741E+03  0.25839748190E+03  0.12500848768E+03 0.  0.
         25    2    1    2    0    0 -0.23360752081E+02  0.20706063294E+02 -0.45762056871E+03  0.47540687370E+03  0.12498257823E+03 0.  0.
          5    1    3    3  501    0 -0.20381993577E+02  0.31691185103E+02 -0.19322327461E+02  0.42605154781E+02  0.47000000000E+01 0. -1.
         -5    1    3    3    0  501  0.43742745658E+02 -0.52397248397E+02 -0.20465907995E+03  0.21579232711E+03  0.47000000000E+01 0. -1.
          5    1    4    4  502    0  0.43136764056E+02  0.11514207163E+02 -0.79108301573E+02  0.90959170827E+02  0.47000000000E+01 0.  1.
         -5    1    4    4    0  502 -0.66497516137E+02  0.91918561317E+01 -0.37851226714E+03  0.38444770288E+03  0.47000000000E+01 0.  1.
<mgrwt>
<rscale>  0 0.27182270E+03</rscale>
<asrwt>0</asrwt>
<pdfrwt beam="1">  1       21 0.40155676E-02 0.27182270E+03</pdfrwt>
<pdfrwt beam="2">  1       21 0.10887741E+00 0.27182270E+03</pdfrwt>
<totfact> 0.25453313E+05</totfact>
</mgrwt>
</event>
<event>
 8    1  0.9123825E-006  0.2905470E+03  0.7546771E-02  0.1090064E+00
         21   -1    0    0  504  503  0.00000000000E+00  0.00000000000E+00  0.30671522325E+02  0.30671522325E+02  0.00000000000E+00 0.  1.
         21   -1    0    0  503  504 -0.00000000000E+00 -0.00000000000E+00 -0.68807787269E+03  0.68807787269E+03  0.00000000000E+00 0.  1.
         25    2    1    2    0    0  0.35333426886E+02 -0.60982304360E+02 -0.27307644024E+03  0.30850330639E+03  0.12504501326E+03 0.  0.
         25    2    1    2    0    0 -0.35333426886E+02  0.60982304360E+02 -0.38432991012E+03  0.41024608862E+03  0.12500032365E+03 0.  0.
          5    1    3    3  501    0  0.60050205418E+02 -0.56270493420E+02 -0.27049594394E+03  0.28277648645E+03  0.47000000000E+01 0.  1.
         -5    1    3    3    0  501 -0.24716778531E+02 -0.47118109400E+01 -0.25804962994E+01  0.25726819944E+02  0.47000000000E+01 0.  1.
          5    1    4    4  502    0 -0.25033541152E+02 -0.17455561582E+02 -0.26626242617E+03  0.26804690709E+03  0.47000000000E+01 0.  1.
         -5    1    4    4    0  502 -0.10299885734E+02  0.78437865942E+02 -0.11806748396E+03  0.14219918153E+03  0.47000000000E+01 0.  1.
<mgrwt>
<rscale>  0 0.29054704E+03</rscale>
<asrwt>0</asrwt>
<pdfrwt beam="1">  1       21 0.47186957E-02 0.29054704E+03</pdfrwt>
<pdfrwt beam="2">  1       21 0.10585813E+00 0.29054704E+03</pdfrwt>
<totfact> 0.20629179E+05</totfact>
</mgrwt>
</event>
<event>
 8    1  0.9123825E-006  0.2583155E+03  0.7546771E-02  0.1108160E+00
         21   -1    0    0  504  503  0.00000000000E+00  0.00000000000E+00  0.10418484753E+03  0.10418484753E+03  0.00000000000E+00 0.  1.
         21   -1    0    0  503  504 -0.00000000000E+00 -0.00000000000E+00 -0.16011661239E+03  0.16011661239E+03  0.00000000000E+00 0.  1.
         25    2    1    2    0    0  0.11415955107E+02  0.22801981205E+02 -0.48540798374E+02  0.13649898196E+03  0.12500203435E+03 0.  0.
         25    2    1    2    0    0 -0.11415955107E+02 -0.22801981205E+02 -0.73909664840E+01  0.12780247796E+03  0.12501436962E+03 0.  0.
          5    1    3    3  501    0  0.66449504449E+02 -0.24199738556E+01 -0.29185431683E+02  0.72768621929E+02  0.47000000000E+01 0.  1.
         -5    1    3    3    0  501 -0.55033549342E+02  0.25221955060E+02 -0.19355366692E+02  0.63730360034E+02  0.47000000000E+01 0.  1.
          5    1    4    4  502    0 -0.62629408355E+02  0.11096522977E+02  0.80952697135E+01  0.64289960373E+02  0.47000000000E+01 0. -1.
         -5    1    4    4    0  502  0.51213453248E+02 -0.33898504181E+02 -0.15486236197E+02  0.63512517592E+02  0.47000000000E+01 0. -1.
<mgrwt>
<rscale>  0 0.25831550E+03</rscale>
<asrwt>0</asrwt>
<pdfrwt beam="1">  1       21 0.16028438E-01 0.25831550E+03</pdfrwt>
<pdfrwt beam="2">  1       21 0.24633325E-01 0.25831550E+03</pdfrwt>
<totfact> 0.53489869E+05</totfact>
</mgrwt>
</event>
<event>
 8    1  0.9123825E-006  0.3270659E+03  0.7546771E-02  0.1072443E+00
         21   -1    0    0  504  503  0.00000000000E+00  0.00000000000E+00  0.13691380288E+03  0.13691380288E+03  0.00000000000E+00 0.  1.
         21   -1    0    0  503  504 -0.00000000000E+00 -0.00000000000E+00 -0.19532745116E+03  0.19532745116E+03  0.00000000000E+00 0.  1.
         25    2    1    2    0    0  0.57648911051E+02 -0.84003748806E+02 -0.56775083071E+02  0.17097289184E+03  0.12501317102E+03 0.  0.
         25    2    1    2    0    0 -0.57648911051E+02  0.84003748806E+02 -0.16385652059E+01  0.16126836219E+03  0.12499909196E+03 0.  0.
          5    1    3    3  501    0  0.53956017056E+02 -0.17814483498E+02  0.27782875514E+02  0.63423858056E+02  0.47000000000E+01 0. -1.
         -5    1    3    3    0  501  0.36928939946E+01 -0.66189265308E+02 -0.84557958585E+02  0.10754903378E+03  0.47000000000E+01 0. -1.
          5    1    4    4  502    0  0.11599285382E+01  0.86949780280E+02 -0.34504345070E+02  0.93670964304E+02  0.47000000000E+01 0. -1.
         -5    1    4    4    0  502 -0.58808839589E+02 -0.29460314744E+01  0.32865779864E+02  0.67597397889E+02  0.47000000000E+01 0. -1.
<mgrwt>
<rscale>  0 0.32706589E+03</rscale>
<asrwt>0</asrwt>
<pdfrwt beam="1">  1       21 0.21063662E-01 0.32706589E+03</pdfrwt>
<pdfrwt beam="2">  1       21 0.30050377E-01 0.32706589E+03</pdfrwt>
<totfact> 0.21514647E+05</totfact>
</mgrwt>
</event>
<event>
 8    1  0.9123825E-006  0.4898818E+03  0.7546771E-02  0.1016454E+00
         21   -1    0    0  504  503  0.00000000000E+00  0.00000000000E+00  0.17552668223E+04  0.17552668223E+04  0.00000000000E+00 0. -1.
         21   -1    0    0  503  504 -0.00000000000E+00 -0.00000000000E+00 -0.34180584831E+02  0.34180584831E+02  0.00000000000E+00 0. -1.
         25    2    1    2    0    0  0.54917387228E+02 -0.87858667514E+02  0.15304172350E+04  0.15390054770E+04  0.12500352082E+03 0.  0.
         25    2    1    2    0    0 -0.54917387228E+02  0.87858667514E+02  0.19066900245E+03  0.25044193010E+03  0.12502570527E+03 0.  0.
          5    1    3    3  501    0  0.80525324463E+02 -0.67354203047E+02  0.14157650282E+04  0.14196596852E+04  0.47000000000E+01 0. -1.
         -5    1    3    3    0  501 -0.25607937235E+02 -0.20504464467E+02  0.11465220674E+03  0.11934579181E+03  0.47000000000E+01 0. -1.
          5    1    4    4  502    0 -0.65804134067E+02 -0.27974373291E+01  0.11108435205E+03  0.12922783364E+03  0.47000000000E+01 0.  1.
         -5    1    4    4    0  502  0.10886746839E+02  0.90656104843E+02  0.79584650401E+02  0.12121409646E+03  0.47000000000E+01 0.  1.
<mgrwt>
<rscale>  0 0.48988181E+03</rscale>
<asrwt>0</asrwt>
<pdfrwt beam="1">  1       21 0.27004098E+00 0.48988181E+03</pdfrwt>
<pdfrwt beam="2">  1       21 0.52585529E-02 0.48988181E+03</pdfrwt>
<totfact> 0.10514529E+04</totfact>
</mgrwt>
</event>
<event>
 8    1  0.9123825E-006  0.2609787E+03  0.7546771E-02  0.1106557E+00
         21   -1    0    0  504  503  0.00000000000E+00  0.00000000000E+00  0.43442333466E+02  0.43442333466E+02  0.00000000000E+00 0. -1.
         21   -1    0    0  503  504 -0.00000000000E+00 -0.00000000000E+00 -0.39195556499E+03  0.39195556499E+03  0.00000000000E+00 0. -1.
         25    2    1    2    0    0  0.31004637224E+02 -0.10980983616E+01 -0.20925478468E+03  0.24571400844E+03  0.12500126273E+03 0.  0.
         25    2    1    2    0    0 -0.31004637224E+02  0.10980983616E+01 -0.13925844685E+03  0.18968389001E+03  0.12499827904E+03 0.  0.
          5    1    3    3  501    0 -0.72572721889E+00 -0.85253783071E+01 -0.21241341476E+03  0.21263762020E+03  0.47000000000E+01 0.  1.
         -5    1    3    3    0  501  0.31730364443E+02  0.74272799455E+01  0.31586300817E+01  0.33076388241E+02  0.47000000000E+01 0.  1.
          5    1    4    4  502    0 -0.64224479429E+02  0.40560535072E+02 -0.71760188566E+02  0.10460189017E+03  0.47000000000E+01 0. -1.
         -5    1    4    4    0  502  0.33219842205E+02 -0.39462436710E+02 -0.67498258281E+02  0.85081999849E+02  0.47000000000E+01 0. -1.
<mgrwt>
<rscale>  0 0.26097865E+03</rscale>
<asrwt>0</asrwt>
<pdfrwt beam="1">  1       21 0.66834357E-02 0.26097865E+03</pdfrwt>
<pdfrwt beam="2">  1       21 0.60300858E-01 0.26097865E+03</pdfrwt>
<totfact> 0.41360796E+05</totfact>
</mgrwt>
</event>
<event>
 8    1  0.9123825E-006  0.3232871E+03  0.7546771E-02  0.1074146E+00
         21   -1    0    0  504  503  0.00000000000E+00  0.00000000000E+00  0.59271091081E+02  0.59271091081E+02  0.00000000000E+00 0. -1.
         21   -1    0    0  503  504 -0.00000000000E+00 -0.00000000000E+00 -0.44083263743E+03  0.44083263743E+03  0.00000000000E+00 0. -1.
         25    2    1    2    0    0 -0.90639757677E+02  0.12443621963E+02 -0.11935743588E+03  0.19555704057E+03  0.12500379681E+03 0.  0.
         25    2    1    2    0    0  0.90639757677E+02 -0.12443621963E+02 -0.26220411046E+03  0.30454668794E+03  0.12500912043E+03 0.  0.
          5    1    3    3  501    0 -0.25225185991E+02 -0.54790124284E+02 -0.39304012693E+02  0.72146816569E+02  0.47000000000E+01 0. -1.
         -5    1    3    3    0  501 -0.65414571687E+02  0.67233746247E+02 -0.80053423189E+02  0.12341022400E+03  0.47000000000E+01 0. -1.
          5    1    4    4  502    0 -0.13304823529E+02 -0.32155638245E+02 -0.20502402588E+02  0.40662536959E+02  0.47000000000E+01 0.  1.
         -5    1    4    4    0  502  0.10394458121E+03  0.19712016282E+02 -0.24170170788E+03  0.26388415098E+03  0.47000000000E+01 0.  1.
<mgrwt>
<rscale>  0 0.32328706E+03</rscale>
<asrwt>0</asrwt>
<pdfrwt beam="1">  1       21 0.91186295E-02 0.32328706E+03</pdfrwt>
<pdfrwt beam="2">  1       21 0.67820405E-01 0.32328706E+03</pdfrwt>
<totfact> 0.18288601E+05</totfact>
</mgrwt>
</event>
<event>
 8    1  0.9123825E-006  0.4280580E+03  0.7546771E-02  0.1034475E+00
         21   -1    0    0  504  503  0.00000000000E+00  0.00000000000E+00  0.56693290185E+02  0.56693290185E+02  0.00000000000E+00 0. -1.
         21   -1    0    0  503  504 -0.00000000000E+00 -0.00000000000E+00 -0.80800423680E+03  0.80800423680E+03  0.00000000000E+00 0. -1.
         25    2    1    2    0    0  0.69691319182E+02 -0.94040966132E+02 -0.11627556063E+03  0.20697810119E+03  0.12497737832E+03 0.  0.
         25    2    1    2    0    0 -0.69691319182E+02  0.94040966132E+02 -0.63503538599E+03  0.65771942580E+03  0.12499727330E+03 0.  0.
          5    1    3    3  501    0  0.72096712454E+02 -0.46820063750E+02 -0.52982151068E+01  0.86256683217E+02  0.47000000000E+01 0. -1.
         -5    1    3    3    0  501 -0.24053932718E+01 -0.47220902382E+02 -0.11097734552E+03  0.12072141797E+03  0.47000000000E+01 0. -1.
          5    1    4    4  502    0 -0.17724886264E+02 -0.15225931506E+02 -0.30912029912E+03  0.31003782013E+03  0.47000000000E+01 0.  1.
         -5    1    4    4    0  502 -0.51966432918E+02  0.10926689764E+03 -0.32591508687E+03  0.34768160567E+03  0.47000000000E+01 0.  1.
<mgrwt>
<rscale>  0 0.42805803E+03</rscale>
<asrwt>0</asrwt>
<pdfrwt beam="1">  1       21 0.87220447E-02 0.42805803E+03</pdfrwt>
<pdfrwt beam="2">  1       21 0.12430834E+00 0.42805803E+03</pdfrwt>
<totfact> 0.45766294E+04</totfact>
</mgrwt>
</event>
<event>
 8    1  0.9123825E-006  0.3904405E+03  0.7546771E-02  0.1047141E+00
         21   -1    0    0  504  503  0.00000000000E+00  0.00000000000E+00  0.69190035960E+02  0.69190035960E+02  0.00000000000E+00 0.  1.
         21   -1    0    0  503  504 -0.00000000000E+00 -0.00000000000E+00 -0.55081544864E+03  0.55081544864E+03  0.00000000000E+00 0.  1.
         25    2    1    2    0    0 -0.59399771192E+02 -0.84458603022E+02 -0.41348849032E+03  0.44413805275E+03  0.12499715926E+03 0.  0.
         25    2    1    2    0    0  0.59399771192E+02  0.84458603022E+02 -0.68136922357E+02  0.17586743185E+03  0.12500049983E+03 0.  0.
          5    1    3    3  501    0  0.77898160110E+01  0.28872747875E+02 -0.74413844413E+02  0.80335714621E+02  0.47000000000E+01 0.  1.
         -5    1    3    3    0  501 -0.67189587203E+02 -0.11333135090E+03 -0.33907464591E+03  0.36380233812E+03  0.47000000000E+01 0.  1.
          5    1    4    4  502    0  0.54466566002E+02  0.89104252242E+02 -0.98966714342E+02  0.14395372565E+03  0.47000000000E+01 0. -1.
         -5    1    4    4    0  502  0.49332051903E+01 -0.46456492200E+01  0.30829791985E+02  0.31913706209E+02  0.47000000000E+01 0. -1.
<mgrwt>
<rscale>  0 0.39044047E+03</rscale>
<asrwt>0</asrwt>
<pdfrwt beam="1">  1       21 0.10644621E-01 0.39044047E+03</pdfrwt>
<pdfrwt beam="2">  1       21 0.84740835E-01 0.39044047E+03</pdfrwt>
<totfact> 0.82295646E+04</totfact>
</mgrwt>
</event>
<event>
 8    1  0.9123825E-006  0.2918304E+03  0.7546771E-02  0.1089397E+00
         21   -1    0    0  504  503  0.00000000000E+00  0.00000000000E+00  0.26401811432E+03  0.26401811432E+03  0.00000000000E+00 0.  1.
         21   -1    0    0  503  504 -0.00000000000E+00 -0.00000000000E+00 -0.80643105886E+02  0.80643105886E+02  0.00000000000E+00 0.  1.
         25    2    1    2    0    0 -0.15038563297E+02  0.12064332965E+02  0.17763765855E+03  0.21806566745E+03  0.12500316423E+03 0.  0.
         25    2    1    2    0    0  0.15038563297E+02 -0.12064332965E+02  0.57373498760E+01  0.12659555276E+03  0.12498724046E+03 0.  0.
          5    1    3    3  501    0  0.31589974922E+01 -0.43289239231E+02  0.16533948466E+02  0.46684033140E+02  0.47000000000E+01 0. -1.
         -5    1    3    3    0  501 -0.18197560790E+02  0.55353572196E+02  0.16110371009E+03  0.17138163431E+03  0.47000000000E+01 0. -1.
          5    1    4    4  502    0  0.41546187548E+02 -0.41628755418E+02 -0.35741296021E+02  0.68982383394E+02  0.47000000000E+01 0. -1.
         -5    1    4    4    0  502 -0.26507624251E+02  0.29564422453E+02  0.41478645897E+02  0.57613169361E+02  0.47000000000E+01 0. -1.
<mgrwt>
<rscale>  0 0.29183037E+03</rscale>
<asrwt>0</asrwt>
<pdfrwt beam="1">  1       21 0.40618171E-01 0.29183037E+03</pdfrwt>
<pdfrwt beam="2">  1       21 0.12406632E-01 0.29183037E+03</pdfrwt>
<totfact> 0.31552220E+05</totfact>
</mgrwt>
</event>
<event>
 8    1  0.9123825E-006  0.2730384E+03  0.7546771E-02  0.1099553E+00
         21   -1    0    0  504  503  0.00000000000E+00  0.00000000000E+00  0.11616946835E+03  0.11616946835E+03  0.00000000000E+00 0.  1.
         21   -1    0    0  503  504 -0.00000000000E+00 -0.00000000000E+00 -0.16043364544E+03  0.16043364544E+03  0.00000000000E+00 0.  1.
         25    2    1    2    0    0  0.15167856988E+02  0.45874177834E+02 -0.48500231572E+02  0.14252393689E+03  0.12500518408E+03 0.  0.
         25    2    1    2    0    0 -0.15167856988E+02 -0.45874177834E+02  0.42360544847E+01  0.13407917690E+03  0.12499910977E+03 0.  0.
          5    1    3    3  501    0  0.51525008432E+02  0.10528533573E+02  0.20609188947E+02  0.56678965959E+02  0.47000000000E+01 0. -1.
         -5    1    3    3    0  501 -0.36357151444E+02  0.35345644261E+02 -0.69109420519E+02  0.85844970929E+02  0.47000000000E+01 0. -1.
          5    1    4    4  502    0  0.35643957090E+02 -0.56720130933E+02 -0.27995830940E+02  0.72756590630E+02  0.47000000000E+01 0.  1.
         -5    1    4    4    0  502 -0.50811814078E+02  0.10845953100E+02  0.32231885424E+02  0.61322586268E+02  0.47000000000E+01 0.  1.
<mgrwt>
<rscale>  0 0.27303840E+03</rscale>
<asrwt>0</asrwt>
<pdfrwt beam="1">  1       21 0.17872226E-01 0.27303840E+03</pdfrwt>
<pdfrwt beam="2">  1       21 0.24682099E-01 0.27303840E+03</pdfrwt>
<totfact> 0.43441486E+05</totfact>
</mgrwt>
</event>
<event>
 8    1  0.9123825E-006  0.3395527E+03  0.7546771E-02  0.1066987E+00
         21   -1    0    0  504  503  0.00000000000E+00  0.00000000000E+00  0.32433402401E+03  0.32433402401E+03  0.00000000000E+00 0. -1.
         21   -1    0    0  503  504 -0.00000000000E+00 -0.00000000000E+00 -0.88871385493E+02  0.88871385493E+02  0.00000000000E+00 0. -1.
         25    2    1    2    0    0  0.11386508133E+03 -0.79392551559E+01  0.13361670598E+03  0.21565414531E+03  0.12499999103E+03 0.  0.
         25    2    1    2    0    0 -0.11386508133E+03  0.79392551559E+01  0.10184593254E+03  0.19755126419E+03  0.12500247794E+03 0.  0.
          5    1    3    3  501    0  0.70152336378E+02  0.13179740138E+02 -0.19702612609E+01  0.71561356742E+02  0.47000000000E+01 0. -1.
         -5    1    3    3    0  501  0.43712744948E+02 -0.21118995294E+02  0.13558696724E+03  0.14409278857E+03  0.47000000000E+01 0. -1.
          5    1    4    4  502    0 -0.55837912502E+02 -0.22045264562E+02 -0.16377056626E+02  0.62403238265E+02  0.47000000000E+01 0. -1.
         -5    1    4    4    0  502 -0.58027168823E+02  0.29984519718E+02  0.11822298916E+03  0.13514802592E+03  0.47000000000E+01 0. -1.
<mgrwt>
<rscale>  0 0.33955273E+03</rscale>
<asrwt>0</asrwt>
<pdfrwt beam="1">  1       21 0.49897542E-01 0.33955273E+03</pdfrwt>
<pdfrwt beam="2">  1       21 0.13672521E-01 0.33955273E+03</pdfrwt>
<totfact> 0.17070383E+05</totfact>
</mgrwt>
</event>
<event>
 8    1  0.9123825E-006  0.4802279E+03  0.7546771E-02  0.1019073E+00
         21   -1    0    0  504  503  0.00000000000E+00  0.00000000000E+00  0.18986988123E+03  0.18986988123E+03  0.00000000000E+00 0. -1.
         21   -1    0    0  503  504 -0.00000000000E+00 -0.00000000000E+00 -0.30365374431E+03  0.30365374431E+03  0.00000000000E+00 0. -1.
         25    2    1    2    0    0  0.10353782117E+03  0.30808102201E+02  0.12218104568E+03  0.20547936423E+03  0.12499736648E+03 0.  0.
         25    2    1    2    0    0 -0.10353782117E+03 -0.30808102201E+02 -0.23596490876E+03  0.28804426131E+03  0.12498335381E+03 0.  0.
          5    1    3    3  501    0  0.11728534682E+03 -0.16416909657E+01  0.12284918508E+03  0.16991927496E+03  0.47000000000E+01 0. -1.
         -5    1    3    3    0  501 -0.13747525656E+02  0.32449793167E+02 -0.66813940490E+00  0.35560089265E+02  0.47000000000E+01 0. -1.
          5    1    4    4  502    0 -0.10200069996E+03  0.45505550609E+01 -0.85062533856E+02  0.13297584371E+03  0.47000000000E+01 0. -1.
         -5    1    4    4    0  502 -0.15371212110E+01 -0.35358657262E+02 -0.15090237491E+03  0.15506841760E+03  0.47000000000E+01 0. -1.
<mgrwt>
<rscale>  0 0.48022786E+03</rscale>
<asrwt>0</asrwt>
<pdfrwt beam="1">  1       21 0.29210752E-01 0.48022786E+03</pdfrwt>
<pdfrwt beam="2">  1       21 0.46715960E-01 0.48022786E+03</pdfrwt>
<totfact> 0.44970438E+04</totfact>
</mgrwt>
</event>
<event>
 8    1  0.9123825E-006  0.2687936E+03  0.7546771E-02  0.1101972E+00
         21   -1    0    0  504  503  0.00000000000E+00  0.00000000000E+00  0.10979754695E+02  0.10979754695E+02  0.00000000000E+00 0. -1.
         21   -1    0    0  503  504 -0.00000000000E+00 -0.00000000000E+00 -0.16450735338E+04  0.16450735338E+04  0.00000000000E+00 0. -1.
         25    2    1    2    0    0  0.48447693126E+02  0.97504533265E+01 -0.82590541952E+03  0.83676408361E+03  0.12494846662E+03 0.  0.
         25    2    1    2    0    0 -0.48447693126E+02 -0.97504533265E+01 -0.80818835961E+03  0.81928920491E+03  0.12499650543E+03 0.  0.
          5    1    3    3  501    0  0.24459828261E+02  0.17002826233E+02 -0.38308669395E+02  0.48754727456E+02  0.47000000000E+01 0.  1.
         -5    1    3    3    0  501  0.23987864865E+02 -0.72523729068E+01 -0.78759675013E+03  0.78800935615E+03  0.47000000000E+01 0.  1.
          5    1    4    4  502    0  0.20670051215E+02 -0.20709946583E+02 -0.57543178373E+03  0.57619439483E+03  0.47000000000E+01 0.  1.
         -5    1    4    4    0  502 -0.69117744341E+02  0.10959493256E+02 -0.23275657588E+03  0.24309481008E+03  0.47000000000E+01 0.  1.
<mgrwt>
<rscale>  0 0.26879363E+03</rscale>
<asrwt>0</asrwt>
<pdfrwt beam="1">  1       21 0.16891928E-02 0.26879363E+03</pdfrwt>
<pdfrwt beam="2">  1       21 0.25308827E+00 0.26879363E+03</pdfrwt>
<totfact> 0.98541572E+04</totfact>
</mgrwt>
</event>
<event>
 8    1  0.9123825E-006  0.3215481E+03  0.7546771E-02  0.1074939E+00
         21   -1    0    0  504  503  0.00000000000E+00  0.00000000000E+00  0.41626162480E+03  0.41626162480E+03  0.00000000000E+00 0.  1.
         21   -1    0    0  503  504 -0.00000000000E+00 -0.00000000000E+00 -0.62096267769E+02  0.62096267769E+02  0.00000000000E+00 0.  1.
         25    2    1    2    0    0  0.75270038926E+02 -0.23491159920E+02  0.27123436512E+03  0.30888645714E+03  0.12500139690E+03 0.  0.
         25    2    1    2    0    0 -0.75270038926E+02  0.23491159920E+02  0.82930991913E+02  0.16947143543E+03  0.12500241859E+03 0.  0.
          5    1    3    3  501    0  0.22222203389E+02  0.48173864408E+02  0.64177192709E+02  0.83398738597E+02  0.47000000000E+01 0.  1.
         -5    1    3    3    0  501  0.53047835536E+02 -0.71665024328E+02  0.20705717241E+03  0.22548771854E+03  0.47000000000E+01 0.  1.
          5    1    4    4  502    0 -0.10182324139E+03  0.20880259035E+02  0.93984690905E+02  0.14021116157E+03  0.47000000000E+01 0. -1.
         -5    1    4    4    0  502  0.26553202469E+02  0.26109008848E+01 -0.11053698991E+02  0.29260273857E+02  0.47000000000E+01 0. -1.
<mgrwt>
<rscale>  0 0.32154809E+03</rscale>
<asrwt>0</asrwt>
<pdfrwt beam="1">  1       21 0.64040248E-01 0.32154809E+03</pdfrwt>
<pdfrwt beam="2">  1       21 0.95532722E-02 0.32154809E+03</pdfrwt>
<totfact> 0.19117359E+05</totfact>
</mgrwt>
</event>
<event>
 8    1  0.9123825E-006  0.2826723E+03  0.7546771E-02  0.1094238E+00
         21   -1    0    0  504  503  0.00000000000E+00  0.00000000000E+00  0.23596136079E+02  0.23596136079E+02  0.00000000000E+00 0.  1.
         21   -1    0    0  503  504 -0.00000000000E+00 -0.00000000000E+00 -0.84657559374E+03  0.84657559374E+03  0.00000000000E+00 0.  1.
         25    2    1    2    0    0  0.25044071361E+02 -0.38683319270E+02 -0.26615334400E+03  0.29763402669E+03  0.12499922649E+03 0.  0.
         25    2    1    2    0    0 -0.25044071361E+02  0.38683319270E+02 -0.55682611366E+03  0.57253770313E+03  0.12498198249E+03 0.  0.
          5    1    3    3  501    0 -0.28058188592E+02  0.30045020710E+02 -0.12663368825E+03  0.13322216864E+03  0.47000000000E+01 0.  1.
         -5    1    3    3    0  501  0.53102259953E+02 -0.68728339980E+02 -0.13951965575E+03  0.16441185805E+03  0.47000000000E+01 0.  1.
          5    1    4    4  502    0  0.52596321315E+01  0.75955157602E+02 -0.23390494461E+03  0.24602939420E+03  0.47000000000E+01 0.  1.
         -5    1    4    4    0  502 -0.30303703493E+02 -0.37271838332E+02 -0.32292116905E+03  0.32650830893E+03  0.47000000000E+01 0.  1.
<mgrwt>
<rscale>  0 0.28267234E+03</rscale>
<asrwt>0</asrwt>
<pdfrwt beam="1">  1       21 0.36301749E-02 0.28267234E+03</pdfrwt>
<pdfrwt beam="2">  1       21 0.13024240E+00 0.28267234E+03</pdfrwt>
<totfact> 0.19230578E+05</totfact>
</mgrwt>
</event>
<event>
 8    1  0.9123825E-006  0.2936030E+03  0.7546771E-02  0.1088483E+00
         21   -1    0    0  504  503  0.00000000000E+00  0.00000000000E+00  0.36071793821E+02  0.36071793821E+02  0.00000000000E+00 0. -1.
         21   -1    0    0  503  504 -0.00000000000E+00 -0.00000000000E+00 -0.59743842381E+03  0.59743842381E+03  0.00000000000E+00 0. -1.
         25    2    1    2    0    0 -0.31487259704E+02 -0.67471312076E+02 -0.32269279984E+03  0.35398445318E+03  0.12502209623E+03 0.  0.
         25    2    1    2    0    0  0.31487259704E+02  0.67471312076E+02 -0.23867383015E+03  0.27952576445E+03  0.12500252125E+03 0.  0.
          5    1    3    3  501    0  0.41877352868E+02  0.98690757953E+00 -0.65733090144E+02  0.78087232053E+02  0.47000000000E+01 0.  1.
         -5    1    3    3    0  501 -0.73364612573E+02 -0.68458219655E+02 -0.25695970970E+03  0.27589722113E+03  0.47000000000E+01 0.  1.
          5    1    4    4  502    0 -0.83861877191E+01  0.60874124900E+02 -0.33081936842E+02  0.69946349241E+02  0.47000000000E+01 0. -1.
         -5    1    4    4    0  502  0.39873447423E+02  0.65971871751E+01 -0.20559189330E+03  0.20957941521E+03  0.47000000000E+01 0. -1.
<mgrwt>
<rscale>  0 0.29360297E+03</rscale>
<asrwt>0</asrwt>
<pdfrwt beam="1">  1       21 0.55495066E-02 0.29360297E+03</pdfrwt>
<pdfrwt beam="2">  1       21 0.91913607E-01 0.29360297E+03</pdfrwt>
<totfact> 0.21894872E+05</totfact>
</mgrwt>
</event>
<event>
 8    1  0.9123825E-006  0.2589032E+03  0.7546771E-02  0.1107804E+00
         21   -1    0    0  504  503  0.00000000000E+00  0.00000000000E+00  0.58242911935E+02  0.58242911935E+02  0.00000000000E+00 0.  1.
         21   -1    0    0  503  504 -0.00000000000E+00 -0.00000000000E+00 -0.28772120753E+03  0.28772120753E+03  0.00000000000E+00 0.  1.
         25    2    1    2    0    0  0.68108698188E+01  0.32957489444E+02 -0.11369232737E+03  0.17228657031E+03  0.12499653174E+03 0.  0.
         25    2    1    2    0    0 -0.68108698188E+01 -0.32957489444E+02 -0.11578596822E+03  0.17367754916E+03  0.12499966635E+03 0.  0.
          5    1    3    3  501    0  0.10244041137E+02  0.78387174777E+02 -0.92648581274E+02  0.12188248094E+03  0.47000000000E+01 0.  1.
         -5    1    3    3    0  501 -0.34331713178E+01 -0.45429685334E+02 -0.21043746100E+02  0.50404089365E+02  0.47000000000E+01 0.  1.
          5    1    4    4  502    0  0.40813952930E+02  0.28774992500E+02 -0.56942299726E+02  0.75883426684E+02  0.47000000000E+01 0.  1.
         -5    1    4    4    0  502 -0.47624822749E+02 -0.61732481943E+02 -0.58843668497E+02  0.97794122477E+02  0.47000000000E+01 0.  1.
<mgrwt>
<rscale>  0 0.25890323E+03</rscale>
<asrwt>0</asrwt>
<pdfrwt beam="1">  1       21 0.89604481E-02 0.25890323E+03</pdfrwt>
<pdfrwt beam="2">  1       21 0.44264801E-01 0.25890323E+03</pdfrwt>
<totfact> 0.47603542E+05</totfact>
</mgrwt>
</event>
<event>
 8    1  0.9123825E-006  0.2856454E+03  0.7546771E-02  0.1092645E+00
         21   -1    0    0  504  503  0.00000000000E+00  0.00000000000E+00  0.72317923859E+03  0.72317923859E+03  0.00000000000E+00 0.  1.
         21   -1    0    0  503  504 -0.00000000000E+00 -0.00000000000E+00 -0.28206463665E+02  0.28206463665E+02  0.00000000000E+00 0.  1.
         25    2    1    2    0    0 -0.66702059409E+02  0.45195051210E+01  0.30169328220E+03  0.33333658292E+03  0.12499940133E+03 0.  0.
         25    2    1    2    0    0  0.66702059409E+02 -0.45195051210E+01  0.39327949272E+03  0.41804911933E+03  0.12500686430E+03 0.  0.
          5    1    3    3  501    0  0.27191252061E+02 -0.29365919518E+02  0.65937020550E+02  0.77275494802E+02  0.47000000000E+01 0. -1.
         -5    1    3    3    0  501 -0.93893311470E+02  0.33885424639E+02  0.23575626165E+03  0.25606108812E+03  0.47000000000E+01 0. -1.
          5    1    4    4  502    0 -0.34122752809E+02  0.11907745277E+02  0.69089940244E+02  0.78113164702E+02  0.47000000000E+01 0. -1.
         -5    1    4    4    0  502  0.10082481222E+03 -0.16427250398E+02  0.32418955248E+03  0.33993595463E+03  0.47000000000E+01 0. -1.
<mgrwt>
<rscale>  0 0.28564544E+03</rscale>
<asrwt>0</asrwt>
<pdfrwt beam="1">  1       21 0.11125833E+00 0.28564544E+03</pdfrwt>
<pdfrwt beam="2">  1       21 0.43394565E-02 0.28564544E+03</pdfrwt>
<totfact> 0.21092537E+05</totfact>
</mgrwt>
</event>
<event>
 8    1  0.9123825E-006  0.3834942E+03  0.7546771E-02  0.1049650E+00
         21   -1    0    0  504  503  0.00000000000E+00  0.00000000000E+00  0.92889817844E+02  0.92889817844E+02  0.00000000000E+00 0. -1.
         21   -1    0    0  503  504 -0.00000000000E+00 -0.00000000000E+00 -0.39581254873E+03  0.39581254873E+03  0.00000000000E+00 0. -1.
         25    2    1    2    0    0 -0.55511811830E+02 -0.11897865131E+03 -0.23109586820E+03  0.29370412110E+03  0.12497731687E+03 0.  0.
         25    2    1    2    0    0  0.55511811830E+02  0.11897865131E+03 -0.71826862685E+02  0.19499824547E+03  0.12501094678E+03 0.  0.
          5    1    3    3  501    0 -0.69853220337E+02 -0.10201593242E+03 -0.95706682230E+02  0.15642436473E+03  0.47000000000E+01 0.  1.
         -5    1    3    3    0  501  0.14341408507E+02 -0.16962718892E+02 -0.13538918597E+03  0.13727975637E+03  0.47000000000E+01 0.  1.
          5    1    4    4  502    0  0.31324742210E+02  0.88199021974E+01 -0.75192638968E+02  0.82067369303E+02  0.47000000000E+01 0.  1.
         -5    1    4    4    0  502  0.24187069620E+02  0.11015874911E+03  0.33657762831E+01  0.11293087617E+03  0.47000000000E+01 0.  1.
<mgrwt>
<rscale>  0 0.38349423E+03</rscale>
<asrwt>0</asrwt>
<pdfrwt beam="1">  1       21 0.14290741E-01 0.38349423E+03</pdfrwt>
<pdfrwt beam="2">  1       21 0.60894238E-01 0.38349423E+03</pdfrwt>
<totfact> 0.10160454E+05</totfact>
</mgrwt>
</event>
<event>
 8    1  0.9123825E-006  0.2657412E+03  0.7546771E-02  0.1103742E+00
         21   -1    0    0  504  503  0.00000000000E+00  0.00000000000E+00  0.54329529012E+02  0.54329529012E+02  0.00000000000E+00 0. -1.
         21   -1    0    0  503  504 -0.00000000000E+00 -0.00000000000E+00 -0.32495401200E+03  0.32495401200E+03  0.00000000000E+00 0. -1.
         25    2    1    2    0    0 -0.22683576712E+02  0.88551344160E+01 -0.81231176741E+02  0.15105605610E+03  0.12500587967E+03 0.  0.
         25    2    1    2    0    0  0.22683576712E+02 -0.88551344160E+01 -0.18939330625E+03  0.22822748491E+03  0.12500000944E+03 0.  0.
          5    1    3    3  501    0  0.22945677717E+02  0.50046414990E+02 -0.68665906003E+02  0.88137644775E+02  0.47000000000E+01 0. -1.
         -5    1    3    3    0  501 -0.45629254429E+02 -0.41191280574E+02 -0.12565270738E+02  0.62918411326E+02  0.47000000000E+01 0. -1.
          5    1    4    4  502    0  0.49095595639E+02 -0.55048118056E+02 -0.10787200848E+03  0.13076365331E+03  0.47000000000E+01 0. -1.
         -5    1    4    4    0  502 -0.26412018927E+02  0.46192983640E+02 -0.81521297767E+02  0.97463831604E+02  0.47000000000E+01 0. -1.
<mgrwt>
<rscale>  0 0.26574122E+03</rscale>
<asrwt>0</asrwt>
<pdfrwt beam="1">  1       21 0.83583891E-02 0.26574122E+03</pdfrwt>
<pdfrwt beam="2">  1       21 0.49992925E-01 0.26574122E+03</pdfrwt>
<totfact> 0.41709107E+05</totfact>
</mgrwt>
</event>
<event>
 8    1  0.9123825E-006  0.2568029E+03  0.7546771E-02  0.1109079E+00
         21   -1    0    0  504  503  0.00000000000E+00  0.00000000000E+00  0.27685916090E+02  0.27685916090E+02  0.00000000000E+00 0.  1.
         21   -1    0    0  503  504 -0.00000000000E+00 -0.00000000000E+00 -0.59549886963E+03  0.59549886963E+03  0.00000000000E+00 0.  1.
         25    2    1    2    0    0 -0.35272254215E+01 -0.13893072863E+02 -0.34601081202E+03  0.36817673070E+03  0.12500065681E+03 0.  0.
         25    2    1    2    0    0  0.35272254215E+01  0.13893072863E+02 -0.22180214151E+03  0.25500805501E+03  0.12500983700E+03 0.  0.
          5    1    3    3  501    0  0.55458863329E+02 -0.27459521859E+02 -0.13454678312E+03  0.14817097459E+03  0.47000000000E+01 0. -1.
         -5    1    3    3    0  501 -0.58986088750E+02  0.13566448997E+02 -0.21146402890E+03  0.22000575612E+03  0.47000000000E+01 0. -1.
          5    1    4    4  502    0  0.43270938732E+02  0.52311355944E+02 -0.97627168851E+02  0.11900422764E+03  0.47000000000E+01 0. -1.
         -5    1    4    4    0  502 -0.39743713311E+02 -0.38418283081E+02 -0.12417497266E+03  0.13600382737E+03  0.47000000000E+01 0. -1.
<mgrwt>
<rscale>  0 0.25680290E+03</rscale>
<asrwt>0</asrwt>
<pdfrwt beam="1">  1       21 0.42593719E-02 0.25680290E+03</pdfrwt>
<pdfrwt beam="2">  1       21 0.91615207E-01 0.25680290E+03</pdfrwt>
<totfact> 0.34955791E+05</totfact>
</mgrwt>
</event>
<event>
 8    1  0.9123825E-006  0.1186957E+04  0.7546771E-02  0.9124350E-01
         21   -1    0    0  504  503  0.00000000000E+00  0.00000000000E+00  0.62742081889E+03  0.62742081889E+03  0.00000000000E+00 0.  1.
         21   -1    0    0  503  504 -0.00000000000E+00 -0.00000000000E+00 -0.56137277517E+03  0.56137277517E+03  0.00000000000E+00 0.  1.
         25    2    1    2    0    0  0.32344482421E+03 -0.40821196323E+03 -0.22298633670E+03  0.58017330576E+03  0.12499838852E+03 0.  0.
         25    2    1    2    0    0 -0.32344482421E+03  0.40821196323E+03  0.28903438042E+03  0.60862028830E+03  0.12499688412E+03 0.  0.
          5    1    3    3  501    0  0.20152980329E+03 -0.16153960434E+03 -0.13358553731E+03  0.29082037611E+03  0.47000000000E+01 0. -1.
         -5    1    3    3    0  501  0.12191502092E+03 -0.24667235889E+03 -0.89400799388E+02  0.28935292965E+03  0.47000000000E+01 0. -1.
          5    1    4    4  502    0  0.33764758952E+01  0.44975503448E+00 -0.61214648325E+01  0.84359469390E+01  0.47000000000E+01 0.  1.
         -5    1    4    4    0  502 -0.32682130011E+03  0.40776220819E+03  0.29515584525E+03  0.60018434137E+03  0.47000000000E+01 0.  1.
<mgrwt>
<rscale>  0 0.11869574E+04</rscale>
<asrwt>0</asrwt>
<pdfrwt beam="1">  1       21 0.96526280E-01 0.11869574E+04</pdfrwt>
<pdfrwt beam="2">  1       21 0.86365042E-01 0.11869574E+04</pdfrwt>
<totfact> 0.73201801E+02</totfact>
</mgrwt>
</event>
<event>
 8    1  0.9123825E-006  0.2720493E+03  0.7546771E-02  0.1100112E+00
         21   -1    0    0  504  503  0.00000000000E+00  0.00000000000E+00  0.22163000529E+03  0.22163000529E+03  0.00000000000E+00 0.  1.
         21   -1    0    0  503  504 -0.00000000000E+00 -0.00000000000E+00 -0.83484676987E+02  0.83484676987E+02  0.00000000000E+00 0.  1.
         25    2    1    2    0    0  0.51117019198E+02 -0.13968546852E+02  0.59736760184E+02  0.14832880268E+03  0.12499953293E+03 0.  0.
         25    2    1    2    0    0 -0.51117019198E+02  0.13968546852E+02  0.78408568119E+02  0.15678587960E+03  0.12500335409E+03 0.  0.
          5    1    3    3  501    0 -0.11962553825E+02  0.45199586490E+02  0.33900788968E+02  0.57943582954E+02  0.47000000000E+01 0.  1.
         -5    1    3    3    0  501  0.63079573023E+02 -0.59168133341E+02  0.25835971216E+02  0.90385219724E+02  0.47000000000E+01 0.  1.
          5    1    4    4  502    0 -0.83839532427E+02 -0.21979149732E+02  0.53500231561E+02  0.10196330221E+03  0.47000000000E+01 0.  1.
         -5    1    4    4    0  502  0.32722513229E+02  0.35947696583E+02  0.24908336558E+02  0.54822577391E+02  0.47000000000E+01 0.  1.
<mgrwt>
<rscale>  0 0.27204933E+03</rscale>
<asrwt>0</asrwt>
<pdfrwt beam="1">  1       21 0.34096924E-01 0.27204933E+03</pdfrwt>
<pdfrwt beam="2">  1       21 0.12843797E-01 0.27204933E+03</pdfrwt>
<totfact> 0.42351208E+05</totfact>
</mgrwt>
</event>
<event>
 8    1  0.9123825E-006  0.3147850E+03  0.7546771E-02  0.1078075E+00
         21   -1    0    0  504  503  0.00000000000E+00  0.00000000000E+00  0.17519221340E+03  0.17519221340E+03  0.00000000000E+00 0.  1.
         21   -1    0    0  503  504 -0.00000000000E+00 -0.00000000000E+00 -0.14140123908E+03  0.14140123908E+03  0.00000000000E+00 0.  1.
         25    2    1    2    0    0  0.83633712079E+01 -0.86807171212E+02  0.56388350212E+02  0.16251115549E+03  0.12499919466E+03 0.  0.
         25    2    1    2    0    0 -0.83633712079E+01  0.86807171212E+02 -0.22597375892E+02  0.15408229699E+03  0.12500112759E+03 0.  0.
          5    1    3    3  501    0  0.56576892551E+02 -0.60797782661E+01  0.11638165764E+02  0.58270450289E+02  0.47000000000E+01 0.  1.
         -5    1    3    3    0  501 -0.48213521344E+02 -0.80727392946E+02  0.44750184448E+02  0.10424070520E+03  0.47000000000E+01 0.  1.
          5    1    4    4  502    0  0.17097684394E+01 -0.76338271122E+01  0.39479670038E+02  0.40520772090E+02  0.47000000000E+01 0.  1.
         -5    1    4    4    0  502 -0.10073139647E+02  0.94440998324E+02 -0.62077045930E+02  0.11356152490E+03  0.47000000000E+01 0.  1.
<mgrwt>
<rscale>  0 0.31478498E+03</rscale>
<asrwt>0</asrwt>
<pdfrwt beam="1">  1       21 0.26952648E-01 0.31478498E+03</pdfrwt>
<pdfrwt beam="2">  1       21 0.21754037E-01 0.31478498E+03</pdfrwt>
<totfact> 0.25106292E+05</totfact>
</mgrwt>
</event>
<event>
 8    1  0.9123825E-006  0.3184338E+03  0.7546771E-02  0.1076372E+00
         21   -1    0    0  504  503  0.00000000000E+00  0.00000000000E+00  0.44110127339E+03  0.44110127339E+03  0.00000000000E+00 0. -1.
         21   -1    0    0  503  504 -0.00000000000E+00 -0.00000000000E+00 -0.57469832975E+02  0.57469832975E+02  0.00000000000E+00 0. -1.
         25    2    1    2    0    0  0.59046780989E+02  0.52017479055E+02  0.28490339644E+03  0.32091506192E+03  0.12499676472E+03 0.  0.
         25    2    1    2    0    0 -0.59046780989E+02 -0.52017479055E+02  0.98728043973E+02  0.17765604444E+03  0.12498841142E+03 0.  0.
          5    1    3    3  501    0 -0.39266292250E+02  0.11255725280E+02  0.75461011542E+02  0.85935948948E+02  0.47000000000E+01 0.  1.
         -5    1    3    3    0  501  0.98313073239E+02  0.40761753775E+02  0.20944238490E+03  0.23497911297E+03  0.47000000000E+01 0.  1.
          5    1    4    4  502    0 -0.81415313751E+02 -0.41327338283E+02  0.11553907581E+03  0.14733557019E+03  0.47000000000E+01 0. -1.
         -5    1    4    4    0  502  0.22368532761E+02 -0.10690140772E+02 -0.16811031840E+02  0.30320474257E+02  0.47000000000E+01 0. -1.
<mgrwt>
<rscale>  0 0.31843377E+03</rscale>
<asrwt>0</asrwt>
<pdfrwt beam="1">  1       21 0.67861732E-01 0.31843377E+03</pdfrwt>
<pdfrwt beam="2">  1       21 0.88415131E-02 0.31843377E+03</pdfrwt>
<totfact> 0.19312307E+05</totfact>
</mgrwt>
</event>
<event>
 8    1  0.9123825E-006  0.2951121E+03  0.7546771E-02  0.1087710E+00
         21   -1    0    0  504  503  0.00000000000E+00  0.00000000000E+00  0.70878222373E+02  0.70878222373E+02  0.00000000000E+00 0.  1.
         21   -1    0    0  503  504 -0.00000000000E+00 -0.00000000000E+00 -0.30718596371E+03  0.30718596371E+03  0.00000000000E+00 0.  1.
         25    2    1    2    0    0 -0.58676013067E+02  0.16889380159E+02 -0.55143322705E+02  0.14964691322E+03  0.12500114770E+03 0.  0.
         25    2    1    2    0    0  0.58676013067E+02 -0.16889380159E+02 -0.18116441863E+03  0.22841727286E+03  0.12500311313E+03 0.  0.
          5    1    3    3  501    0 -0.68041019233E+02 -0.30508578425E+02 -0.66241782479E+02  0.99851977455E+02  0.47000000000E+01 0.  1.
         -5    1    3    3    0  501  0.93650061657E+01  0.47397958584E+02  0.11098459774E+02  0.49794935764E+02  0.47000000000E+01 0.  1.
          5    1    4    4  502    0  0.90684034024E+01 -0.33452177478E+02  0.46876913445E+01  0.35289496574E+02  0.47000000000E+01 0. -1.
         -5    1    4    4    0  502  0.49607609665E+02  0.16562797319E+02 -0.18585210998E+03  0.19312777629E+03  0.47000000000E+01 0. -1.
<mgrwt>
<rscale>  0 0.29511215E+03</rscale>
<asrwt>0</asrwt>
<pdfrwt beam="1">  1       21 0.10904342E-01 0.29511215E+03</pdfrwt>
<pdfrwt beam="2">  1       21 0.47259379E-01 0.29511215E+03</pdfrwt>
<totfact> 0.29094651E+05</totfact>
</mgrwt>
</event>
<event>
 8    1  0.9123825E-006  0.2996932E+03  0.7546771E-02  0.1085394E+00
         21   -1    0    0  504  503  0.00000000000E+00  0.00000000000E+00  0.16406069886E+03  0.16406069886E+03  0.00000000000E+00 0.  1.
         21   -1    0    0  503  504 -0.00000000000E+00 -0.00000000000E+00 -0.13686402046E+03  0.13686402046E+03  0.00000000000E+00 0.  1.
         25    2    1    2    0    0 -0.21415047313E+02 -0.33623219215E+02 -0.59124712601E+02  0.14390724133E+03  0.12499774936E+03 0.  0.
         25    2    1    2    0    0  0.21415047313E+02  0.33623219215E+02  0.86321391004E+02  0.15701747799E+03  0.12495591514E+03 0.  0.
          5    1    3    3  501    0  0.13183598477E+02  0.17481469868E+02 -0.76427117784E+02  0.79640463273E+02  0.47000000000E+01 0. -1.
         -5    1    3    3    0  501 -0.34598645790E+02 -0.51104689083E+02  0.17302405182E+02  0.64266778057E+02  0.47000000000E+01 0. -1.
          5    1    4    4  502    0  0.72349252557E+02  0.32463845031E+02  0.45356013489E+02  0.91474442001E+02  0.47000000000E+01 0.  1.
         -5    1    4    4    0  502 -0.50934205244E+02  0.11593741836E+01  0.40965377515E+02  0.65543035994E+02  0.47000000000E+01 0.  1.
<mgrwt>
<rscale>  0 0.29969322E+03</rscale>
<asrwt>0</asrwt>
<pdfrwt beam="1">  1       21 0.25240108E-01 0.29969322E+03</pdfrwt>
<pdfrwt beam="2">  1       21 0.21056003E-01 0.29969322E+03</pdfrwt>
<totfact> 0.30425452E+05</totfact>
</mgrwt>
</event>
<event>
 8    1  0.9123825E-006  0.2812435E+03  0.7546771E-02  0.1095012E+00
         21   -1    0    0  504  503  0.00000000000E+00  0.00000000000E+00  0.13236974547E+03  0.13236974547E+03  0.00000000000E+00 0. -1.
         21   -1    0    0  503  504 -0.00000000000E+00 -0.00000000000E+00 -0.14938817197E+03  0.14938817197E+03  0.00000000000E+00 0. -1.
         25    2    1    2    0    0  0.29659122926E+02 -0.56182316341E+02  0.21623713606E+01  0.14023563665E+03  0.12500096678E+03 0.  0.
         25    2    1    2    0    0 -0.29659122926E+02  0.56182316341E+02 -0.19180797861E+02  0.14152228079E+03  0.12499814683E+03 0.  0.
          5    1    3    3  501    0  0.42384698036E+02 -0.81599143979E+02 -0.30209547166E+02  0.96899895076E+02  0.47000000000E+01 0.  1.
         -5    1    3    3    0  501 -0.12725575110E+02  0.25416827638E+02  0.32371918526E+02  0.43335741578E+02  0.47000000000E+01 0.  1.
          5    1    4    4  502    0 -0.53453268599E+02  0.26465191100E+02  0.39300157850E+02  0.71583871583E+02  0.47000000000E+01 0. -1.
         -5    1    4    4    0  502  0.23794145673E+02  0.29717125242E+02 -0.58480955711E+02  0.69938409203E+02  0.47000000000E+01 0. -1.
<mgrwt>
<rscale>  0 0.28124348E+03</rscale>
<asrwt>0</asrwt>
<pdfrwt beam="1">  1       21 0.20364576E-01 0.28124348E+03</pdfrwt>
<pdfrwt beam="2">  1       21 0.22982796E-01 0.28124348E+03</pdfrwt>
<totfact> 0.38932293E+05</totfact>
</mgrwt>
</event>
<event>
 8    1  0.9123825E-006  0.4044729E+03  0.7546771E-02  0.1042242E+00
         21   -1    0    0  504  503  0.00000000000E+00  0.00000000000E+00  0.28776334994E+02  0.28776334994E+02  0.00000000000E+00 0.  1.
         21   -1    0    0  503  504 -0.00000000000E+00 -0.00000000000E+00 -0.14212922409E+04  0.14212922409E+04  0.00000000000E+00 0.  1.
         25    2    1    2    0    0 -0.48164833194E+02 -0.11228736989E+03 -0.10609016599E+04  0.10752058933E+04  0.12500830565E+03 0.  0.
         25    2    1    2    0    0  0.48164833194E+02  0.11228736989E+03 -0.33161424605E+03  0.37486268260E+03  0.12500287210E+03 0.  0.
          5    1    3    3  501    0  0.22353700819E+02  0.12197915832E+02 -0.84868313624E+02  0.88731041627E+02  0.47000000000E+01 0.  1.
         -5    1    3    3    0  501 -0.70518534013E+02 -0.12448528572E+03 -0.97603334624E+03  0.98647485167E+03  0.47000000000E+01 0.  1.
          5    1    4    4  502    0 -0.38257854633E+02  0.24709669960E+02 -0.13814766170E+03  0.14553727242E+03  0.47000000000E+01 0.  1.
         -5    1    4    4    0  502  0.86422687826E+02  0.87577699929E+02 -0.19346658435E+03  0.22932541018E+03  0.47000000000E+01 0.  1.
<mgrwt>
<rscale>  0 0.40447290E+03</rscale>
<asrwt>0</asrwt>
<pdfrwt beam="1">  1       21 0.44271287E-02 0.40447290E+03</pdfrwt>
<pdfrwt beam="2">  1       21 0.21866033E+00 0.40447290E+03</pdfrwt>
<totfact> 0.30366375E+04</totfact>
</mgrwt>
</event>
<event>
 8    1  0.9123825E-006  0.4108043E+03  0.7546771E-02  0.1040101E+00
         21   -1    0    0  504  503  0.00000000000E+00  0.00000000000E+00  0.19081950522E+03  0.19081950522E+03  0.00000000000E+00 0.  1.
         21   -1    0    0  503  504 -0.00000000000E+00 -0.00000000000E+00 -0.22109916378E+03  0.22109916378E+03  0.00000000000E+00 0.  1.
         25    2    1    2    0    0  0.81683271433E+02  0.11756725801E+03 -0.93263393994E+02  0.21170026622E+03  0.12499890028E+03 0.  0.
         25    2    1    2    0    0 -0.81683271433E+02 -0.11756725801E+03  0.62983735434E+02  0.20021840278E+03  0.12500496348E+03 0.  0.
          5    1    3    3  501    0  0.57961648833E+02  0.11116344573E+03 -0.12103501370E+03  0.17432277230E+03  0.47000000000E+01 0. -1.
         -5    1    3    3    0  501  0.23721622600E+02  0.64038122792E+01  0.27771619706E+02  0.37377493918E+02  0.47000000000E+01 0. -1.
          5    1    4    4  502    0 -0.10153265220E+03 -0.39499341613E+02  0.41910102052E+02  0.11682304612E+03  0.47000000000E+01 0. -1.
         -5    1    4    4    0  502  0.19849380771E+02 -0.78067916397E+02  0.21073633382E+02  0.83395356654E+02  0.47000000000E+01 0. -1.
<mgrwt>
<rscale>  0 0.41080425E+03</rscale>
<asrwt>0</asrwt>
<pdfrwt beam="1">  1       21 0.29356847E-01 0.41080425E+03</pdfrwt>
<pdfrwt beam="2">  1       21 0.34015256E-01 0.41080425E+03</pdfrwt>
<totfact> 0.86827264E+04</totfact>
</mgrwt>
</event>
<event>
 8    1  0.9123825E-006  0.2980796E+03  0.7546771E-02  0.1086205E+00
         21   -1    0    0  504  503  0.00000000000E+00  0.00000000000E+00  0.32478328301E+02  0.32478328301E+02  0.00000000000E+00 0. -1.
         21   -1    0    0  503  504 -0.00000000000E+00 -0.00000000000E+00 -0.68392870446E+03  0.68392870446E+03  0.00000000000E+00 0. -1.
         25    2    1    2    0    0 -0.10956351301E+02 -0.69742518324E+02 -0.22957756766E+03  0.27077746782E+03  0.12502206611E+03 0.  0.
         25    2    1    2    0    0  0.10956351301E+02  0.69742518324E+02 -0.42187280850E+03  0.44562956493E+03  0.12499992838E+03 0.  0.
          5    1    3    3  501    0  0.15510036899E+02  0.29011782252E+02 -0.23553543225E+02  0.40732102235E+02  0.47000000000E+01 0.  1.
         -5    1    3    3    0  501 -0.26466388200E+02 -0.98754300575E+02 -0.20602402443E+03  0.23004536559E+03  0.47000000000E+01 0.  1.
          5    1    4    4  502    0 -0.14147662469E+02  0.45263318024E+01 -0.32869429084E+03  0.32906332349E+03  0.47000000000E+01 0. -1.
         -5    1    4    4    0  502  0.25104013770E+02  0.65216186521E+02 -0.93178517657E+02  0.11656624144E+03  0.47000000000E+01 0. -1.
<mgrwt>
<rscale>  0 0.29807959E+03</rscale>
<asrwt>0</asrwt>
<pdfrwt beam="1">  1       21 0.49966661E-02 0.29807959E+03</pdfrwt>
<pdfrwt beam="2">  1       21 0.10521980E+00 0.29807959E+03</pdfrwt>
<totfact> 0.18948418E+05</totfact>
</mgrwt>
</event>
<event>
 8    1  0.9123825E-006  0.2509601E+03  0.7546771E-02  0.1112700E+00
         21   -1    0    0  504  503  0.00000000000E+00  0.00000000000E+00  0.30797104035E+02  0.30797104035E+02  0.00000000000E+00 0.  1.
         21   -1    0    0  503  504 -0.00000000000E+00 -0.00000000000E+00 -0.51125719754E+03  0.51125719754E+03  0.00000000000E+00 0.  1.
         25    2    1    2    0    0 -0.60516129968E+01  0.23867957532E+01 -0.22152634228E+03  0.25443949167E+03  0.12499286293E+03 0.  0.
         25    2    1    2    0    0  0.60516129968E+01 -0.23867957532E+01 -0.25893375123E+03  0.28761480991E+03  0.12503308578E+03 0.  0.
          5    1    3    3  501    0  0.97701871058E+01  0.37053764439E+02 -0.21117215996E+03  0.21467232974E+03  0.47000000000E+01 0. -1.
         -5    1    3    3    0  501 -0.15821800103E+02 -0.34666968686E+02 -0.10354182322E+02  0.39767161929E+02  0.47000000000E+01 0. -1.
          5    1    4    4  502    0  0.49189876190E+02 -0.36185191442E+02 -0.82124354415E+02  0.10244760411E+03  0.47000000000E+01 0.  1.
         -5    1    4    4    0  502 -0.43138263193E+02  0.33798395689E+02 -0.17680939681E+03  0.18516720580E+03  0.47000000000E+01 0.  1.
<mgrwt>
<rscale>  0 0.25096009E+03</rscale>
<asrwt>0</asrwt>
<pdfrwt beam="1">  1       21 0.47380162E-02 0.25096009E+03</pdfrwt>
<pdfrwt beam="2">  1       21 0.78654950E-01 0.25096009E+03</pdfrwt>
<totfact> 0.41524019E+05</totfact>
</mgrwt>
</event>
<event>
 8    1  0.9123825E-006  0.3460752E+03  0.7546771E-02  0.1064238E+00
         21   -1    0    0  504  503  0.00000000000E+00  0.00000000000E+00  0.25033620454E+04  0.25033620454E+04  0.00000000000E+00 0. -1.
         21   -1    0    0  503  504 -0.00000000000E+00 -0.00000000000E+00 -0.11960720998E+02  0.11960720998E+02  0.00000000000E+00 0. -1.
         25    2    1    2    0    0  0.10065522897E+03  0.56244214199E+02  0.14780167883E+04  0.14877677861E+04  0.12499788820E+03 0.  0.
         25    2    1    2    0    0 -0.10065522897E+03 -0.56244214199E+02  0.10133845361E+04  0.10275549803E+04  0.12500453116E+03 0.  0.
          5    1    3    3  501    0  0.29150073015E+02  0.23314651251E+02  0.11420337307E+04  0.11426532422E+04  0.47000000000E+01 0.  1.
         -5    1    3    3    0  501  0.71505155954E+02  0.32929562948E+02  0.33598305757E+03  0.34511454391E+03  0.47000000000E+01 0.  1.
          5    1    4    4  502    0 -0.12696765911E+03 -0.59703509644E+02  0.90751292254E+03  0.91830664274E+03  0.47000000000E+01 0.  1.
         -5    1    4    4    0  502  0.26312430138E+02  0.34592954456E+01  0.10587161352E+03  0.10924833754E+03  0.47000000000E+01 0.  1.
<mgrwt>
<rscale>  0 0.34607522E+03</rscale>
<asrwt>0</asrwt>
<pdfrwt beam="1">  1       21 0.38513221E+00 0.34607522E+03</pdfrwt>
<pdfrwt beam="2">  1       21 0.18401129E-02 0.34607522E+03</pdfrwt>
<totfact> 0.13227210E+04</totfact>
</mgrwt>
</event>
<event>
 8    1  0.9123825E-006  0.3498323E+03  0.7546771E-02  0.1062684E+00
         21   -1    0    0  504  503  0.00000000000E+00  0.00000000000E+00  0.98851297050E+03  0.98851297050E+03  0.00000000000E+00 0.  1.
         21   -1    0    0  503  504 -0.00000000000E+00 -0.00000000000E+00 -0.30951197787E+02  0.30951197787E+02  0.00000000000E+00 0.  1.
         25    2    1    2    0    0  0.86367588662E+02  0.69221091919E+02  0.32680841689E+03  0.36698558101E+03  0.12499502144E+03 0.  0.
         25    2    1    2    0    0 -0.86367588662E+02 -0.69221091919E+02  0.63075335582E+03  0.65247858727E+03  0.12501036368E+03 0.  0.
          5    1    3    3  501    0 -0.21775912032E+02  0.52924065475E+02  0.11753786982E+03  0.13081432603E+03  0.47000000000E+01 0. -1.
         -5    1    3    3    0  501  0.10814350069E+03  0.16297026444E+02  0.20927054707E+03  0.23617125499E+03  0.47000000000E+01 0. -1.
          5    1    4    4  502    0 -0.30115454473E+02 -0.85421653458E+02  0.22653417160E+03  0.24401561504E+03  0.47000000000E+01 0. -1.
         -5    1    4    4    0  502 -0.56252134189E+02  0.16200561539E+02  0.40421918422E+03  0.40846297223E+03  0.47000000000E+01 0. -1.
<mgrwt>
<rscale>  0 0.34983231E+03</rscale>
<asrwt>0</asrwt>
<pdfrwt beam="1">  1       21 0.15207889E+00 0.34983231E+03</pdfrwt>
<pdfrwt beam="2">  1       21 0.47617235E-02 0.34983231E+03</pdfrwt>
<totfact> 0.79125246E+04</totfact>
</mgrwt>
</event>
<event>
 8    1  0.9123825E-006  0.2611524E+03  0.7546771E-02  0.1106453E+00
         21   -1    0    0  504  503  0.00000000000E+00  0.00000000000E+00  0.65098179627E+02  0.65098179627E+02  0.00000000000E+00 0.  1.
         21   -1    0    0  503  504 -0.00000000000E+00 -0.00000000000E+00 -0.26191430918E+03  0.26191430918E+03  0.00000000000E+00 0.  1.
         25    2    1    2    0    0 -0.95800987352E+00  0.23854205942E+02 -0.13500967223E+03  0.18553302875E+03  0.12499980894E+03 0.  0.
         25    2    1    2    0    0  0.95800987352E+00 -0.23854205942E+02 -0.61806457317E+02  0.14147946005E+03  0.12500583397E+03 0.  0.
          5    1    3    3  501    0 -0.23332834471E+02  0.52248609959E+02 -0.13748734691E+03  0.14899395614E+03  0.47000000000E+01 0.  1.
         -5    1    3    3    0  501  0.22374824598E+02 -0.28394404017E+02  0.24776746732E+01  0.36539072608E+02  0.47000000000E+01 0.  1.
          5    1    4    4  502    0 -0.49989354355E+02  0.14197998126E+01 -0.67490976663E+02  0.84131286162E+02  0.47000000000E+01 0.  1.
         -5    1    4    4    0  502  0.50947364229E+02 -0.25274005754E+02  0.56845193455E+01  0.57348173893E+02  0.47000000000E+01 0.  1.
<mgrwt>
<rscale>  0 0.26115241E+03</rscale>
<asrwt>0</asrwt>
<pdfrwt beam="1">  1       21 0.10015105E-01 0.26115241E+03</pdfrwt>
<pdfrwt beam="2">  1       21 0.40294509E-01 0.26115241E+03</pdfrwt>
<totfact> 0.47370384E+05</totfact>
</mgrwt>
</event>
<event>
 8    1  0.9123825E-006  0.3038715E+03  0.7546771E-02  0.1083321E+00
         21   -1    0    0  504  503  0.00000000000E+00  0.00000000000E+00  0.74585031595E+02  0.74585031595E+02  0.00000000000E+00 0. -1.
         21   -1    0    0  503  504 -0.00000000000E+00 -0.00000000000E+00 -0.30950547545E+03  0.30950547545E+03  0.00000000000E+00 0. -1.
         25    2    1    2    0    0 -0.80532413309E+02  0.30100742129E+02 -0.12787368905E+03  0.19841419279E+03  0.12499994912E+03 0.  0.
         25    2    1    2    0    0  0.80532413309E+02 -0.30100742129E+02 -0.10704675480E+03  0.18567631425E+03  0.12500064676E+03 0.  0.
          5    1    3    3  501    0  0.91499824153E+01 -0.37610603991E+02 -0.37986061627E+02  0.54436298447E+02  0.47000000000E+01 0. -1.
         -5    1    3    3    0  501 -0.89682395724E+02  0.67711346119E+02 -0.89887627427E+02  0.14397789435E+03  0.47000000000E+01 0. -1.
          5    1    4    4  502    0  0.89775740088E+01  0.43003577257E+02 -0.11576733241E+02  0.45672915875E+02  0.47000000000E+01 0. -1.
         -5    1    4    4    0  502  0.71554839300E+02 -0.73104319386E+02 -0.95470021559E+02  0.14000339838E+03  0.47000000000E+01 0. -1.
<mgrwt>
<rscale>  0 0.30387152E+03</rscale>
<asrwt>0</asrwt>
<pdfrwt beam="1">  1       21 0.11474620E-01 0.30387152E+03</pdfrwt>
<pdfrwt beam="2">  1       21 0.47616226E-01 0.30387152E+03</pdfrwt>
<totfact> 0.26085944E+05</totfact>
</mgrwt>
</event>
<event>
 8    1  0.9123825E-006  0.2987549E+03  0.7546771E-02  0.1085865E+00
         21   -1    0    0  504  503  0.00000000000E+00  0.00000000000E+00  0.62349177378E+03  0.62349177378E+03  0.00000000000E+00 0.  1.
         21   -1    0    0  503  504 -0.00000000000E+00 -0.00000000000E+00 -0.35788161930E+02  0.35788161930E+02  0.00000000000E+00 0.  1.
         25    2    1    2    0    0 -0.71028207414E+02 -0.72426728388E+01  0.38188753197E+03  0.40811654171E+03  0.12499424781E+03 0.  0.
         25    2    1    2    0    0  0.71028207414E+02  0.72426728388E+01  0.20581607988E+03  0.25116339400E+03  0.12500131675E+03 0.  0.
          5    1    3    3  501    0 -0.96653326994E+02  0.19354082113E+02  0.20712883096E+03  0.22943602317E+03  0.47000000000E+01 0.  1.
         -5    1    3    3    0  501  0.25625119580E+02 -0.26596754952E+02  0.17475870101E+03  0.17868051854E+03  0.47000000000E+01 0.  1.
          5    1    4    4  502    0  0.83750952962E+02  0.11475654955E+02  0.57905997276E+02  0.10257244903E+03  0.47000000000E+01 0.  1.
         -5    1    4    4    0  502 -0.12722745548E+02 -0.42329821163E+01  0.14791008261E+03  0.14859094497E+03  0.47000000000E+01 0.  1.
<mgrwt>
<rscale>  0 0.29875491E+03</rscale>
<asrwt>0</asrwt>
<pdfrwt beam="1">  1       21 0.95921803E-01 0.29875491E+03</pdfrwt>
<pdfrwt beam="2">  1       21 0.55058715E-02 0.29875491E+03</pdfrwt>
<totfact> 0.20038760E+05</totfact>
</mgrwt>
</event>
<event>
 8    1  0.9123825E-006  0.3444239E+03  0.7546771E-02  0.1064927E+00
         21   -1    0    0  504  503  0.00000000000E+00  0.00000000000E+00  0.62000124613E+02  0.62000124613E+02  0.00000000000E+00 0. -1.
         21   -1    0    0  503  504 -0.00000000000E+00 -0.00000000000E+00 -0.47833697120E+03  0.47833697120E+03  0.00000000000E+00 0. -1.
         25    2    1    2    0    0 -0.77627537319E+01 -0.24244379310E+02 -0.26684388366E+02  0.13033489786E+03  0.12500831470E+03 0.  0.
         25    2    1    2    0    0  0.77627537319E+01  0.24244379310E+02 -0.38965245822E+03  0.41000219795E+03  0.12499885540E+03 0.  0.
          5    1    3    3  501    0  0.48648811520E+02  0.69926659690E+01 -0.40927622382E+02  0.64130839021E+02  0.47000000000E+01 0. -1.
         -5    1    3    3    0  501 -0.56411565252E+02 -0.31237045279E+02  0.14243234016E+02  0.66204058842E+02  0.47000000000E+01 0. -1.
          5    1    4    4  502    0 -0.46529309842E+02  0.36714920952E+02 -0.11226346435E+03  0.12703596941E+03  0.47000000000E+01 0. -1.
         -5    1    4    4    0  502  0.54292063574E+02 -0.12470541643E+02 -0.27738899387E+03  0.28296622854E+03  0.47000000000E+01 0. -1.
<mgrwt>
<rscale>  0 0.34442388E+03</rscale>
<asrwt>0</asrwt>
<pdfrwt beam="1">  1       21 0.95384814E-02 0.34442388E+03</pdfrwt>
<pdfrwt beam="2">  1       21 0.73590298E-01 0.34442388E+03</pdfrwt>
<totfact> 0.13992588E+05</totfact>
</mgrwt>
</event>
<event>
 8    1  0.9123825E-006  0.3773272E+03  0.7546771E-02  0.1051926E+00
         21   -1    0    0  504  503  0.00000000000E+00  0.00000000000E+00  0.16618799527E+04  0.16618799527E+04  0.00000000000E+00 0. -1.
         21   -1    0    0  503  504 -0.00000000000E+00 -0.00000000000E+00 -0.21417887939E+02  0.21417887939E+02  0.00000000000E+00 0. -1.
         25    2    1    2    0    0  0.27360255302E+02 -0.83874008575E+02  0.13127249159E+04  0.13216076159E+04  0.12496620572E+03 0.  0.
         25    2    1    2    0    0 -0.27360255302E+02  0.83874008575E+02  0.32773714885E+03  0.36169022477E+03  0.12499898830E+03 0.  0.
          5    1    3    3  501    0  0.27203237741E+02 -0.11389034538E+03  0.87239189008E+03  0.88022765623E+03  0.47000000000E+01 0. -1.
         -5    1    3    3    0  501  0.15701756090E+00  0.30016336803E+02  0.44033302587E+03  0.44137995968E+03  0.47000000000E+01 0. -1.
          5    1    4    4  502    0 -0.11382707013E+02  0.10456072334E+03  0.31520655918E+03  0.33232480472E+03  0.47000000000E+01 0.  1.
         -5    1    4    4    0  502 -0.15977548289E+02 -0.20686714769E+02  0.12530589672E+02  0.29365420052E+02  0.47000000000E+01 0.  1.
<mgrwt>
<rscale>  0 0.37732722E+03</rscale>
<asrwt>0</asrwt>
<pdfrwt beam="1">  1       21 0.25567374E+00 0.37732722E+03</pdfrwt>
<pdfrwt beam="2">  1       21 0.32950610E-02 0.37732722E+03</pdfrwt>
<totfact> 0.29878239E+04</totfact>
</mgrwt>
</event>
<event>
 8    1  0.9123825E-006  0.2676816E+03  0.7546771E-02  0.1102614E+00
         21   -1    0    0  504  503  0.00000000000E+00  0.00000000000E+00  0.11414379208E+03  0.11414379208E+03  0.00000000000E+00 0. -1.
         21   -1    0    0  503  504 -0.00000000000E+00 -0.00000000000E+00 -0.15693677295E+03  0.15693677295E+03  0.00000000000E+00 0. -1.
         25    2    1    2    0    0 -0.28085297068E+02  0.38297450868E+02 -0.27400983482E+02  0.13649397096E+03  0.12499724621E+03 0.  0.
         25    2    1    2    0    0  0.28085297068E+02 -0.38297450868E+02 -0.15391997387E+02  0.13458659406E+03  0.12498463531E+03 0.  0.
          5    1    3    3  501    0 -0.73156747534E+02 -0.58610765982E+00 -0.81784721050E+01  0.73764697776E+02  0.47000000000E+01 0. -1.
         -5    1    3    3    0  501  0.45071450466E+02  0.38883558528E+02 -0.19222511377E+02  0.62729273187E+02  0.47000000000E+01 0. -1.
          5    1    4    4  502    0 -0.68682762308E+01 -0.73958367747E+02 -0.33023336913E+02  0.81422626825E+02  0.47000000000E+01 0.  1.
         -5    1    4    4    0  502  0.34953573299E+02  0.35660916879E+02  0.17631339526E+02  0.53163967238E+02  0.47000000000E+01 0.  1.
<mgrwt>
<rscale>  0 0.26768159E+03</rscale>
<asrwt>0</asrwt>
<pdfrwt beam="1">  1       21 0.17560583E-01 0.26768159E+03</pdfrwt>
<pdfrwt beam="2">  1       21 0.24144119E-01 0.26768159E+03</pdfrwt>
<totfact> 0.46870545E+05</totfact>
</mgrwt>
</event>
<event>
 8    1  0.9123825E-006  0.3061706E+03  0.7546771E-02  0.1082196E+00
         21   -1    0    0  504  503  0.00000000000E+00  0.00000000000E+00  0.25137582314E+03  0.25137582314E+03  0.00000000000E+00 0.  1.
         21   -1    0    0  503  504 -0.00000000000E+00 -0.00000000000E+00 -0.93227391742E+02  0.93227391742E+02  0.00000000000E+00 0.  1.
         25    2    1    2    0    0  0.32700466889E+02 -0.13504568792E+02 -0.12070815452E+02  0.13047217045E+03  0.12500235503E+03 0.  0.
         25    2    1    2    0    0 -0.32700466889E+02  0.13504568792E+02  0.17021924685E+03  0.21413104443E+03  0.12500327307E+03 0.  0.
          5    1    3    3  501    0  0.87142996241E+01  0.46764434984E+02 -0.37383281473E+02  0.60683203038E+02  0.47000000000E+01 0.  1.
         -5    1    3    3    0  501  0.23986167265E+02 -0.60269003775E+02  0.25312466021E+02  0.69788967410E+02  0.47000000000E+01 0.  1.
          5    1    4    4  502    0 -0.46825541601E+02 -0.14271010679E+02  0.91664218652E+01  0.50024058030E+02  0.47000000000E+01 0.  1.
         -5    1    4    4    0  502  0.14125074712E+02  0.27775579471E+02  0.16105282498E+03  0.16410698640E+03  0.47000000000E+01 0.  1.
<mgrwt>
<rscale>  0 0.30617062E+03</rscale>
<asrwt>0</asrwt>
<pdfrwt beam="1">  1       21 0.38673203E-01 0.30617062E+03</pdfrwt>
<pdfrwt beam="2">  1       21 0.14342676E-01 0.30617062E+03</pdfrwt>
<totfact> 0.26699563E+05</totfact>
</mgrwt>
</event>
<event>
 8    1  0.9123825E-006  0.3938888E+03  0.7546771E-02  0.1045917E+00
         21   -1    0    0  504  503  0.00000000000E+00  0.00000000000E+00  0.10761010938E+04  0.10761010938E+04  0.00000000000E+00 0.  1.
         21   -1    0    0  503  504 -0.00000000000E+00 -0.00000000000E+00 -0.36044097875E+02  0.36044097875E+02  0.00000000000E+00 0.  1.
         25    2    1    2    0    0  0.78597459973E+02  0.12601815270E+03  0.61387965709E+03  0.64384071314E+03  0.12499797995E+03 0.  0.
         25    2    1    2    0    0 -0.78597459973E+02 -0.12601815270E+03  0.42617733886E+03  0.46830447856E+03  0.12499529972E+03 0.  0.
          5    1    3    3  501    0  0.45852422634E+02  0.13207885882E+03  0.57789982551E+03  0.59459025214E+03  0.47000000000E+01 0. -1.
         -5    1    3    3    0  501  0.32745037340E+02 -0.60607061249E+01  0.35979831571E+02  0.49250461003E+02  0.47000000000E+01 0. -1.
          5    1    4    4  502    0 -0.63065107286E+02 -0.19760366746E+02  0.27461719700E+03  0.28249668093E+03  0.47000000000E+01 0. -1.
         -5    1    4    4    0  502 -0.15532352688E+02 -0.10625778595E+03  0.15156014186E+03  0.18580779762E+03  0.47000000000E+01 0. -1.
<mgrwt>
<rscale>  0 0.39388878E+03</rscale>
<asrwt>0</asrwt>
<pdfrwt beam="1">  1       21 0.16555399E+00 0.39388878E+03</pdfrwt>
<pdfrwt beam="2">  1       21 0.55452467E-02 0.39388878E+03</pdfrwt>
<totfact> 0.47535213E+04</totfact>
</mgrwt>
</event>
<event>
 8    1  0.9123825E-006  0.3889359E+03  0.7546771E-02  0.1047680E+00
         21   -1    0    0  504  503  0.00000000000E+00  0.00000000000E+00  0.56348327793E+02  0.56348327793E+02  0.00000000000E+00 0. -1.
         21   -1    0    0  503  504 -0.00000000000E+00 -0.00000000000E+00 -0.67114285247E+03  0.67114285247E+03  0.00000000000E+00 0. -1.
         25    2    1    2    0    0  0.14743701440E+03 -0.21085445138E+02 -0.30110171143E+03  0.35842554617E+03  0.12499744921E+03 0.  0.
         25    2    1    2    0    0 -0.14743701440E+03  0.21085445138E+02 -0.31369281325E+03  0.36906563409E+03  0.12499596783E+03 0.  0.
          5    1    3    3  501    0  0.14308613815E+02  0.43595913457E+02 -0.79134355473E+02  0.91595176268E+02  0.47000000000E+01 0. -1.
         -5    1    3    3    0  501  0.13312840058E+03 -0.64681358595E+02 -0.22196735596E+03  0.26683036990E+03  0.47000000000E+01 0. -1.
          5    1    4    4  502    0 -0.94696487694E+02  0.45275659893E+02 -0.91346198464E+02  0.13922473966E+03  0.47000000000E+01 0. -1.
         -5    1    4    4    0  502 -0.52740526705E+02 -0.24190214756E+02 -0.22234661478E+03  0.22984089443E+03  0.47000000000E+01 0. -1.
<mgrwt>
<rscale>  0 0.38893587E+03</rscale>
<asrwt>0</asrwt>
<pdfrwt beam="1">  1       21 0.86689727E-02 0.38893587E+03</pdfrwt>
<pdfrwt beam="2">  1       21 0.10325276E+00 0.38893587E+03</pdfrwt>
<totfact> 0.74240098E+04</totfact>
</mgrwt>
</event>
<event>
 8    1  0.9123825E-006  0.2940389E+03  0.7546771E-02  0.1088259E+00
         21   -1    0    0  504  503  0.00000000000E+00  0.00000000000E+00  0.36442394931E+03  0.36442394931E+03  0.00000000000E+00 0.  1.
         21   -1    0    0  503  504 -0.00000000000E+00 -0.00000000000E+00 -0.59312013632E+02  0.59312013632E+02  0.00000000000E+00 0.  1.
         25    2    1    2    0    0  0.59044979554E+02  0.43648251739E+02  0.11733140294E+03  0.18650567940E+03  0.12500492327E+03 0.  0.
         25    2    1    2    0    0 -0.59044979554E+02 -0.43648251739E+02  0.18778053274E+03  0.23723028355E+03  0.12500079786E+03 0.  0.
          5    1    3    3  501    0  0.70571365195E+02  0.21296763200E+02  0.80873831780E+01  0.74305891253E+02  0.47000000000E+01 0. -1.
         -5    1    3    3    0  501 -0.11526385640E+02  0.22351488538E+02  0.10924401976E+03  0.11219978814E+03  0.47000000000E+01 0. -1.
          5    1    4    4  502    0 -0.67581012421E+02  0.26674117575E+02  0.80013270626E+02  0.10818001324E+03  0.47000000000E+01 0. -1.
         -5    1    4    4    0  502  0.85360328660E+01 -0.70322369314E+02  0.10776726212E+03  0.12905027031E+03  0.47000000000E+01 0. -1.
<mgrwt>
<rscale>  0 0.29403890E+03</rscale>
<asrwt>0</asrwt>
<pdfrwt beam="1">  1       21 0.56065222E-01 0.29403890E+03</pdfrwt>
<pdfrwt beam="2">  1       21 0.91249254E-02 0.29403890E+03</pdfrwt>
<totfact> 0.27850311E+05</totfact>
</mgrwt>
</event>
<event>
 8    1  0.9123825E-006  0.3589942E+03  0.7546771E-02  0.1058983E+00
         21   -1    0    0  504  503  0.00000000000E+00  0.00000000000E+00  0.11713626411E+03  0.11713626411E+03  0.00000000000E+00 0. -1.
         21   -1    0    0  503  504 -0.00000000000E+00 -0.00000000000E+00 -0.27505754027E+03  0.27505754027E+03  0.00000000000E+00 0. -1.
         25    2    1    2    0    0  0.27757126145E+02 -0.11623012602E+03 -0.13151777311E+03  0.21726007401E+03  0.12500045948E+03 0.  0.
         25    2    1    2    0    0 -0.27757126145E+02  0.11623012602E+03 -0.26403503053E+02  0.17493373036E+03  0.12499905918E+03 0.  0.
          5    1    3    3  501    0  0.21830928162E+02 -0.12605566357E+03 -0.54308696398E+02  0.13906165628E+03  0.47000000000E+01 0. -1.
         -5    1    3    3    0  501  0.59261979831E+01  0.98255375428E+01 -0.77209076708E+02  0.78198417738E+02  0.47000000000E+01 0. -1.
          5    1    4    4  502    0  0.43095048809E+02  0.16114027057E+02  0.91544417895E+01  0.47145932002E+02  0.47000000000E+01 0. -1.
         -5    1    4    4    0  502 -0.70852174954E+02  0.10011609897E+03 -0.35557944842E+02  0.12778779836E+03  0.47000000000E+01 0. -1.
<mgrwt>
<rscale>  0 0.35899422E+03</rscale>
<asrwt>0</asrwt>
<pdfrwt beam="1">  1       21 0.18020964E-01 0.35899422E+03</pdfrwt>
<pdfrwt beam="2">  1       21 0.42316544E-01 0.35899422E+03</pdfrwt>
<totfact> 0.14382887E+05</totfact>
</mgrwt>
</event>
<event>
 8    1  0.9123825E-006  0.3002873E+03  0.7546771E-02  0.1085097E+00
         21   -1    0    0  504  503  0.00000000000E+00  0.00000000000E+00  0.11003657841E+03  0.11003657841E+03  0.00000000000E+00 0.  1.
         21   -1    0    0  503  504 -0.00000000000E+00 -0.00000000000E+00 -0.20486928116E+03  0.20486928116E+03  0.00000000000E+00 0.  1.
         25    2    1    2    0    0  0.21996242255E+02  0.76147734842E+02 -0.73851051484E+02  0.16541648287E+03  0.12500529111E+03 0.  0.
         25    2    1    2    0    0 -0.21996242255E+02 -0.76147734842E+02 -0.20981651268E+02  0.14948937671E+03  0.12499812744E+03 0.  0.
          5    1    3    3  501    0  0.61502432210E+01  0.10512700635E+03 -0.78907803502E+02  0.13167400810E+03  0.47000000000E+01 0. -1.
         -5    1    3    3    0  501  0.15845999034E+02 -0.28979271509E+02  0.50567520181E+01  0.33742474769E+02  0.47000000000E+01 0. -1.
          5    1    4    4  502    0 -0.67353579405E+02 -0.61900488573E+02  0.10615726799E+02  0.92211489521E+02  0.47000000000E+01 0. -1.
         -5    1    4    4    0  502  0.45357337149E+02 -0.14247246269E+02 -0.31597378067E+02  0.57277887184E+02  0.47000000000E+01 0. -1.
<mgrwt>
<rscale>  0 0.30028729E+03</rscale>
<asrwt>0</asrwt>
<pdfrwt beam="1">  1       21 0.16928704E-01 0.30028729E+03</pdfrwt>
<pdfrwt beam="2">  1       21 0.31518351E-01 0.30028729E+03</pdfrwt>
<totfact> 0.29672881E+05</totfact>
</mgrwt>
</event>
<event>
 8    1  0.9123825E-006  0.4632330E+03  0.7546771E-02  0.1023848E+00
         21   -1    0    0  504  503  0.00000000000E+00  0.00000000000E+00  0.21921540667E+03  0.21921540667E+03  0.00000000000E+00 0.  1.
         21   -1    0    0  503  504 -0.00000000000E+00 -0.00000000000E+00 -0.24471910027E+03  0.24471910027E+03  0.00000000000E+00 0.  1.
         25    2    1    2    0    0 -0.18398089778E+03  0.63527619352E+02 -0.10353896339E+01  0.23132558702E+03  0.12500290400E+03 0.  0.
         25    2    1    2    0    0  0.18398089778E+03 -0.63527619352E+02 -0.24468303972E+02  0.23260891992E+03  0.12499393010E+03 0.  0.
          5    1    3    3  501    0 -0.12822655700E+03 -0.20652025475E+02 -0.62351354059E+01  0.13011350041E+03  0.47000000000E+01 0. -1.
         -5    1    3    3    0  501 -0.55754340778E+02  0.84179644826E+02  0.51997457720E+01  0.10121208660E+03  0.47000000000E+01 0. -1.
          5    1    4    4  502    0  0.69753399215E+02  0.34554189277E+02  0.83895173716E+01  0.78434703419E+02  0.47000000000E+01 0.  1.
         -5    1    4    4    0  502  0.11422749856E+03 -0.98081808629E+02 -0.32857821343E+02  0.15417421651E+03  0.47000000000E+01 0.  1.
<mgrwt>
<rscale>  0 0.46323297E+03</rscale>
<asrwt>0</asrwt>
<pdfrwt beam="1">  1       21 0.33725447E-01 0.46323297E+03</pdfrwt>
<pdfrwt beam="2">  1       21 0.37649092E-01 0.46323297E+03</pdfrwt>
<totfact> 0.52993668E+04</totfact>
</mgrwt>
</event>
<event>
 8    1  0.9123825E-006  0.2775745E+03  0.7546771E-02  0.1097021E+00
         21   -1    0    0  504  503  0.00000000000E+00  0.00000000000E+00  0.16037875817E+03  0.16037875817E+03  0.00000000000E+00 0.  1.
         21   -1    0    0  503  504 -0.00000000000E+00 -0.00000000000E+00 -0.12010257731E+03  0.12010257731E+03  0.00000000000E+00 0.  1.
         25    2    1    2    0    0 -0.49158305533E+02  0.24304553112E+02 -0.52135334443E+01  0.13659748280E+03  0.12499776427E+03 0.  0.
         25    2    1    2    0    0  0.49158305533E+02 -0.24304553112E+02  0.45489714306E+02  0.14388385268E+03  0.12500399454E+03 0.  0.
          5    1    3    3  501    0  0.32886039030E+02 -0.23804819438E+02 -0.63874743804E+01  0.41364850060E+02  0.47000000000E+01 0. -1.
         -5    1    3    3    0  501 -0.82044344563E+02  0.48109372550E+02  0.11739409361E+01  0.95232632743E+02  0.47000000000E+01 0. -1.
          5    1    4    4  502    0 -0.14959276105E+02 -0.58832096484E+02  0.67362012758E+01  0.61257341812E+02  0.47000000000E+01 0.  1.
         -5    1    4    4    0  502  0.64117581638E+02  0.34527543372E+02  0.38753513030E+02  0.82626510870E+02  0.47000000000E+01 0.  1.
<mgrwt>
<rscale>  0 0.27757451E+03</rscale>
<asrwt>0</asrwt>
<pdfrwt beam="1">  1       21 0.24673655E-01 0.27757451E+03</pdfrwt>
<pdfrwt beam="2">  1       21 0.18477320E-01 0.27757451E+03</pdfrwt>
<totfact> 0.40818924E+05</totfact>
</mgrwt>
</event>
<event>
 8    1  0.9123825E-006  0.3036042E+03  0.7546771E-02  0.1083453E+00
         21   -1    0    0  504  503  0.00000000000E+00  0.00000000000E+00  0.84928407162E+03  0.84928407162E+03  0.00000000000E+00 0. -1.
         21   -1    0    0  503  504 -0.00000000000E+00 -0.00000000000E+00 -0.27133298553E+02  0.27133298553E+02  0.00000000000E+00 0. -1.
         25    2    1    2    0    0  0.19226908840E+02  0.74725805605E+02  0.52176287226E+03  0.54204683461E+03  0.12499862399E+03 0.  0.
         25    2    1    2    0    0 -0.19226908840E+02 -0.74725805605E+02  0.30038790081E+03  0.33437053556E+03  0.12496857226E+03 0.  0.
          5    1    3    3  501    0  0.34714809011E+02 -0.11735025011E+02  0.31759120245E+03  0.31973284262E+03  0.47000000000E+01 0. -1.
         -5    1    3    3    0  501 -0.15487900171E+02  0.86460830617E+02  0.20417166981E+03  0.22231399199E+03  0.47000000000E+01 0. -1.
          5    1    4    4  502    0 -0.53359055591E+02 -0.91571688144E+02  0.24518941765E+03  0.26715632766E+03  0.47000000000E+01 0.  1.
         -5    1    4    4    0  502  0.34132146751E+02  0.16845882538E+02  0.55198483161E+02  0.67214207900E+02  0.47000000000E+01 0.  1.
<mgrwt>
<rscale>  0 0.30360420E+03</rscale>
<asrwt>0</asrwt>
<pdfrwt beam="1">  1       21 0.13065907E+00 0.30360420E+03</pdfrwt>
<pdfrwt beam="2">  1       21 0.41743543E-02 0.30360420E+03</pdfrwt>
<totfact> 0.14975387E+05</totfact>
</mgrwt>
</event>
<event>
 8    1  0.9123825E-006  0.4123782E+03  0.7546771E-02  0.1039576E+00
         21   -1    0    0  504  503  0.00000000000E+00  0.00000000000E+00  0.29702695674E+03  0.29702695674E+03  0.00000000000E+00 0.  1.
         21   -1    0    0  503  504 -0.00000000000E+00 -0.00000000000E+00 -0.14313159264E+03  0.14313159264E+03  0.00000000000E+00 0.  1.
         25    2    1    2    0    0 -0.69840206260E+02 -0.14604450429E+03  0.49070784913E+02  0.21033187182E+03  0.12499961091E+03 0.  0.
         25    2    1    2    0    0  0.69840206260E+02  0.14604450429E+03  0.10482457919E+03  0.22982667757E+03  0.12500183069E+03 0.  0.
          5    1    3    3  501    0 -0.57448618752E+02 -0.78676636941E+02  0.88034853093E+02  0.13138714684E+03  0.47000000000E+01 0. -1.
         -5    1    3    3    0  501 -0.12391587509E+02 -0.67367867345E+02 -0.38964068180E+02  0.78944724971E+02  0.47000000000E+01 0. -1.
          5    1    4    4  502    0 -0.33268327575E+02  0.15965546761E+02  0.29549816044E+02  0.47507493422E+02  0.47000000000E+01 0.  1.
         -5    1    4    4    0  502  0.10310853384E+03  0.13007895753E+03  0.75274763148E+02  0.18231918415E+03  0.47000000000E+01 0.  1.
<mgrwt>
<rscale>  0 0.41237818E+03</rscale>
<asrwt>0</asrwt>
<pdfrwt beam="1">  1       21 0.45696455E-01 0.41237818E+03</pdfrwt>
<pdfrwt beam="2">  1       21 0.22020245E-01 0.41237818E+03</pdfrwt>
<totfact> 0.82879233E+04</totfact>
</mgrwt>
</event>
<event>
 8    1  0.9123825E-006  0.3284561E+03  0.7546771E-02  0.1071822E+00
         21   -1    0    0  504  503  0.00000000000E+00  0.00000000000E+00  0.17786079684E+03  0.17786079684E+03  0.00000000000E+00 0.  1.
         21   -1    0    0  503  504 -0.00000000000E+00 -0.00000000000E+00 -0.15164019316E+03  0.15164019316E+03  0.00000000000E+00 0.  1.
         25    2    1    2    0    0 -0.10581372565E+03  0.10916165880E+02  0.76098351522E+01  0.16431225205E+03  0.12499959748E+03 0.  0.
         25    2    1    2    0    0  0.10581372565E+03 -0.10916165880E+02  0.18610768520E+02  0.16518873795E+03  0.12500100490E+03 0.  0.
          5    1    3    3  501    0 -0.14979738876E+02  0.33191039372E+02 -0.44065055640E+02  0.57357273295E+02  0.47000000000E+01 0.  1.
         -5    1    3    3    0  501 -0.90833986777E+02 -0.22274873492E+02  0.51674890792E+02  0.10695497876E+03  0.47000000000E+01 0.  1.
          5    1    4    4  502    0  0.87597066431E+02 -0.62829543052E+02  0.35766663021E+01  0.10796147493E+03  0.47000000000E+01 0.  1.
         -5    1    4    4    0  502  0.18216659221E+02  0.51913377172E+02  0.15034102218E+02  0.57227263014E+02  0.47000000000E+01 0.  1.
<mgrwt>
<rscale>  0 0.32845606E+03</rscale>
<asrwt>0</asrwt>
<pdfrwt beam="1">  1       21 0.27363200E-01 0.32845606E+03</pdfrwt>
<pdfrwt beam="2">  1       21 0.23329260E-01 0.32845606E+03</pdfrwt>
<totfact> 0.21269947E+05</totfact>
</mgrwt>
</event>
<event>
 8    1  0.9123825E-006  0.3231246E+03  0.7546771E-02  0.1074220E+00
         21   -1    0    0  504  503  0.00000000000E+00  0.00000000000E+00  0.10724518370E+03  0.10724518370E+03  0.00000000000E+00 0. -1.
         21   -1    0    0  503  504 -0.00000000000E+00 -0.00000000000E+00 -0.24338967887E+03  0.24338967887E+03  0.00000000000E+00 0. -1.
         25    2    1    2    0    0 -0.67459493605E+02  0.26990162802E+02  0.10165784232E+02  0.14494450990E+03  0.12500526235E+03 0.  0.
         25    2    1    2    0    0  0.67459493605E+02 -0.26990162802E+02 -0.14631027940E+03  0.20569035268E+03  0.12499028426E+03 0.  0.
          5    1    3    3  501    0 -0.31919704870E+02 -0.18104441604E+02  0.58854783503E+02  0.69517004438E+02  0.47000000000E+01 0. -1.
         -5    1    3    3    0  501 -0.35539788735E+02  0.45094604406E+02 -0.48688999271E+02  0.75427505460E+02  0.47000000000E+01 0. -1.
          5    1    4    4  502    0  0.97089201608E+02 -0.52610582399E+01 -0.13598342747E+03  0.16723508708E+03  0.47000000000E+01 0. -1.
         -5    1    4    4    0  502 -0.29629708003E+02 -0.21729104562E+02 -0.10326851932E+02  0.38455265598E+02  0.47000000000E+01 0. -1.
<mgrwt>
<rscale>  0 0.32312456E+03</rscale>
<asrwt>0</asrwt>
<pdfrwt beam="1">  1       21 0.16499259E-01 0.32312456E+03</pdfrwt>
<pdfrwt beam="2">  1       21 0.37444566E-01 0.32312456E+03</pdfrwt>
<totfact> 0.21940163E+05</totfact>
</mgrwt>
</event>
<event>
 8    1  0.9123825E-006  0.2664034E+03  0.7546771E-02  0.1103356E+00
         21   -1    0    0  504  503  0.00000000000E+00  0.00000000000E+00  0.38409946117E+03  0.38409946117E+03  0.00000000000E+00 0. -1.
         21   -1    0    0  503  504 -0.00000000000E+00 -0.00000000000E+00 -0.46192966567E+02  0.46192966567E+02  0.00000000000E+00 0. -1.
         25    2    1    2    0    0 -0.14763946599E+02  0.18954004318E+02  0.10555978580E+03  0.16536887014E+03  0.12500706554E+03 0.  0.
         25    2    1    2    0    0  0.14763946599E+02 -0.18954004318E+02  0.23234670880E+03  0.26492355759E+03  0.12498907904E+03 0.  0.
          5    1    3    3  501    0  0.27676960679E+02  0.57196814373E+02  0.29726379967E+02  0.70308160215E+02  0.47000000000E+01 0. -1.
         -5    1    3    3    0  501 -0.42440907278E+02 -0.38242810055E+02  0.75833405834E+02  0.95060709928E+02  0.47000000000E+01 0. -1.
          5    1    4    4  502    0  0.35774464801E+02  0.31338937993E+02  0.32677200492E+02  0.57894998042E+02  0.47000000000E+01 0.  1.
         -5    1    4    4    0  502 -0.21010518202E+02 -0.50292942311E+02  0.19966950831E+03  0.20702855955E+03  0.47000000000E+01 0.  1.
<mgrwt>
<rscale>  0 0.26640341E+03</rscale>
<asrwt>0</asrwt>
<pdfrwt beam="1">  1       21 0.59092223E-01 0.26640341E+03</pdfrwt>
<pdfrwt beam="2">  1       21 0.71066105E-02 0.26640341E+03</pdfrwt>
<totfact> 0.38797355E+05</totfact>
</mgrwt>
</event>
<event>
 8    1  0.9123825E-006  0.2816613E+03  0.7546771E-02  0.1094785E+00
         21   -1    0    0  504  503  0.00000000000E+00  0.00000000000E+00  0.28413989795E+03  0.28413989795E+03  0.00000000000E+00 0. -1.
         21   -1    0    0  503  504 -0.00000000000E+00 -0.00000000000E+00 -0.69801093605E+02  0.69801093605E+02  0.00000000000E+00 0. -1.
         25    2    1    2    0    0 -0.29565526525E+02 -0.19237999784E+02  0.38755585316E+02  0.13553925014E+03  0.12499868775E+03 0.  0.
         25    2    1    2    0    0  0.29565526525E+02  0.19237999784E+02  0.17558321903E+03  0.21840174142E+03  0.12500253140E+03 0.  0.
          5    1    3    3  501    0  0.27595640473E+02 -0.25712589770E+02 -0.28060440432E+02  0.47245475583E+02  0.47000000000E+01 0.  1.
         -5    1    3    3    0  501 -0.57161166998E+02  0.64745899866E+01  0.66816025749E+02  0.88293774553E+02  0.47000000000E+01 0.  1.
          5    1    4    4  502    0 -0.19525641132E+02 -0.83244140138E+01 -0.10347704517E+02  0.24077199153E+02  0.47000000000E+01 0. -1.
         -5    1    4    4    0  502  0.49091167657E+02  0.27562413797E+02  0.18593092355E+03  0.19432454227E+03  0.47000000000E+01 0. -1.
<mgrwt>
<rscale>  0 0.28166133E+03</rscale>
<asrwt>0</asrwt>
<pdfrwt beam="1">  1       21 0.43713830E-01 0.28166133E+03</pdfrwt>
<pdfrwt beam="2">  1       21 0.10738630E-01 0.28166133E+03</pdfrwt>
<totfact> 0.35256128E+05</totfact>
</mgrwt>
</event>
<event>
 8    1  0.9123825E-006  0.4590562E+03  0.7546771E-02  0.1025055E+00
         21   -1    0    0  504  503  0.00000000000E+00  0.00000000000E+00  0.25584851408E+03  0.25584851408E+03  0.00000000000E+00 0. -1.
         21   -1    0    0  503  504 -0.00000000000E+00 -0.00000000000E+00 -0.20591542967E+03  0.20591542967E+03  0.00000000000E+00 0. -1.
         25    2    1    2    0    0  0.83622656280E+02 -0.17290891976E+03  0.12042012863E+02  0.22948113979E+03  0.12500536097E+03 0.  0.
         25    2    1    2    0    0 -0.83622656280E+02  0.17290891976E+03  0.37891071549E+02  0.23228280396E+03  0.12501729696E+03 0.  0.
          5    1    3    3  501    0  0.46899900169E+02 -0.18432610311E+03  0.13264945037E+02  0.19071906483E+03  0.47000000000E+01 0.  1.
         -5    1    3    3    0  501  0.36722756111E+02  0.11417183352E+02 -0.12229321740E+01  0.38762074960E+02  0.47000000000E+01 0.  1.
          5    1    4    4  502    0 -0.81649147203E+02  0.15678555673E+03  0.74554060895E+02  0.19190803014E+03  0.47000000000E+01 0.  1.
         -5    1    4    4    0  502 -0.19735090771E+01  0.16123363030E+02 -0.36662989345E+02  0.40374773822E+02  0.47000000000E+01 0.  1.
<mgrwt>
<rscale>  0 0.45905623E+03</rscale>
<asrwt>0</asrwt>
<pdfrwt beam="1">  1       21 0.39361310E-01 0.45905623E+03</pdfrwt>
<pdfrwt beam="2">  1       21 0.31679297E-01 0.45905623E+03</pdfrwt>
<totfact> 0.54903432E+04</totfact>
</mgrwt>
</event>
<event>
 8    1  0.9123825E-006  0.3552177E+03  0.7546771E-02  0.1060494E+00
         21   -1    0    0  504  503  0.00000000000E+00  0.00000000000E+00  0.63881566118E+02  0.63881566118E+02  0.00000000000E+00 0. -1.
         21   -1    0    0  503  504 -0.00000000000E+00 -0.00000000000E+00 -0.49380292692E+03  0.49380292692E+03  0.00000000000E+00 0. -1.
         25    2    1    2    0    0  0.19108690220E+01 -0.12603049178E+03 -0.20595477376E+03  0.27189922704E+03  0.12499793820E+03 0.  0.
         25    2    1    2    0    0 -0.19108690220E+01  0.12603049178E+03 -0.22396658704E+03  0.28578526599E+03  0.12499939948E+03 0.  0.
          5    1    3    3  501    0 -0.60008876557E+02 -0.56560115863E+02 -0.11585499369E+03  0.14228345489E+03  0.47000000000E+01 0.  1.
         -5    1    3    3    0  501  0.61919745579E+02 -0.69470375916E+02 -0.90099780072E+02  0.12961577216E+03  0.47000000000E+01 0.  1.
          5    1    4    4  502    0  0.47133080297E+02  0.80830675090E+02 -0.18755500179E+03  0.20965231692E+03  0.47000000000E+01 0.  1.
         -5    1    4    4    0  502 -0.49043949319E+02  0.45199816689E+02 -0.36411585242E+02  0.76132949065E+02  0.47000000000E+01 0.  1.
<mgrwt>
<rscale>  0 0.35521770E+03</rscale>
<asrwt>0</asrwt>
<pdfrwt beam="1">  1       21 0.98279336E-02 0.35521770E+03</pdfrwt>
<pdfrwt beam="2">  1       21 0.75969678E-01 0.35521770E+03</pdfrwt>
<totfact> 0.12312010E+05</totfact>
</mgrwt>
</event>
<event>
 8    1  0.9123825E-006  0.2867711E+03  0.7546771E-02  0.1092047E+00
         21   -1    0    0  504  503  0.00000000000E+00  0.00000000000E+00  0.91191560497E+02  0.91191560497E+02  0.00000000000E+00 0.  1.
         21   -1    0    0  503  504 -0.00000000000E+00 -0.00000000000E+00 -0.22545300119E+03  0.22545300119E+03  0.00000000000E+00 0.  1.
         25    2    1    2    0    0 -0.13436498478E+02  0.64241172420E+02 -0.39468353151E+02  0.14659090264E+03  0.12499469633E+03 0.  0.
         25    2    1    2    0    0  0.13436498478E+02 -0.64241172420E+02 -0.94793087541E+02  0.17005365904E+03  0.12500019913E+03 0.  0.
          5    1    3    3  501    0 -0.28790689451E+02  0.96802659200E+02 -0.13602473530E+02  0.10201360651E+03  0.47000000000E+01 0.  1.
         -5    1    3    3    0  501  0.15354190972E+02 -0.32561486780E+02 -0.25865879621E+02  0.44577296131E+02  0.47000000000E+01 0.  1.
          5    1    4    4  502    0 -0.19324434608E+02 -0.33072117247E+02  0.22211583950E+02  0.44526881473E+02  0.47000000000E+01 0.  1.
         -5    1    4    4    0  502  0.32760933086E+02 -0.31169055173E+02 -0.11700467149E+03  0.12552677757E+03  0.47000000000E+01 0.  1.
<mgrwt>
<rscale>  0 0.28677107E+03</rscale>
<asrwt>0</asrwt>
<pdfrwt beam="1">  1       21 0.14029471E-01 0.28677107E+03</pdfrwt>
<pdfrwt beam="2">  1       21 0.34685077E-01 0.28677107E+03</pdfrwt>
<totfact> 0.34755815E+05</totfact>
</mgrwt>
</event>
<event>
 8    1  0.9123825E-006  0.5444813E+03  0.7546771E-02  0.1002779E+00
         21   -1    0    0  504  503  0.00000000000E+00  0.00000000000E+00  0.12166069091E+04  0.12166069091E+04  0.00000000000E+00 0. -1.
         21   -1    0    0  503  504 -0.00000000000E+00 -0.00000000000E+00 -0.60919406512E+02  0.60919406512E+02  0.00000000000E+00 0. -1.
         25    2    1    2    0    0 -0.62192430930E+02 -0.88581271279E+02  0.70398560221E+02  0.17971389109E+03  0.12500634097E+03 0.  0.
         25    2    1    2    0    0  0.62192430930E+02  0.88581271279E+02  0.10852889424E+04  0.10978124246E+04  0.12500196370E+03 0.  0.
          5    1    3    3  501    0 -0.40531428572E+01 -0.10368732265E+02 -0.34440103952E+02  0.36498621016E+02  0.47000000000E+01 0. -1.
         -5    1    3    3    0  501 -0.58139288073E+02 -0.78212539013E+02  0.10483866417E+03  0.14321527007E+03  0.47000000000E+01 0. -1.
          5    1    4    4  502    0  0.81695827308E+00 -0.17763062723E+02  0.28601329871E+02  0.34004703917E+02  0.47000000000E+01 0. -1.
         -5    1    4    4    0  502  0.61375472657E+02  0.10634433400E+03  0.10566876125E+04  0.10638077207E+04  0.47000000000E+01 0. -1.
<mgrwt>
<rscale>  0 0.54448130E+03</rscale>
<asrwt>0</asrwt>
<pdfrwt beam="1">  1       21 0.18717028E+00 0.54448130E+03</pdfrwt>
<pdfrwt beam="2">  1       21 0.93722173E-02 0.54448130E+03</pdfrwt>
<totfact> 0.12647110E+04</totfact>
</mgrwt>
</event>
<event>
 8    1  0.9123825E-006  0.2728086E+03  0.7546771E-02  0.1099683E+00
         21   -1    0    0  504  503  0.00000000000E+00  0.00000000000E+00  0.38105447346E+02  0.38105447346E+02  0.00000000000E+00 0. -1.
         21   -1    0    0  503  504 -0.00000000000E+00 -0.00000000000E+00 -0.48828025208E+03  0.48828025208E+03  0.00000000000E+00 0. -1.
         25    2    1    2    0    0  0.28672382130E+02  0.46260748948E+02 -0.23357465355E+03  0.27045199457E+03  0.12500000077E+03 0.  0.
         25    2    1    2    0    0 -0.28672382130E+02 -0.46260748948E+02 -0.21660015118E+03  0.25593370486E+03  0.12499709357E+03 0.  0.
          5    1    3    3  501    0  0.68669737887E+02  0.19793950941E+02 -0.19799324698E+03  0.21054868616E+03  0.47000000000E+01 0. -1.
         -5    1    3    3    0  501 -0.39997355757E+02  0.26466798007E+02 -0.35581406573E+02  0.59903308406E+02  0.47000000000E+01 0. -1.
          5    1    4    4  502    0 -0.49011597333E+02  0.29001544184E+02 -0.10770590474E+03  0.12192570752E+03  0.47000000000E+01 0. -1.
         -5    1    4    4    0  502  0.20339215203E+02 -0.75262293132E+02 -0.10889424645E+03  0.13400799734E+03  0.47000000000E+01 0. -1.
<mgrwt>
<rscale>  0 0.27280863E+03</rscale>
<asrwt>0</asrwt>
<pdfrwt beam="1">  1       21 0.58623764E-02 0.27280863E+03</pdfrwt>
<pdfrwt beam="2">  1       21 0.75120040E-01 0.27280863E+03</pdfrwt>
<totfact> 0.31851206E+05</totfact>
</mgrwt>
</event>
<event>
 8    1  0.9123825E-006  0.2927340E+03  0.7546771E-02  0.1088930E+00
         21   -1    0    0  504  503  0.00000000000E+00  0.00000000000E+00  0.92423107114E+03  0.92423107114E+03  0.00000000000E+00 0. -1.
         21   -1    0    0  503  504 -0.00000000000E+00 -0.00000000000E+00 -0.23179598053E+02  0.23179598053E+02  0.00000000000E+00 0. -1.
         25    2    1    2    0    0 -0.36633865546E+02  0.24613442000E+02  0.65135937934E+03  0.66471250112E+03  0.12500322579E+03 0.  0.
         25    2    1    2    0    0  0.36633865546E+02 -0.24613442000E+02  0.24969209375E+03  0.28269816807E+03  0.12499700365E+03 0.  0.
          5    1    3    3  501    0  0.19524149747E+02  0.60342976385E+02  0.25726540648E+03  0.26500952170E+03  0.47000000000E+01 0. -1.
         -5    1    3    3    0  501 -0.56158015293E+02 -0.35729534385E+02  0.39409397286E+03  0.39970297942E+03  0.47000000000E+01 0. -1.
          5    1    4    4  502    0  0.22164458578E+02  0.43991126703E+02  0.16702001868E+03  0.17419603639E+03  0.47000000000E+01 0.  1.
         -5    1    4    4    0  502  0.14469406967E+02 -0.68604568703E+02  0.82672075065E+02  0.10850213169E+03  0.47000000000E+01 0.  1.
<mgrwt>
<rscale>  0 0.29273404E+03</rscale>
<asrwt>0</asrwt>
<pdfrwt beam="1">  1       21 0.14218937E+00 0.29273404E+03</pdfrwt>
<pdfrwt beam="2">  1       21 0.35660927E-02 0.29273404E+03</pdfrwt>
<totfact> 0.15735080E+05</totfact>
</mgrwt>
</event>
<event>
 8    1  0.9123825E-006  0.2617853E+03  0.7546771E-02  0.1106075E+00
         21   -1    0    0  504  503  0.00000000000E+00  0.00000000000E+00  0.11167377898E+03  0.11167377898E+03  0.00000000000E+00 0.  1.
         21   -1    0    0  503  504 -0.00000000000E+00 -0.00000000000E+00 -0.15341907612E+03  0.15341907612E+03  0.00000000000E+00 0.  1.
         25    2    1    2    0    0 -0.28293217043E+02  0.26282446321E+02 -0.24813860515E+02  0.13316301904E+03  0.12500155539E+03 0.  0.
         25    2    1    2    0    0  0.28293217043E+02 -0.26282446321E+02 -0.16931436618E+02  0.13192983606E+03  0.12501013952E+03 0.  0.
          5    1    3    3  501    0 -0.43453510866E-01  0.50149830965E+02 -0.62421274735E+02  0.80209182601E+02  0.47000000000E+01 0. -1.
         -5    1    3    3    0  501 -0.28249763532E+02 -0.23867384644E+02  0.37607414219E+02  0.52953836439E+02  0.47000000000E+01 0. -1.
          5    1    4    4  502    0  0.55403377183E+02 -0.57507606592E+02  0.12491322276E+02  0.80961609120E+02  0.47000000000E+01 0. -1.
         -5    1    4    4    0  502 -0.27110160139E+02  0.31225160271E+02 -0.29422758894E+02  0.50968226942E+02  0.47000000000E+01 0. -1.
<mgrwt>
<rscale>  0 0.26178532E+03</rscale>
<asrwt>0</asrwt>
<pdfrwt beam="1">  1       21 0.17180581E-01 0.26178532E+03</pdfrwt>
<pdfrwt beam="2">  1       21 0.23602935E-01 0.26178532E+03</pdfrwt>
<totfact> 0.51030312E+05</totfact>
</mgrwt>
</event>
<event>
 8    1  0.9123825E-006  0.2856637E+03  0.7546771E-02  0.1092635E+00
         21   -1    0    0  504  503  0.00000000000E+00  0.00000000000E+00  0.10078576042E+03  0.10078576042E+03  0.00000000000E+00 0. -1.
         21   -1    0    0  503  504 -0.00000000000E+00 -0.00000000000E+00 -0.20241889769E+03  0.20241889769E+03  0.00000000000E+00 0. -1.
         25    2    1    2    0    0  0.67882215526E+01 -0.10242245398E+02 -0.12298986508E+03  0.17578944345E+03  0.12499775188E+03 0.  0.
         25    2    1    2    0    0 -0.67882215526E+01  0.10242245398E+02  0.21356727809E+02  0.12741521466E+03  0.12501017383E+03 0.  0.
          5    1    3    3  501    0 -0.33532543161E+02 -0.13869718400E+02 -0.12945268981E+03  0.13452467966E+03  0.47000000000E+01 0.  1.
         -5    1    3    3    0  501  0.40320764714E+02  0.36274730015E+01  0.64628247297E+01  0.41264763794E+02  0.47000000000E+01 0.  1.
          5    1    4    4  502    0  0.30450904385E+02 -0.34787892922E+02  0.44546110267E+02  0.64373138899E+02  0.47000000000E+01 0.  1.
         -5    1    4    4    0  502 -0.37239125937E+02  0.45030138320E+02 -0.23189382459E+02  0.63042075763E+02  0.47000000000E+01 0.  1.
<mgrwt>
<rscale>  0 0.28566374E+03</rscale>
<asrwt>0</asrwt>
<pdfrwt beam="1">  1       21 0.15505502E-01 0.28566374E+03</pdfrwt>
<pdfrwt beam="2">  1       21 0.31141369E-01 0.28566374E+03</pdfrwt>
<totfact> 0.35848457E+05</totfact>
</mgrwt>
</event>
<event>
 8    1  0.9123825E-006  0.3795497E+03  0.7546771E-02  0.1051100E+00
         21   -1    0    0  504  503  0.00000000000E+00  0.00000000000E+00  0.16084187562E+02  0.16084187562E+02  0.00000000000E+00 0.  1.
         21   -1    0    0  503  504 -0.00000000000E+00 -0.00000000000E+00 -0.22391242945E+04  0.22391242945E+04  0.00000000000E+00 0.  1.
         25    2    1    2    0    0 -0.11113383742E+03 -0.41853951366E+02 -0.15826872493E+04  0.15920506826E+04  0.12499585533E+03 0.  0.
         25    2    1    2    0    0  0.11113383742E+03  0.41853951366E+02 -0.64035285767E+03  0.66315779948E+03  0.12499600643E+03 0.  0.
          5    1    3    3  501    0 -0.60967244601E+02  0.24188677977E+02 -0.32290861184E+03  0.32953627821E+03  0.47000000000E+01 0.  1.
         -5    1    3    3    0  501 -0.50166592815E+02 -0.66042629343E+02 -0.12597786375E+04  0.12625144044E+04  0.47000000000E+01 0.  1.
          5    1    4    4  502    0  0.52556147746E+02 -0.32937186709E+02 -0.13122074342E+03  0.14521701153E+03  0.47000000000E+01 0.  1.
         -5    1    4    4    0  502  0.58577689670E+02  0.74791138075E+02 -0.50913211425E+03  0.51794078795E+03  0.47000000000E+01 0.  1.
<mgrwt>
<rscale>  0 0.37954971E+03</rscale>
<asrwt>0</asrwt>
<pdfrwt beam="1">  1       21 0.24744919E-02 0.37954971E+03</pdfrwt>
<pdfrwt beam="2">  1       21 0.34448045E+00 0.37954971E+03</pdfrwt>
<totfact> 0.14143348E+04</totfact>
</mgrwt>
</event>
<event>
 8    1  0.9123825E-006  0.2787276E+03  0.7546771E-02  0.1096386E+00
         21   -1    0    0  504  503  0.00000000000E+00  0.00000000000E+00  0.34924787089E+03  0.34924787089E+03  0.00000000000E+00 0.  1.
         21   -1    0    0  503  504 -0.00000000000E+00 -0.00000000000E+00 -0.55611720615E+02  0.55611720615E+02  0.00000000000E+00 0.  1.
         25    2    1    2    0    0  0.24366898761E+01 -0.55809943108E+02  0.18463605874E+03  0.22986341812E+03  0.12500411831E+03 0.  0.
         25    2    1    2    0    0 -0.24366898761E+01  0.55809943108E+02  0.10900009153E+03  0.17499617338E+03  0.12498781356E+03 0.  0.
          5    1    3    3  501    0 -0.37463946651E+01 -0.41843916268E+02  0.20193536323E+03  0.20631269890E+03  0.47000000000E+01 0. -1.
         -5    1    3    3    0  501  0.61830845413E+01 -0.13966026840E+02 -0.17299304490E+02  0.23550719224E+02  0.47000000000E+01 0. -1.
          5    1    4    4  502    0 -0.62216682815E+02  0.17442566301E+02  0.41802997636E+02  0.77102135840E+02  0.47000000000E+01 0. -1.
         -5    1    4    4    0  502  0.59779992939E+02  0.38367376807E+02  0.67197093892E+02  0.97894037543E+02  0.47000000000E+01 0. -1.
<mgrwt>
<rscale>  0 0.27872764E+03</rscale>
<asrwt>0</asrwt>
<pdfrwt beam="1">  1       21 0.53730440E-01 0.27872764E+03</pdfrwt>
<pdfrwt beam="2">  1       21 0.85556495E-02 0.27872764E+03</pdfrwt>
<totfact> 0.34283889E+05</totfact>
</mgrwt>
</event>
<event>
 8    1  0.9123825E-006  0.3291250E+03  0.7546771E-02  0.1071525E+00
         21   -1    0    0  504  503  0.00000000000E+00  0.00000000000E+00  0.44890338146E+02  0.44890338146E+02  0.00000000000E+00 0.  1.
         21   -1    0    0  503  504 -0.00000000000E+00 -0.00000000000E+00 -0.60326604510E+03  0.60326604510E+03  0.00000000000E+00 0.  1.
         25    2    1    2    0    0  0.73775773750E+02 -0.76683249356E+02 -0.30190481354E+03  0.34364822274E+03  0.12499759611E+03 0.  0.
         25    2    1    2    0    0 -0.73775773750E+02  0.76683249356E+02 -0.25647089342E+03  0.30450816050E+03  0.12499886047E+03 0.  0.
          5    1    3    3  501    0  0.82415814483E+02 -0.77633757937E+02 -0.13416695898E+03  0.17561955965E+03  0.47000000000E+01 0.  1.
         -5    1    3    3    0  501 -0.86400407339E+01  0.95050858075E+00 -0.16773785456E+03  0.16802866310E+03  0.47000000000E+01 0.  1.
          5    1    4    4  502    0 -0.45804612010E+02  0.89304819608E+02 -0.89129578332E+02  0.13431152229E+03  0.47000000000E+01 0.  1.
         -5    1    4    4    0  502 -0.27971161739E+02 -0.12621570252E+02 -0.16734131508E+03  0.17019663821E+03  0.47000000000E+01 0.  1.
<mgrwt>
<rscale>  0 0.32912500E+03</rscale>
<asrwt>0</asrwt>
<pdfrwt beam="1">  1       21 0.69062062E-02 0.32912500E+03</pdfrwt>
<pdfrwt beam="2">  1       21 0.92810156E-01 0.32912500E+03</pdfrwt>
<totfact> 0.14523235E+05</totfact>
</mgrwt>
</event>
<event>
 8    1  0.9123825E-006  0.4819112E+03  0.7546771E-02  0.1018611E+00
         21   -1    0    0  504  503  0.00000000000E+00  0.00000000000E+00  0.15667314216E+04  0.15667314216E+04  0.00000000000E+00 0.  1.
         21   -1    0    0  503  504 -0.00000000000E+00 -0.00000000000E+00 -0.37057795822E+02  0.37057795822E+02  0.00000000000E+00 0.  1.
         25    2    1    2    0    0 -0.14710754426E+03  0.12586812547E+03  0.99898236432E+03  0.10252185646E+04  0.12499570518E+03 0.  0.
         25    2    1    2    0    0  0.14710754426E+03 -0.12586812547E+03  0.53069126146E+03  0.57857065286E+03  0.12500948274E+03 0.  0.
          5    1    3    3  501    0 -0.32262082224E+02  0.10959600279E+03  0.48894372642E+03  0.50213562249E+03  0.47000000000E+01 0.  1.
         -5    1    3    3    0  501 -0.11484546203E+03  0.16272122681E+02  0.51003863790E+03  0.52308294207E+03  0.47000000000E+01 0.  1.
          5    1    4    4  502    0  0.12605941277E+03 -0.26689961228E+02  0.30093244589E+03  0.32739235875E+03  0.47000000000E+01 0. -1.
         -5    1    4    4    0  502  0.21048131491E+02 -0.99178164243E+02  0.22975881557E+03  0.25117829412E+03  0.47000000000E+01 0. -1.
<mgrwt>
<rscale>  0 0.48191125E+03</rscale>
<asrwt>0</asrwt>
<pdfrwt beam="1">  1       21 0.24103555E+00 0.48191125E+03</pdfrwt>
<pdfrwt beam="2">  1       21 0.57012006E-02 0.48191125E+03</pdfrwt>
<totfact> 0.13809694E+04</totfact>
</mgrwt>
</event>
<event>
 8    1  0.9123825E-006  0.3101572E+03  0.7546771E-02  0.1080271E+00
         21   -1    0    0  504  503  0.00000000000E+00  0.00000000000E+00  0.32766266983E+03  0.32766266983E+03  0.00000000000E+00 0.  1.
         21   -1    0    0  503  504 -0.00000000000E+00 -0.00000000000E+00 -0.73396741935E+02  0.73396741935E+02  0.00000000000E+00 0.  1.
         25    2    1    2    0    0  0.83594503883E+02 -0.89519719502E+01  0.17456104805E+03  0.23057311445E+03  0.12499689088E+03 0.  0.
         25    2    1    2    0    0 -0.83594503883E+02  0.89519719502E+01  0.79704879839E+02  0.17048629731E+03  0.12507809888E+03 0.  0.
          5    1    3    3  501    0 -0.22568050741E+02 -0.16772862534E+02  0.90406434728E+02  0.94794827243E+02  0.47000000000E+01 0.  1.
         -5    1    3    3    0  501  0.10616255462E+03  0.78208905835E+01  0.84154613325E+02  0.13577828721E+03  0.47000000000E+01 0.  1.
          5    1    4    4  502    0 -0.11253338086E+03  0.46302323403E+01  0.37270500968E+02  0.11872818158E+03  0.47000000000E+01 0.  1.
         -5    1    4    4    0  502  0.28938876974E+02  0.43217396099E+01  0.42434378871E+02  0.51758115730E+02  0.47000000000E+01 0.  1.
<mgrwt>
<rscale>  0 0.31015720E+03</rscale>
<asrwt>0</asrwt>
<pdfrwt beam="1">  1       21 0.50409641E-01 0.31015720E+03</pdfrwt>
<pdfrwt beam="2">  1       21 0.11291807E-01 0.31015720E+03</pdfrwt>
<totfact> 0.23787586E+05</totfact>
</mgrwt>
</event>
<event>
 8    1  0.9123825E-006  0.5047399E+03  0.7546771E-02  0.1012549E+00
         21   -1    0    0  504  503  0.00000000000E+00  0.00000000000E+00  0.36358831230E+03  0.36358831230E+03  0.00000000000E+00 0. -1.
         21   -1    0    0  503  504 -0.00000000000E+00 -0.00000000000E+00 -0.17517224333E+03  0.17517224333E+03  0.00000000000E+00 0. -1.
         25    2    1    2    0    0  0.75589638515E+02  0.81940276297E+02 -0.10729477130E+03  0.19891022298E+03  0.12500042610E+03 0.  0.
         25    2    1    2    0    0 -0.75589638515E+02 -0.81940276297E+02  0.29571084027E+03  0.33985033265E+03  0.12500138087E+03 0.  0.
          5    1    3    3  501    0  0.89124541753E+02  0.20102890556E+02 -0.99160580467E+02  0.13491560647E+03  0.47000000000E+01 0.  1.
         -5    1    3    3    0  501 -0.13534903238E+02  0.61837385741E+02 -0.81341908340E+01  0.63994616504E+02  0.47000000000E+01 0.  1.
          5    1    4    4  502    0 -0.10807456800E+03 -0.72330670542E+02  0.25787065442E+03  0.28884459933E+03  0.47000000000E+01 0. -1.
         -5    1    4    4    0  502  0.32484929486E+02 -0.96096057553E+01  0.37840185849E+02  0.51005733321E+02  0.47000000000E+01 0. -1.
<mgrwt>
<rscale>  0 0.50473986E+03</rscale>
<asrwt>0</asrwt>
<pdfrwt beam="1">  1       21 0.55936663E-01 0.50473986E+03</pdfrwt>
<pdfrwt beam="2">  1       21 0.26949576E-01 0.50473986E+03</pdfrwt>
<totfact> 0.35687782E+04</totfact>
</mgrwt>
</event>
<event>
 8    1  0.9123825E-006  0.3076473E+03  0.7546771E-02  0.1081479E+00
         21   -1    0    0  504  503  0.00000000000E+00  0.00000000000E+00  0.84609898641E+02  0.84609898641E+02  0.00000000000E+00 0.  1.
         21   -1    0    0  503  504 -0.00000000000E+00 -0.00000000000E+00 -0.27965661198E+03  0.27965661198E+03  0.00000000000E+00 0.  1.
         25    2    1    2    0    0  0.35884161151E+02  0.61792060077E+02 -0.33430495620E+02  0.14781550811E+03  0.12500357871E+03 0.  0.
         25    2    1    2    0    0 -0.35884161151E+02 -0.61792060077E+02 -0.16161621772E+03  0.21645100251E+03  0.12500121178E+03 0.  0.
          5    1    3    3  501    0  0.61702150606E+02  0.56869645445E+02  0.21490616324E+02  0.86748190485E+02  0.47000000000E+01 0. -1.
         -5    1    3    3    0  501 -0.25817989455E+02  0.49224146322E+01 -0.54921111943E+02  0.61067317629E+02  0.47000000000E+01 0. -1.
          5    1    4    4  502    0  0.30857191896E+02 -0.68081111398E+02 -0.67631814243E+02  0.10091261724E+03  0.47000000000E+01 0. -1.
         -5    1    4    4    0  502 -0.66741353048E+02  0.62890513215E+01 -0.93984403480E+02  0.11553838527E+03  0.47000000000E+01 0. -1.
<mgrwt>
<rscale>  0 0.30764731E+03</rscale>
<asrwt>0</asrwt>
<pdfrwt beam="1">  1       21 0.13016907E-01 0.30764731E+03</pdfrwt>
<pdfrwt beam="2">  1       21 0.43024094E-01 0.30764731E+03</pdfrwt>
<totfact> 0.25613738E+05</totfact>
</mgrwt>
</event>
<event>
 8    1  0.9123825E-006  0.3739060E+03  0.7546771E-02  0.1053209E+00
         21   -1    0    0  504  503  0.00000000000E+00  0.00000000000E+00  0.20813846828E+03  0.20813846828E+03  0.00000000000E+00 0. -1.
         21   -1    0    0  503  504 -0.00000000000E+00 -0.00000000000E+00 -0.16792393073E+03  0.16792393073E+03  0.00000000000E+00 0. -1.
         25    2    1    2    0    0  0.10968361279E+03  0.49415621808E+02  0.90181527580E+02  0.19552514392E+03  0.12499990159E+03 0.  0.
         25    2    1    2    0    0 -0.10968361279E+03 -0.49415621808E+02 -0.49966990037E+02  0.18053725508E+03  0.12499840713E+03 0.  0.
          5    1    3    3  501    0 -0.96707101733E+00  0.49131643206E+02 -0.48340366512E+01  0.49601527202E+02  0.47000000000E+01 0.  1.
         -5    1    3    3    0  501  0.11065068381E+03  0.28397860229E+00  0.95015564231E+02  0.14592361672E+03  0.47000000000E+01 0.  1.
          5    1    4    4  502    0 -0.54486636735E+02  0.30571028433E+02 -0.54634194894E+02  0.83128614892E+02  0.47000000000E+01 0.  1.
         -5    1    4    4    0  502 -0.55196976057E+02 -0.79986650241E+02  0.46672048578E+01  0.97408640191E+02  0.47000000000E+01 0.  1.
<mgrwt>
<rscale>  0 0.37390603E+03</rscale>
<asrwt>0</asrwt>
<pdfrwt beam="1">  1       21 0.32021303E-01 0.37390603E+03</pdfrwt>
<pdfrwt beam="2">  1       21 0.25834451E-01 0.37390603E+03</pdfrwt>
<totfact> 0.12689076E+05</totfact>
</mgrwt>
</event>
<event>
 8    1  0.9123825E-006  0.5158412E+03  0.7546771E-02  0.1009725E+00
         21   -1    0    0  504  503  0.00000000000E+00  0.00000000000E+00  0.54594910919E+02  0.54594910919E+02  0.00000000000E+00 0.  1.
         21   -1    0    0  503  504 -0.00000000000E+00 -0.00000000000E+00 -0.12184840782E+04  0.12184840782E+04  0.00000000000E+00 0.  1.
         25    2    1    2    0    0 -0.15281064604E+03  0.14246458707E+03 -0.79208343384E+03  0.82865589453E+03  0.12500869278E+03 0.  0.
         25    2    1    2    0    0  0.15281064604E+03 -0.14246458707E+03 -0.37180573348E+03  0.44442309462E+03  0.12500052589E+03 0.  0.
          5    1    3    3  501    0 -0.60267880606E+02 -0.35562238816E+00 -0.34497445007E+03  0.35023107386E+03  0.47000000000E+01 0.  1.
         -5    1    3    3    0  501 -0.92542765434E+02  0.14282020946E+03 -0.44710898377E+03  0.47842482067E+03  0.47000000000E+01 0.  1.
          5    1    4    4  502    0  0.42387467343E+02 -0.11390327832E+03 -0.13608179428E+03  0.18251301032E+03  0.47000000000E+01 0. -1.
         -5    1    4    4    0  502  0.11042317870E+03 -0.28561308757E+02 -0.23572393920E+03  0.26191008431E+03  0.47000000000E+01 0. -1.
<mgrwt>
<rscale>  0 0.51584118E+03</rscale>
<asrwt>0</asrwt>
<pdfrwt beam="1">  1       21 0.83992172E-02 0.51584118E+03</pdfrwt>
<pdfrwt beam="2">  1       21 0.18745909E+00 0.51584118E+03</pdfrwt>
<totfact> 0.15440018E+04</totfact>
</mgrwt>
</event>
<event>
 8    1  0.9123825E-006  0.2885053E+03  0.7546771E-02  0.1091132E+00
         21   -1    0    0  504  503  0.00000000000E+00  0.00000000000E+00  0.44828087333E+03  0.44828087333E+03  0.00000000000E+00 0.  1.
         21   -1    0    0  503  504 -0.00000000000E+00 -0.00000000000E+00 -0.46419177305E+02  0.46419177305E+02  0.00000000000E+00 0.  1.
         25    2    1    2    0    0 -0.28431667033E+02  0.59550490532E+01  0.31389552445E+03  0.33911521028E+03  0.12499961312E+03 0.  0.
         25    2    1    2    0    0  0.28431667033E+02 -0.59550490532E+01  0.87966171582E+02  0.15558484035E+03  0.12499909162E+03 0.  0.
          5    1    3    3  501    0 -0.33088812493E+02 -0.41866923024E+02  0.59015871208E+02  0.79703649917E+02  0.47000000000E+01 0. -1.
         -5    1    3    3    0  501  0.46571454596E+01  0.47821972077E+02  0.25487965324E+03  0.25941156037E+03  0.47000000000E+01 0. -1.
          5    1    4    4  502    0 -0.82815947281E+01 -0.51205263728E+02  0.26357972331E+01  0.52149796468E+02  0.47000000000E+01 0.  1.
         -5    1    4    4    0  502  0.36713261761E+02  0.45250214674E+02  0.85330374349E+02  0.10343504389E+03  0.47000000000E+01 0.  1.
<mgrwt>
<rscale>  0 0.28850532E+03</rscale>
<asrwt>0</asrwt>
<pdfrwt beam="1">  1       21 0.68966285E-01 0.28850532E+03</pdfrwt>
<pdfrwt beam="2">  1       21 0.71414122E-02 0.28850532E+03</pdfrwt>
<totfact> 0.27296999E+05</totfact>
</mgrwt>
</event>
<event>
 8    1  0.9123825E-006  0.3879836E+03  0.7546771E-02  0.1048022E+00
         21   -1    0    0  504  503  0.00000000000E+00  0.00000000000E+00  0.23287278161E+02  0.23287278161E+02  0.00000000000E+00 0.  1.
         21   -1    0    0  503  504 -0.00000000000E+00 -0.00000000000E+00 -0.16160244363E+04  0.16160244363E+04  0.00000000000E+00 0.  1.
         25    2    1    2    0    0  0.13787904201E+03  0.11136104085E+02 -0.56992029067E+03  0.59964079938E+03  0.12500123005E+03 0.  0.
         25    2    1    2    0    0 -0.13787904201E+03 -0.11136104085E+02 -0.10228168674E+04  0.10396709150E+04  0.12500649688E+03 0.  0.
          5    1    3    3  501    0  0.55016663375E+02  0.66678131982E+02 -0.26351684020E+03  0.27737343348E+03  0.47000000000E+01 0.  1.
         -5    1    3    3    0  501  0.82862378637E+02 -0.55542027898E+02 -0.30640345048E+03  0.32226736589E+03  0.47000000000E+01 0.  1.
          5    1    4    4  502    0 -0.15351748460E+03 -0.30238987304E+02 -0.77969831349E+03  0.79525691729E+03  0.47000000000E+01 0. -1.
         -5    1    4    4    0  502  0.15638442584E+02  0.19102883220E+02 -0.24311855394E+03  0.24441399776E+03  0.47000000000E+01 0. -1.
<mgrwt>
<rscale>  0 0.38798356E+03</rscale>
<asrwt>0</asrwt>
<pdfrwt beam="1">  1       21 0.35826599E-02 0.38798356E+03</pdfrwt>
<pdfrwt beam="2">  1       21 0.24861903E+00 0.38798356E+03</pdfrwt>
<totfact> 0.28507803E+04</totfact>
</mgrwt>
</event>
<event>
 8    1  0.9123825E-006  0.3109563E+03  0.7546771E-02  0.1079888E+00
         21   -1    0    0  504  503  0.00000000000E+00  0.00000000000E+00  0.27450226559E+02  0.27450226559E+02  0.00000000000E+00 0. -1.
         21   -1    0    0  503  504 -0.00000000000E+00 -0.00000000000E+00 -0.88062849026E+03  0.88062849026E+03  0.00000000000E+00 0. -1.
         25    2    1    2    0    0  0.68966219848E+02 -0.38612386961E+01 -0.60607811777E+03  0.62267866951E+03  0.12500716772E+03 0.  0.
         25    2    1    2    0    0 -0.68966219848E+02  0.38612386961E+01 -0.24710014593E+03  0.28540004731E+03  0.12499382480E+03 0.  0.
          5    1    3    3  501    0  0.65218326453E+02  0.48332042780E+02 -0.46663762017E+03  0.47366884531E+03  0.47000000000E+01 0.  1.
         -5    1    3    3    0  501  0.37478933954E+01 -0.52193281476E+02 -0.13944049760E+03  0.14900982420E+03  0.47000000000E+01 0.  1.
          5    1    4    4  502    0 -0.26821167038E+02  0.55326479049E+02 -0.57114733671E+02  0.84051038587E+02  0.47000000000E+01 0. -1.
         -5    1    4    4    0  502 -0.42145052810E+02 -0.51465240353E+02 -0.18998541226E+03  0.20134900872E+03  0.47000000000E+01 0. -1.
<mgrwt>
<rscale>  0 0.31095628E+03</rscale>
<asrwt>0</asrwt>
<pdfrwt beam="1">  1       21 0.42231112E-02 0.31095628E+03</pdfrwt>
<pdfrwt beam="2">  1       21 0.13548133E+00 0.31095628E+03</pdfrwt>
<totfact> 0.13345739E+05</totfact>
</mgrwt>
</event>
<event>
 8    1  0.9123825E-006  0.3604808E+03  0.7546771E-02  0.1058394E+00
         21   -1    0    0  504  503  0.00000000000E+00  0.00000000000E+00  0.19484614963E+03  0.19484614963E+03  0.00000000000E+00 0.  1.
         21   -1    0    0  503  504 -0.00000000000E+00 -0.00000000000E+00 -0.16672954630E+03  0.16672954630E+03  0.00000000000E+00 0.  1.
         25    2    1    2    0    0  0.95008883292E+02 -0.29309923870E+02 -0.69731782314E+02  0.17428019932E+03  0.12500122747E+03 0.  0.
         25    2    1    2    0    0 -0.95008883292E+02  0.29309923870E+02  0.97848385646E+02  0.18729549661E+03  0.12497814583E+03 0.  0.
          5    1    3    3  501    0  0.98059174163E+02  0.12261776637E+02 -0.84193263210E+02  0.12990977012E+03  0.47000000000E+01 0.  1.
         -5    1    3    3    0  501 -0.30502908705E+01 -0.41571700507E+02  0.14461480897E+02  0.44370429197E+02  0.47000000000E+01 0.  1.
          5    1    4    4  502    0  0.47230401169E+01 -0.34476406574E+02  0.24793715549E+01  0.35201803952E+02  0.47000000000E+01 0.  1.
         -5    1    4    4    0  502 -0.99731923409E+02  0.63786330443E+02  0.95369014092E+02  0.15209369266E+03  0.47000000000E+01 0.  1.
<mgrwt>
<rscale>  0 0.36048085E+03</rscale>
<asrwt>0</asrwt>
<pdfrwt beam="1">  1       21 0.29976331E-01 0.36048085E+03</pdfrwt>
<pdfrwt beam="2">  1       21 0.25650699E-01 0.36048085E+03</pdfrwt>
<totfact> 0.14708492E+05</totfact>
</mgrwt>
</event>
<event>
 8    1  0.9123825E-006  0.3251919E+03  0.7546771E-02  0.1073284E+00
         21   -1    0    0  504  503  0.00000000000E+00  0.00000000000E+00  0.18399533733E+03  0.18399533733E+03  0.00000000000E+00 0. -1.
         21   -1    0    0  503  504 -0.00000000000E+00 -0.00000000000E+00 -0.14368539159E+03  0.14368539159E+03  0.00000000000E+00 0. -1.
         25    2    1    2    0    0 -0.21988980119E+02 -0.95950290720E+02 -0.13610132572E+02  0.15968812461E+03  0.12500035159E+03 0.  0.
         25    2    1    2    0    0  0.21988980119E+02  0.95950290720E+02  0.53920078307E+02  0.16799260431E+03  0.12499666685E+03 0.  0.
          5    1    3    3  501    0  0.41484386868E+02 -0.83217089824E+02 -0.17209921151E+02  0.94680038966E+02  0.47000000000E+01 0. -1.
         -5    1    3    3    0  501 -0.63473366986E+02 -0.12733200896E+02  0.35997885789E+01  0.65008085646E+02  0.47000000000E+01 0. -1.
          5    1    4    4  502    0 -0.30083364774E+02  0.10048574152E+03  0.47075605869E+02  0.11506778764E+03  0.47000000000E+01 0. -1.
         -5    1    4    4    0  502  0.52072344892E+02 -0.45354508011E+01  0.68444724385E+01  0.52924816670E+02  0.47000000000E+01 0. -1.
<mgrwt>
<rscale>  0 0.32519189E+03</rscale>
<asrwt>0</asrwt>
<pdfrwt beam="1">  1       21 0.28306975E-01 0.32519189E+03</pdfrwt>
<pdfrwt beam="2">  1       21 0.22105445E-01 0.32519189E+03</pdfrwt>
<totfact> 0.22081247E+05</totfact>
</mgrwt>
</event>
<event>
 8    1  0.9123825E-006  0.5166363E+03  0.7546771E-02  0.1009526E+00
         21   -1    0    0  504  503  0.00000000000E+00  0.00000000000E+00  0.11981583446E+04  0.11981583446E+04  0.00000000000E+00 0. -1.
         21   -1    0    0  503  504 -0.00000000000E+00 -0.00000000000E+00 -0.55692350391E+02  0.55692350391E+02  0.00000000000E+00 0. -1.
         25    2    1    2    0    0  0.42817574401E+02  0.21956467275E+03  0.49220026689E+03  0.55491363957E+03  0.12500421776E+03 0.  0.
         25    2    1    2    0    0 -0.42817574401E+02 -0.21956467275E+03  0.65026572736E+03  0.69893705547E+03  0.12500200448E+03 0.  0.
          5    1    3    3  501    0  0.41896383132E+02  0.26880403246E+02  0.19008550775E+03  0.19655140105E+03  0.47000000000E+01 0. -1.
         -5    1    3    3    0  501  0.92119126903E+00  0.19268426950E+03  0.30211475915E+03  0.35836223853E+03  0.47000000000E+01 0. -1.
          5    1    4    4  502    0 -0.93909318298E+01 -0.21150270781E+03  0.47204142948E+03  0.51736523477E+03  0.47000000000E+01 0. -1.
         -5    1    4    4    0  502 -0.33426642571E+02 -0.80619649407E+01  0.17822429789E+03  0.18157182069E+03  0.47000000000E+01 0. -1.
<mgrwt>
<rscale>  0 0.51663625E+03</rscale>
<asrwt>0</asrwt>
<pdfrwt beam="1">  1       21 0.18433203E+00 0.51663625E+03</pdfrwt>
<pdfrwt beam="2">  1       21 0.85680548E-02 0.51663625E+03</pdfrwt>
<totfact> 0.15663574E+04</totfact>
</mgrwt>
</event>
<event>
 8    1  0.9123825E-006  0.3351293E+03  0.7546771E-02  0.1068890E+00
         21   -1    0    0  504  503  0.00000000000E+00  0.00000000000E+00  0.39228028433E+03  0.39228028433E+03  0.00000000000E+00 0. -1.
         21   -1    0    0  503  504 -0.00000000000E+00 -0.00000000000E+00 -0.71576130504E+02  0.71576130504E+02  0.00000000000E+00 0. -1.
         25    2    1    2    0    0  0.38806511727E+02  0.59241916409E+02  0.40962107092E+02  0.14939394662E+03  0.12500042822E+03 0.  0.
         25    2    1    2    0    0 -0.38806511727E+02 -0.59241916409E+02  0.27974204673E+03  0.31446246822E+03  0.12496191897E+03 0.  0.
          5    1    3    3  501    0  0.25219684638E+02  0.85785116793E+02 -0.10068834083E+02  0.90103219566E+02  0.47000000000E+01 0. -1.
         -5    1    3    3    0  501  0.13586827089E+02 -0.26543200384E+02  0.51030941175E+02  0.59290727051E+02  0.47000000000E+01 0. -1.
          5    1    4    4  502    0 -0.17606058610E+02  0.29179668773E+02  0.16205711738E+03  0.16566842083E+03  0.47000000000E+01 0. -1.
         -5    1    4    4    0  502 -0.21200453117E+02 -0.88421585182E+02  0.11768492936E+03  0.14879404738E+03  0.47000000000E+01 0. -1.
<mgrwt>
<rscale>  0 0.33512926E+03</rscale>
<asrwt>0</asrwt>
<pdfrwt beam="1">  1       21 0.60350812E-01 0.33512926E+03</pdfrwt>
<pdfrwt beam="2">  1       21 0.11011713E-01 0.33512926E+03</pdfrwt>
<totfact> 0.16829214E+05</totfact>
</mgrwt>
</event>
<event>
 8    1  0.9123825E-006  0.2954312E+03  0.7546771E-02  0.1087547E+00
         21   -1    0    0  504  503  0.00000000000E+00  0.00000000000E+00  0.62319047137E+02  0.62319047137E+02  0.00000000000E+00 0.  1.
         21   -1    0    0  503  504 -0.00000000000E+00 -0.00000000000E+00 -0.35013215015E+03  0.35013215015E+03  0.00000000000E+00 0.  1.
         25    2    1    2    0    0 -0.25036135988E+02 -0.31931908928E+02 -0.49755863808E+02  0.14052464480E+03  0.12500029960E+03 0.  0.
         25    2    1    2    0    0  0.25036135988E+02  0.31931908928E+02 -0.23805723920E+03  0.27192655248E+03  0.12500538347E+03 0.  0.
          5    1    3    3  501    0 -0.20421504321E+02 -0.24343007916E+02 -0.91820461755E+02  0.97276446636E+02  0.47000000000E+01 0. -1.
         -5    1    3    3    0  501 -0.46146316670E+01 -0.75889010127E+01  0.42064597948E+02  0.43248198165E+02  0.47000000000E+01 0. -1.
          5    1    4    4  502    0 -0.50595912933E+02  0.53315869005E+01 -0.95009315640E+02  0.10787600420E+03  0.47000000000E+01 0.  1.
         -5    1    4    4    0  502  0.75632048920E+02  0.26600322028E+02 -0.14304792356E+03  0.16405054828E+03  0.47000000000E+01 0.  1.
<mgrwt>
<rscale>  0 0.29543122E+03</rscale>
<asrwt>0</asrwt>
<pdfrwt beam="1">  1       21 0.95875458E-02 0.29543122E+03</pdfrwt>
<pdfrwt beam="2">  1       21 0.53866484E-01 0.29543122E+03</pdfrwt>
<totfact> 0.27778545E+05</totfact>
</mgrwt>
</event>
<event>
 8    1  0.9123825E-006  0.3953594E+03  0.7546771E-02  0.1045398E+00
         21   -1    0    0  504  503  0.00000000000E+00  0.00000000000E+00  0.10306254105E+04  0.10306254105E+04  0.00000000000E+00 0. -1.
         21   -1    0    0  503  504 -0.00000000000E+00 -0.00000000000E+00 -0.37916076291E+02  0.37916076291E+02  0.00000000000E+00 0. -1.
         25    2    1    2    0    0 -0.90974458796E+02 -0.35585126169E+02  0.81503214370E+03  0.83032832281E+03  0.12500030016E+03 0.  0.
         25    2    1    2    0    0  0.90974458796E+02  0.35585126169E+02  0.17767719049E+03  0.23821316396E+03  0.12503469161E+03 0.  0.
          5    1    3    3  501    0 -0.19681588592E+02 -0.33386752302E+02  0.57917265856E+02  0.69846544961E+02  0.47000000000E+01 0.  1.
         -5    1    3    3    0  501 -0.71292870204E+02 -0.21983738670E+01  0.75711487784E+03  0.76048177785E+03  0.47000000000E+01 0.  1.
          5    1    4    4  502    0  0.27174704231E+02 -0.14499648615E+02 -0.10795205118E+02  0.32974699598E+02  0.47000000000E+01 0. -1.
         -5    1    4    4    0  502  0.63799754564E+02  0.50084774784E+02  0.18847239561E+03  0.20523846436E+03  0.47000000000E+01 0. -1.
<mgrwt>
<rscale>  0 0.39535944E+03</rscale>
<asrwt>0</asrwt>
<pdfrwt beam="1">  1       21 0.15855773E+00 0.39535944E+03</pdfrwt>
<pdfrwt beam="2">  1       21 0.58332433E-02 0.39535944E+03</pdfrwt>
<totfact> 0.49086177E+04</totfact>
</mgrwt>
</event>
<event>
 8    1  0.9123825E-006  0.3109234E+03  0.7546771E-02  0.1079904E+00
         21   -1    0    0  504  503  0.00000000000E+00  0.00000000000E+00  0.14487611030E+04  0.14487611030E+04  0.00000000000E+00 0.  1.
         21   -1    0    0  503  504 -0.00000000000E+00 -0.00000000000E+00 -0.16682076471E+02  0.16682076471E+02  0.00000000000E+00 0.  1.
         25    2    1    2    0    0 -0.55654825383E+02  0.73599478649E+02  0.74143475827E+03  0.75753853428E+03  0.12499914917E+03 0.  0.
         25    2    1    2    0    0  0.55654825383E+02 -0.73599478649E+02  0.69064426825E+03  0.70790464518E+03  0.12500055427E+03 0.  0.
          5    1    3    3  501    0 -0.45457112445E+02 -0.16259836320E+02  0.11830424721E+03  0.12786209859E+03  0.47000000000E+01 0. -1.
         -5    1    3    3    0  501 -0.10197712938E+02  0.89859314969E+02  0.62313051107E+03  0.62967643568E+03  0.47000000000E+01 0. -1.
          5    1    4    4  502    0  0.30496711224E+02  0.33191339802E+02  0.21989853144E+03  0.22451986229E+03  0.47000000000E+01 0. -1.
         -5    1    4    4    0  502  0.25158114159E+02 -0.10679081845E+03  0.47074573681E+03  0.48338478290E+03  0.47000000000E+01 0. -1.
<mgrwt>
<rscale>  0 0.31092342E+03</rscale>
<asrwt>0</asrwt>
<pdfrwt beam="1">  1       21 0.22288622E+00 0.31092342E+03</pdfrwt>
<pdfrwt beam="2">  1       21 0.25664744E-02 0.31092342E+03</pdfrwt>
<totfact> 0.74228402E+04</totfact>
</mgrwt>
</event>
<event>
 8    1  0.9123825E-006  0.3243405E+03  0.7546771E-02  0.1073669E+00
         21   -1    0    0  504  503  0.00000000000E+00  0.00000000000E+00  0.21417352178E+03  0.21417352178E+03  0.00000000000E+00 0.  1.
         21   -1    0    0  503  504 -0.00000000000E+00 -0.00000000000E+00 -0.12279383970E+03  0.12279383970E+03  0.00000000000E+00 0.  1.
         25    2    1    2    0    0 -0.82577386713E+02 -0.46352241483E+02  0.88611774317E+02  0.18012183285E+03  0.12499709211E+03 0.  0.
         25    2    1    2    0    0  0.82577386713E+02  0.46352241483E+02  0.27679077708E+01  0.15684552863E+03  0.12500121380E+03 0.  0.
          5    1    3    3  501    0 -0.93437274418E+02 -0.78055790987E+02  0.60030598100E+02  0.13582707192E+03  0.47000000000E+01 0.  1.
         -5    1    3    3    0  501  0.10859887706E+02  0.31703549504E+02  0.28581176217E+02  0.44294760933E+02  0.47000000000E+01 0.  1.
          5    1    4    4  502    0 -0.56883002294E+01  0.64114092856E+02 -0.11536003726E+02  0.65560224559E+02  0.47000000000E+01 0.  1.
         -5    1    4    4    0  502  0.88265686942E+02 -0.17761851374E+02  0.14303911497E+02  0.91285304073E+02  0.47000000000E+01 0.  1.
<mgrwt>
<rscale>  0 0.32434049E+03</rscale>
<asrwt>0</asrwt>
<pdfrwt beam="1">  1       21 0.32949772E-01 0.32434049E+03</pdfrwt>
<pdfrwt beam="2">  1       21 0.18891360E-01 0.32434049E+03</pdfrwt>
<totfact> 0.22026751E+05</totfact>
</mgrwt>
</event>
<event>
 8    1  0.9123825E-006  0.2819928E+03  0.7546771E-02  0.1094605E+00
         21   -1    0    0  504  503  0.00000000000E+00  0.00000000000E+00  0.26671651598E+02  0.26671651598E+02  0.00000000000E+00 0.  1.
         21   -1    0    0  503  504 -0.00000000000E+00 -0.00000000000E+00 -0.74535990152E+03  0.74535990152E+03  0.00000000000E+00 0.  1.
         25    2    1    2    0    0  0.35444132532E+02  0.14019121206E+02 -0.50427566074E+03  0.52093271543E+03  0.12499651876E+03 0.  0.
         25    2    1    2    0    0 -0.35444132532E+02 -0.14019121206E+02 -0.21441258918E+03  0.25109883769E+03  0.12500018239E+03 0.  0.
          5    1    3    3  501    0 -0.59744060961E+01 -0.20332250993E+02 -0.10324568379E+02  0.24037068682E+02  0.47000000000E+01 0. -1.
         -5    1    3    3    0  501  0.41418538628E+02  0.34351372198E+02 -0.49395109236E+03  0.49689564675E+03  0.47000000000E+01 0. -1.
          5    1    4    4  502    0 -0.65265642450E+02 -0.12690713903E+02 -0.21028937032E+03  0.22060001716E+03  0.47000000000E+01 0.  1.
         -5    1    4    4    0  502  0.29821509918E+02 -0.13284073031E+01 -0.41232188686E+01  0.30498820528E+02  0.47000000000E+01 0.  1.
<mgrwt>
<rscale>  0 0.28199276E+03</rscale>
<asrwt>0</asrwt>
<pdfrwt beam="1">  1       21 0.41033310E-02 0.28199276E+03</pdfrwt>
<pdfrwt beam="2">  1       21 0.11467075E+00 0.28199276E+03</pdfrwt>
<totfact> 0.21550402E+05</totfact>
</mgrwt>
</event>
<event>
 8    1  0.9123825E-006  0.2688745E+03  0.7546771E-02  0.1101925E+00
         21   -1    0    0  504  503  0.00000000000E+00  0.00000000000E+00  0.48363541146E+03  0.48363541146E+03  0.00000000000E+00 0. -1.
         21   -1    0    0  503  504 -0.00000000000E+00 -0.00000000000E+00 -0.37369844592E+02  0.37369844592E+02  0.00000000000E+00 0. -1.
         25    2    1    2    0    0  0.13499121597E+02  0.34141934045E+02  0.15870064359E+03  0.20530474154E+03  0.12496497381E+03 0.  0.
         25    2    1    2    0    0 -0.13499121597E+02 -0.34141934045E+02  0.28756492328E+03  0.31570051452E+03  0.12500132727E+03 0.  0.
          5    1    3    3  501    0  0.17068103555E+01 -0.19080274946E+01  0.16625873171E+03  0.16634485156E+03  0.47000000000E+01 0.  1.
         -5    1    3    3    0  501  0.11792311241E+02  0.36049961540E+02 -0.75580881192E+01  0.38959889983E+02  0.47000000000E+01 0.  1.
          5    1    4    4  502    0  0.88101226072E+00 -0.26024105400E+02 -0.11411456945E+01  0.26484381397E+02  0.47000000000E+01 0. -1.
         -5    1    4    4    0  502 -0.14380133857E+02 -0.81178286454E+01  0.28870606898E+03  0.28921613312E+03  0.47000000000E+01 0. -1.
<mgrwt>
<rscale>  0 0.26887454E+03</rscale>
<asrwt>0</asrwt>
<pdfrwt beam="1">  1       21 0.74405444E-01 0.26887454E+03</pdfrwt>
<pdfrwt beam="2">  1       21 0.57492072E-02 0.26887454E+03</pdfrwt>
<totfact> 0.33683557E+05</totfact>
</mgrwt>
</event>
<event>
 8    1  0.9123825E-006  0.2829624E+03  0.7546771E-02  0.1094082E+00
         21   -1    0    0  504  503  0.00000000000E+00  0.00000000000E+00  0.43810863855E+03  0.43810863855E+03  0.00000000000E+00 0. -1.
         21   -1    0    0  503  504 -0.00000000000E+00 -0.00000000000E+00 -0.45689409856E+02  0.45689409856E+02  0.00000000000E+00 0. -1.
         25    2    1    2    0    0  0.30537909868E+02 -0.17037781324E+02  0.29245393854E+03  0.31996492853E+03  0.12500159754E+03 0.  0.
         25    2    1    2    0    0 -0.30537909868E+02  0.17037781324E+02  0.99965290148E+02  0.16383311988E+03  0.12500152800E+03 0.  0.
          5    1    3    3  501    0  0.24794773411E+02 -0.60416228316E+02  0.25137879322E+03  0.25976583515E+03  0.47000000000E+01 0.  1.
         -5    1    3    3    0  501  0.57431364574E+01  0.43378446992E+02  0.41075145324E+02  0.60199093375E+02  0.47000000000E+01 0.  1.
          5    1    4    4  502    0 -0.55939539881E+02  0.13012961070E+02 -0.28992848228E+01  0.57698051357E+02  0.47000000000E+01 0.  1.
         -5    1    4    4    0  502  0.25401630013E+02  0.40248202542E+01  0.10286457497E+03  0.10613506852E+03  0.47000000000E+01 0.  1.
<mgrwt>
<rscale>  0 0.28296237E+03</rscale>
<asrwt>0</asrwt>
<pdfrwt beam="1">  1       21 0.67401326E-01 0.28296237E+03</pdfrwt>
<pdfrwt beam="2">  1       21 0.70291403E-02 0.28296237E+03</pdfrwt>
<totfact> 0.29561978E+05</totfact>
</mgrwt>
</event>
<event>
 8    1  0.9123825E-006  0.3604243E+03  0.7546771E-02  0.1058416E+00
         21   -1    0    0  504  503  0.00000000000E+00  0.00000000000E+00  0.22611722277E+03  0.22611722277E+03  0.00000000000E+00 0. -1.
         21   -1    0    0  503  504 -0.00000000000E+00 -0.00000000000E+00 -0.14362646176E+03  0.14362646176E+03  0.00000000000E+00 0. -1.
         25    2    1    2    0    0 -0.67137541305E+02  0.10789299540E+03  0.14043126464E+02  0.17880360171E+03  0.12500068270E+03 0.  0.
         25    2    1    2    0    0  0.67137541305E+02 -0.10789299540E+03  0.68447634549E+02  0.19094008282E+03  0.12499875457E+03 0.  0.
          5    1    3    3  501    0 -0.42609012003E+02  0.26163253870E+02 -0.50871419163E+02  0.71484509123E+02  0.47000000000E+01 0.  1.
         -5    1    3    3    0  501 -0.24528529302E+02  0.81729741529E+02  0.64914545626E+02  0.10731909259E+03  0.47000000000E+01 0.  1.
          5    1    4    4  502    0  0.34259437667E+02 -0.76327951326E+02  0.10355882365E+03  0.13321480841E+03  0.47000000000E+01 0. -1.
         -5    1    4    4    0  502  0.32878103638E+02 -0.31565044073E+02 -0.35111189102E+02  0.57725274415E+02  0.47000000000E+01 0. -1.
<mgrwt>
<rscale>  0 0.36042429E+03</rscale>
<asrwt>0</asrwt>
<pdfrwt beam="1">  1       21 0.34787265E-01 0.36042429E+03</pdfrwt>
<pdfrwt beam="2">  1       21 0.22096379E-01 0.36042429E+03</pdfrwt>
<totfact> 0.14570332E+05</totfact>
</mgrwt>
</event>
<event>
 8    1  0.9123825E-006  0.3336256E+03  0.7546771E-02  0.1069544E+00
         21   -1    0    0  504  503  0.00000000000E+00  0.00000000000E+00  0.80730765297E+02  0.80730765297E+02  0.00000000000E+00 0.  1.
         21   -1    0    0  503  504 -0.00000000000E+00 -0.00000000000E+00 -0.34468291582E+03  0.34468291582E+03  0.00000000000E+00 0.  1.
         25    2    1    2    0    0 -0.80808424011E+02 -0.52735643636E+02 -0.20051604752E+03  0.25523165323E+03  0.12500184797E+03 0.  0.
         25    2    1    2    0    0  0.80808424011E+02  0.52735643636E+02 -0.63436103003E+02  0.17018202789E+03  0.12500693561E+03 0.  0.
          5    1    3    3  501    0  0.23233736744E+02 -0.34482721185E+02 -0.20825964477E+02  0.46740511120E+02  0.47000000000E+01 0.  1.
         -5    1    3    3    0  501 -0.10404216076E+03 -0.18252922451E+02 -0.17969008304E+03  0.20849114210E+03  0.47000000000E+01 0.  1.
          5    1    4    4  502    0 -0.20603460711E+02  0.46919536704E+02 -0.22549733667E+01  0.51508450013E+02  0.47000000000E+01 0. -1.
         -5    1    4    4    0  502  0.10141188472E+03  0.58161069316E+01 -0.61181129637E+02  0.11867357788E+03  0.47000000000E+01 0. -1.
<mgrwt>
<rscale>  0 0.33362563E+03</rscale>
<asrwt>0</asrwt>
<pdfrwt beam="1">  1       21 0.12420118E-01 0.33362563E+03</pdfrwt>
<pdfrwt beam="2">  1       21 0.53028141E-01 0.33362563E+03</pdfrwt>
<totfact> 0.17896401E+05</totfact>
</mgrwt>
</event>
<event>
 8    1  0.9123825E-006  0.2753563E+03  0.7546771E-02  0.1098253E+00
         21   -1    0    0  504  503  0.00000000000E+00  0.00000000000E+00  0.45125033568E+03  0.45125033568E+03  0.00000000000E+00 0.  1.
         21   -1    0    0  503  504 -0.00000000000E+00 -0.00000000000E+00 -0.42006127993E+02  0.42006127993E+02  0.00000000000E+00 0.  1.
         25    2    1    2    0    0  0.13524426836E+02 -0.22730189417E+02  0.11267347242E+03  0.17033377314E+03  0.12497484249E+03 0.  0.
         25    2    1    2    0    0 -0.13524426836E+02  0.22730189417E+02  0.29657073527E+03  0.32292269053E+03  0.12500116563E+03 0.  0.
          5    1    3    3  501    0 -0.46383363087E+01  0.14932679004E+02  0.12533427943E+03  0.12639331733E+03  0.47000000000E+01 0. -1.
         -5    1    3    3    0  501  0.18162763144E+02 -0.37662868421E+02 -0.12660807012E+02  0.43940455811E+02  0.47000000000E+01 0. -1.
          5    1    4    4  502    0  0.52366521472E+02  0.56957755229E+01  0.80321930605E+02  0.96168586170E+02  0.47000000000E+01 0. -1.
         -5    1    4    4    0  502 -0.65890948307E+02  0.17034413894E+02  0.21624880467E+03  0.22675410436E+03  0.47000000000E+01 0. -1.
<mgrwt>
<rscale>  0 0.27535635E+03</rscale>
<asrwt>0</asrwt>
<pdfrwt beam="1">  1       21 0.69423125E-01 0.27535635E+03</pdfrwt>
<pdfrwt beam="2">  1       21 0.64624815E-02 0.27535635E+03</pdfrwt>
<totfact> 0.32093133E+05</totfact>
</mgrwt>
</event>
<event>
 8    1  0.9123825E-006  0.2942470E+03  0.7546771E-02  0.1088152E+00
         21   -1    0    0  504  503  0.00000000000E+00  0.00000000000E+00  0.91875217621E+01  0.91875217621E+01  0.00000000000E+00 0.  1.
         21   -1    0    0  503  504 -0.00000000000E+00 -0.00000000000E+00 -0.23559474032E+04  0.23559474032E+04  0.00000000000E+00 0.  1.
         25    2    1    2    0    0 -0.58033591330E+02  0.74158533390E+01 -0.76381725445E+03  0.77618691306E+03  0.12500573270E+03 0.  0.
         25    2    1    2    0    0  0.58033591330E+02 -0.74158533390E+01 -0.15829426270E+04  0.15889480119E+04  0.12500212632E+03 0.  0.
          5    1    3    3  501    0 -0.18723659322E+02 -0.55828927855E+02 -0.43611957409E+03  0.44010205351E+03  0.47000000000E+01 0. -1.
         -5    1    3    3    0  501 -0.39309932008E+02  0.63244781194E+02 -0.32769768036E+03  0.33608485954E+03  0.47000000000E+01 0. -1.
          5    1    4    4  502    0  0.92855265595E+02 -0.26728263688E+02 -0.12081110200E+04  0.12119780638E+04  0.47000000000E+01 0. -1.
         -5    1    4    4    0  502 -0.34821674265E+02  0.19312410349E+02 -0.37483160695E+03  0.37696994809E+03  0.47000000000E+01 0. -1.
<mgrwt>
<rscale>  0 0.29424696E+03</rscale>
<asrwt>0</asrwt>
<pdfrwt beam="1">  1       21 0.14134636E-02 0.29424696E+03</pdfrwt>
<pdfrwt beam="2">  1       21 0.36245377E+00 0.29424696E+03</pdfrwt>
<totfact> 0.29095278E+04</totfact>
</mgrwt>
</event>
<event>
 8    1  0.9123825E-006  0.3188573E+03  0.7546771E-02  0.1076176E+00
         21   -1    0    0  504  503  0.00000000000E+00  0.00000000000E+00  0.94689953384E+02  0.94689953384E+02  0.00000000000E+00 0.  1.
         21   -1    0    0  503  504 -0.00000000000E+00 -0.00000000000E+00 -0.26842856940E+03  0.26842856940E+03  0.00000000000E+00 0.  1.
         25    2    1    2    0    0  0.53498429920E+02 -0.26067602602E+02 -0.17690519407E+03  0.22464141444E+03  0.12500686175E+03 0.  0.
         25    2    1    2    0    0 -0.53498429920E+02  0.26067602602E+02  0.31665780590E+01  0.13847710834E+03  0.12499712160E+03 0.  0.
          5    1    3    3  501    0  0.47918615610E+02 -0.17347798079E+02 -0.39691952380E+01  0.51332098448E+02  0.47000000000E+01 0.  1.
         -5    1    3    3    0  501  0.55798143099E+01 -0.87198045226E+01 -0.17293599883E+03  0.17330931600E+03  0.47000000000E+01 0.  1.
          5    1    4    4  502    0  0.16397745416E+02 -0.35133451670E+02 -0.18114026000E+02  0.43051752797E+02  0.47000000000E+01 0.  1.
         -5    1    4    4    0  502 -0.69896175336E+02  0.61201054272E+02  0.21280604059E+02  0.95425355539E+02  0.47000000000E+01 0.  1.
<mgrwt>
<rscale>  0 0.31885726E+03</rscale>
<asrwt>0</asrwt>
<pdfrwt beam="1">  1       21 0.14567685E-01 0.31885726E+03</pdfrwt>
<pdfrwt beam="2">  1       21 0.41296703E-01 0.31885726E+03</pdfrwt>
<totfact> 0.22632917E+05</totfact>
</mgrwt>
</event>
<event>
 8    1  0.9123825E-006  0.2759214E+03  0.7546771E-02  0.1097938E+00
         21   -1    0    0  504  503  0.00000000000E+00  0.00000000000E+00  0.12673086683E+03  0.12673086683E+03  0.00000000000E+00 0. -1.
         21   -1    0    0  503  504 -0.00000000000E+00 -0.00000000000E+00 -0.15018567719E+03  0.15018567719E+03  0.00000000000E+00 0. -1.
         25    2    1    2    0    0 -0.29805142334E+02 -0.27219925171E+02 -0.54042576774E+02  0.14203489538E+03  0.12499616221E+03 0.  0.
         25    2    1    2    0    0  0.29805142334E+02  0.27219925171E+02  0.30587766418E+02  0.13488164863E+03  0.12501270675E+03 0.  0.
          5    1    3    3  501    0  0.23793501768E+02  0.95923329151E+01  0.27323615222E+02  0.37773185276E+02  0.47000000000E+01 0.  1.
         -5    1    3    3    0  501 -0.53598644102E+02 -0.36812258086E+02 -0.81366191995E+02  0.10426171011E+03  0.47000000000E+01 0.  1.
          5    1    4    4  502    0 -0.15680717078E+02  0.34706427901E+02  0.66147870433E+02  0.76472555787E+02  0.47000000000E+01 0. -1.
         -5    1    4    4    0  502  0.45485859412E+02 -0.74865027305E+01 -0.35560104015E+02  0.58409092846E+02  0.47000000000E+01 0. -1.
<mgrwt>
<rscale>  0 0.27592145E+03</rscale>
<asrwt>0</asrwt>
<pdfrwt beam="1">  1       21 0.19497057E-01 0.27592145E+03</pdfrwt>
<pdfrwt beam="2">  1       21 0.23105489E-01 0.27592145E+03</pdfrwt>
<totfact> 0.41871114E+05</totfact>
</mgrwt>
</event>
<event>
 8    1  0.9123825E-006  0.2960650E+03  0.7546771E-02  0.1087224E+00
         21   -1    0    0  504  503  0.00000000000E+00  0.00000000000E+00  0.12199648757E+03  0.12199648757E+03  0.00000000000E+00 0. -1.
         21   -1    0    0  503  504 -0.00000000000E+00 -0.00000000000E+00 -0.17962499910E+03  0.17962499910E+03  0.00000000000E+00 0. -1.
         25    2    1    2    0    0 -0.59293227607E+02 -0.42762841959E+02 -0.60129115450E+02  0.15679426664E+03  0.12499833612E+03 0.  0.
         25    2    1    2    0    0  0.59293227607E+02  0.42762841959E+02  0.25006039171E+01  0.14482722002E+03  0.12499729256E+03 0.  0.
          5    1    3    3  501    0 -0.81726174368E+02 -0.35943478442E+01 -0.60333519190E+00  0.81942302424E+02  0.47000000000E+01 0.  1.
         -5    1    3    3    0  501  0.22432946761E+02 -0.39168494115E+02 -0.59525780258E+02  0.74851964215E+02  0.47000000000E+01 0.  1.
          5    1    4    4  502    0  0.41344238311E+02 -0.41297874130E+02 -0.15763819069E+01  0.58646700070E+02  0.47000000000E+01 0. -1.
         -5    1    4    4    0  502  0.17948989296E+02  0.84060716089E+02  0.40769858240E+01  0.86180519954E+02  0.47000000000E+01 0. -1.
<mgrwt>
<rscale>  0 0.29606499E+03</rscale>
<asrwt>0</asrwt>
<pdfrwt beam="1">  1       21 0.18768690E-01 0.29606499E+03</pdfrwt>
<pdfrwt beam="2">  1       21 0.27634615E-01 0.29606499E+03</pdfrwt>
<totfact> 0.31721446E+05</totfact>
</mgrwt>
</event>
<event>
 8    1  0.9123825E-006  0.2764657E+03  0.7546771E-02  0.1097635E+00
         21   -1    0    0  504  503  0.00000000000E+00  0.00000000000E+00  0.20312103143E+04  0.20312103143E+04  0.00000000000E+00 0.  1.
         21   -1    0    0  503  504 -0.00000000000E+00 -0.00000000000E+00 -0.94073540080E+01  0.94073540080E+01  0.00000000000E+00 0.  1.
         25    2    1    2    0    0 -0.42407155356E+00 -0.35132774525E+02  0.13609051035E+04  0.13670856144E+04  0.12500353911E+03 0.  0.
         25    2    1    2    0    0  0.42407155356E+00  0.35132774525E+02  0.66089785675E+03  0.67353205383E+03  0.12499983518E+03 0.  0.
          5    1    3    3  501    0  0.35806263241E+02 -0.70333715472E+02  0.84759147632E+03  0.85127100312E+03  0.47000000000E+01 0. -1.
         -5    1    3    3    0  501 -0.36230334795E+02  0.35200940947E+02  0.51331362718E+03  0.51581461132E+03  0.47000000000E+01 0. -1.
          5    1    4    4  502    0  0.32045855390E+02  0.72948060057E+02  0.43627396522E+03  0.44351484648E+03  0.47000000000E+01 0.  1.
         -5    1    4    4    0  502 -0.31621783836E+02 -0.37815285531E+02  0.22462389152E+03  0.23001720735E+03  0.47000000000E+01 0.  1.
<mgrwt>
<rscale>  0 0.27646565E+03</rscale>
<asrwt>0</asrwt>
<pdfrwt beam="1">  1       21 0.31249354E+00 0.27646565E+03</pdfrwt>
<pdfrwt beam="2">  1       21 0.14472869E-02 0.27646565E+03</pdfrwt>
<totfact> 0.56316321E+04</totfact>
</mgrwt>
</event>
<event>
 8    1  0.9123825E-006  0.3741364E+03  0.7546771E-02  0.1053123E+00
         21   -1    0    0  504  503  0.00000000000E+00  0.00000000000E+00  0.82731663277E+02  0.82731663277E+02  0.00000000000E+00 0. -1.
         21   -1    0    0  503  504 -0.00000000000E+00 -0.00000000000E+00 -0.42298807636E+03  0.42298807636E+03  0.00000000000E+00 0. -1.
         25    2    1    2    0    0 -0.80223125902E+02 -0.86160340056E+02 -0.69788065099E+02  0.18534923250E+03  0.12499843931E+03 0.  0.
         25    2    1    2    0    0  0.80223125902E+02  0.86160340056E+02 -0.27046834799E+03  0.32037050714E+03  0.12499912181E+03 0.  0.
          5    1    3    3  501    0 -0.48338619934E+02 -0.64245575802E+02  0.23791904739E+02  0.83977740613E+02  0.47000000000E+01 0.  1.
         -5    1    3    3    0  501 -0.31884505967E+02 -0.21914764253E+02 -0.93579969838E+02  0.10137149189E+03  0.47000000000E+01 0.  1.
          5    1    4    4  502    0  0.11619459555E+02  0.95615859306E+01  0.11947191611E+02  0.19780322374E+02  0.47000000000E+01 0. -1.
         -5    1    4    4    0  502  0.68603666347E+02  0.76598754125E+02 -0.28241553960E+03  0.30059018476E+03  0.47000000000E+01 0. -1.
<mgrwt>
<rscale>  0 0.37413638E+03</rscale>
<asrwt>0</asrwt>
<pdfrwt beam="1">  1       21 0.12727948E-01 0.37413638E+03</pdfrwt>
<pdfrwt beam="2">  1       21 0.65075089E-01 0.37413638E+03</pdfrwt>
<totfact> 0.10877207E+05</totfact>
</mgrwt>
</event>
<event>
 8    1  0.9123825E-006  0.2965878E+03  0.7546771E-02  0.1086959E+00
         21   -1    0    0  504  503  0.00000000000E+00  0.00000000000E+00  0.74584311030E+02  0.74584311030E+02  0.00000000000E+00 0.  1.
         21   -1    0    0  503  504 -0.00000000000E+00 -0.00000000000E+00 -0.29484852374E+03  0.29484852374E+03  0.00000000000E+00 0.  1.
         25    2    1    2    0    0 -0.90728461814E+01 -0.78606513779E+02 -0.97600480250E+02  0.17723371022E+03  0.12499853498E+03 0.  0.
         25    2    1    2    0    0  0.90728461814E+01  0.78606513779E+02 -0.12266373246E+03  0.19219912455E+03  0.12503124278E+03 0.  0.
          5    1    3    3  501    0 -0.38745555993E+02 -0.11082791054E+02 -0.94978909344E+02  0.10328179698E+03  0.47000000000E+01 0. -1.
         -5    1    3    3    0  501  0.29672709811E+02 -0.67523722725E+02 -0.26215709064E+01  0.73951913243E+02  0.47000000000E+01 0. -1.
          5    1    4    4  502    0  0.38172196181E+02  0.12156010235E+02 -0.11160202219E+03  0.11866754613E+03  0.47000000000E+01 0.  1.
         -5    1    4    4    0  502 -0.29099350000E+02  0.66450503545E+02 -0.11061710270E+02  0.73531578426E+02  0.47000000000E+01 0.  1.
<mgrwt>
<rscale>  0 0.29658775E+03</rscale>
<asrwt>0</asrwt>
<pdfrwt beam="1">  1       21 0.11474509E-01 0.29658775E+03</pdfrwt>
<pdfrwt beam="2">  1       21 0.45361311E-01 0.29658775E+03</pdfrwt>
<totfact> 0.28906281E+05</totfact>
</mgrwt>
</event>
<event>
 8    1  0.9123825E-006  0.3078852E+03  0.7546771E-02  0.1081364E+00
         21   -1    0    0  504  503  0.00000000000E+00  0.00000000000E+00  0.76605664026E+02  0.76605664026E+02  0.00000000000E+00 0.  1.
         21   -1    0    0  503  504 -0.00000000000E+00 -0.00000000000E+00 -0.30935462456E+03  0.30935462456E+03  0.00000000000E+00 0.  1.
         25    2    1    2    0    0  0.56246814256E+02 -0.63598777412E+02 -0.15327974650E+03  0.21523213623E+03  0.12498673201E+03 0.  0.
         25    2    1    2    0    0 -0.56246814256E+02  0.63598777412E+02 -0.79469214039E+02  0.17072815236E+03  0.12499694966E+03 0.  0.
          5    1    3    3  501    0  0.27972214632E+02  0.34819110553E+02 -0.26313104671E+02  0.52050789893E+02  0.47000000000E+01 0. -1.
         -5    1    3    3    0  501  0.28274599624E+02 -0.98417887965E+02 -0.12696664182E+03  0.16318134634E+03  0.47000000000E+01 0. -1.
          5    1    4    4  502    0  0.14662071213E+02 -0.61410133143E+01 -0.68593331440E+02  0.70567864463E+02  0.47000000000E+01 0. -1.
         -5    1    4    4    0  502 -0.70908885469E+02  0.69739790726E+02 -0.10875882598E+02  0.10016028790E+03  0.47000000000E+01 0. -1.
<mgrwt>
<rscale>  0 0.30788515E+03</rscale>
<asrwt>0</asrwt>
<pdfrwt beam="1">  1       21 0.11785487E-01 0.30788515E+03</pdfrwt>
<pdfrwt beam="2">  1       21 0.47593019E-01 0.30788515E+03</pdfrwt>
<totfact> 0.24863099E+05</totfact>
</mgrwt>
</event>
<event>
 8    1  0.9123825E-006  0.5738170E+03  0.7546771E-02  0.9961268E-01
         21   -1    0    0  504  503  0.00000000000E+00  0.00000000000E+00  0.19108439214E+04  0.19108439214E+04  0.00000000000E+00 0.  1.
         21   -1    0    0  503  504 -0.00000000000E+00 -0.00000000000E+00 -0.43078599398E+02  0.43078599398E+02  0.00000000000E+00 0.  1.
         25    2    1    2    0    0 -0.25965243566E+02  0.94255078577E+02  0.17477964549E+04  0.17549858397E+04  0.12499854553E+03 0.  0.
         25    2    1    2    0    0  0.25965243566E+02 -0.94255078577E+02  0.11996886718E+03  0.19893668109E+03  0.12500024112E+03 0.  0.
          5    1    3    3  501    0 -0.12190812220E+02  0.82321970577E+02  0.17160976404E+04  0.17181206955E+04  0.47000000000E+01 0. -1.
         -5    1    3    3    0  501 -0.13774431346E+02  0.11933108001E+02  0.31698814404E+02  0.36865144244E+02  0.47000000000E+01 0. -1.
          5    1    4    4  502    0 -0.41385534395E+01 -0.22126115025E+02  0.11840877049E+03  0.12062097463E+03  0.47000000000E+01 0.  1.
         -5    1    4    4    0  502  0.30103797006E+02 -0.72128963553E+02  0.15600966930E+01  0.78315706465E+02  0.47000000000E+01 0.  1.
<mgrwt>
<rscale>  0 0.57381697E+03</rscale>
<asrwt>0</asrwt>
<pdfrwt beam="1">  1       21 0.29397592E+00 0.57381697E+03</pdfrwt>
<pdfrwt beam="2">  1       21 0.66274783E-02 0.57381697E+03</pdfrwt>
<totfact> 0.48719948E+03</totfact>
</mgrwt>
</event>
<event>
 8    1  0.9123825E-006  0.3544366E+03  0.7546771E-02  0.1060809E+00
         21   -1    0    0  504  503  0.00000000000E+00  0.00000000000E+00  0.39525658331E+03  0.39525658331E+03  0.00000000000E+00 0.  1.
         21   -1    0    0  503  504 -0.00000000000E+00 -0.00000000000E+00 -0.79458066755E+02  0.79458066755E+02  0.00000000000E+00 0.  1.
         25    2    1    2    0    0  0.21975921540E+02 -0.12075417712E+03  0.19378675179E+03  0.26123261622E+03  0.12499864875E+03 0.  0.
         25    2    1    2    0    0 -0.21975921540E+02  0.12075417712E+03  0.12201176476E+03  0.21348203384E+03  0.12499278224E+03 0.  0.
          5    1    3    3  501    0 -0.43952985552E+02 -0.86959121713E+02  0.13491621585E+03  0.16648792475E+03  0.47000000000E+01 0. -1.
         -5    1    3    3    0  501  0.65928907092E+02 -0.33795055407E+02  0.58870535938E+02  0.94744691471E+02  0.47000000000E+01 0. -1.
          5    1    4    4  502    0  0.25497422262E+02 -0.33506656615E+01 -0.81843236066E+01  0.27393770374E+02  0.47000000000E+01 0.  1.
         -5    1    4    4    0  502 -0.47473343802E+02  0.12410484278E+03  0.13019608837E+03  0.18608826347E+03  0.47000000000E+01 0.  1.
<mgrwt>
<rscale>  0 0.35443659E+03</rscale>
<asrwt>0</asrwt>
<pdfrwt beam="1">  1       21 0.60808704E-01 0.35443659E+03</pdfrwt>
<pdfrwt beam="2">  1       21 0.12224318E-01 0.35443659E+03</pdfrwt>
<totfact> 0.13647455E+05</totfact>
</mgrwt>
</event>
<event>
 8    1  0.9123825E-006  0.2784637E+03  0.7546771E-02  0.1096531E+00
         21   -1    0    0  504  503  0.00000000000E+00  0.00000000000E+00  0.30838151844E+03  0.30838151844E+03  0.00000000000E+00 0.  1.
         21   -1    0    0  503  504 -0.00000000000E+00 -0.00000000000E+00 -0.62862088274E+02  0.62862088274E+02  0.00000000000E+00 0.  1.
         25    2    1    2    0    0  0.39203418555E+02 -0.81867137080E+00  0.59891591415E+02  0.14404560860E+03  0.12499822552E+03 0.  0.
         25    2    1    2    0    0 -0.39203418555E+02  0.81867137080E+00  0.18562783875E+03  0.22719799812E+03  0.12499463021E+03 0.  0.
          5    1    3    3  501    0  0.40899128034E+02  0.17201925685E+02  0.94614576776E+02  0.10460713675E+03  0.47000000000E+01 0. -1.
         -5    1    3    3    0  501 -0.16957094790E+01 -0.18020597055E+02 -0.34722985361E+02  0.39438471842E+02  0.47000000000E+01 0. -1.
          5    1    4    4  502    0 -0.68561775241E+02  0.41068479997E+02  0.12688581576E+03  0.15003145442E+03  0.47000000000E+01 0.  1.
         -5    1    4    4    0  502  0.29358356686E+02 -0.40249808626E+02  0.58742022994E+02  0.77166543704E+02  0.47000000000E+01 0.  1.
<mgrwt>
<rscale>  0 0.27846369E+03</rscale>
<asrwt>0</asrwt>
<pdfrwt beam="1">  1       21 0.47443310E-01 0.27846369E+03</pdfrwt>
<pdfrwt beam="2">  1       21 0.96710907E-02 0.27846369E+03</pdfrwt>
<totfact> 0.35876020E+05</totfact>
</mgrwt>
</event>
<event>
 8    1  0.9123825E-006  0.3652339E+03  0.7546771E-02  0.1056530E+00
         21   -1    0    0  504  503  0.00000000000E+00  0.00000000000E+00  0.12864376115E+03  0.12864376115E+03  0.00000000000E+00 0. -1.
         21   -1    0    0  503  504 -0.00000000000E+00 -0.00000000000E+00 -0.25923484751E+03  0.25923484751E+03  0.00000000000E+00 0. -1.
         25    2    1    2    0    0 -0.24069148009E+02  0.11975650825E+03 -0.90695649849E+01  0.17500997507E+03  0.12500115683E+03 0.  0.
         25    2    1    2    0    0  0.24069148009E+02 -0.11975650825E+03 -0.12152152138E+03  0.21286863358E+03  0.12499851939E+03 0.  0.
          5    1    3    3  501    0 -0.20125954415E+02  0.21322072459E+02 -0.57815689071E+02  0.64995605373E+02  0.47000000000E+01 0. -1.
         -5    1    3    3    0  501 -0.39431935946E+01  0.98434435796E+02  0.48746124086E+02  0.11001436970E+03  0.47000000000E+01 0. -1.
          5    1    4    4  502    0  0.48870084844E+02  0.32460066830E+01 -0.34882009625E+02  0.60313069459E+02  0.47000000000E+01 0.  1.
         -5    1    4    4    0  502 -0.24800936835E+02 -0.12300251494E+03 -0.86639511750E+02  0.15255556412E+03  0.47000000000E+01 0.  1.
<mgrwt>
<rscale>  0 0.36523387E+03</rscale>
<asrwt>0</asrwt>
<pdfrwt beam="1">  1       21 0.19791348E-01 0.36523387E+03</pdfrwt>
<pdfrwt beam="2">  1       21 0.39882284E-01 0.36523387E+03</pdfrwt>
<totfact> 0.13600685E+05</totfact>
</mgrwt>
</event>
<event>
 8    1  0.9123825E-006  0.2759018E+03  0.7546771E-02  0.1097949E+00
         21   -1    0    0  504  503  0.00000000000E+00  0.00000000000E+00  0.15992534000E+02  0.15992534000E+02  0.00000000000E+00 0.  1.
         21   -1    0    0  503  504 -0.00000000000E+00 -0.00000000000E+00 -0.11899584634E+04  0.11899584634E+04  0.00000000000E+00 0.  1.
         25    2    1    2    0    0  0.53463223994E+02 -0.37183382945E+01 -0.68789343236E+03  0.70120954010E+03  0.12500120990E+03 0.  0.
         25    2    1    2    0    0 -0.53463223994E+02  0.37183382945E+01 -0.48607249706E+03  0.50474145733E+03  0.12500129593E+03 0.  0.
          5    1    3    3  501    0 -0.13182452755E+02  0.44951395063E+02 -0.15657884549E+03  0.16350360801E+03  0.47000000000E+01 0. -1.
         -5    1    3    3    0  501  0.66645676748E+02 -0.48669733358E+02 -0.53131458688E+03  0.53770593209E+03  0.47000000000E+01 0. -1.
          5    1    4    4  502    0 -0.86768016893E+02  0.30700273082E+02 -0.35449695597E+03  0.36628046265E+03  0.47000000000E+01 0.  1.
         -5    1    4    4    0  502  0.33304792899E+02 -0.26981934788E+02 -0.13157554109E+03  0.13846099468E+03  0.47000000000E+01 0.  1.
<mgrwt>
<rscale>  0 0.27590180E+03</rscale>
<asrwt>0</asrwt>
<pdfrwt beam="1">  1       21 0.24603900E-02 0.27590180E+03</pdfrwt>
<pdfrwt beam="2">  1       21 0.18307052E+00 0.27590180E+03</pdfrwt>
<totfact> 0.14669086E+05</totfact>
</mgrwt>
</event>
<event>
 8    1  0.9123825E-006  0.2536251E+03  0.7546771E-02  0.1111035E+00
         21   -1    0    0  504  503  0.00000000000E+00  0.00000000000E+00  0.42575354483E+02  0.42575354483E+02  0.00000000000E+00 0. -1.
         21   -1    0    0  503  504 -0.00000000000E+00 -0.00000000000E+00 -0.37771682096E+03  0.37771682096E+03  0.00000000000E+00 0. -1.
         25    2    1    2    0    0 -0.10511453821E+01  0.18618966637E+02 -0.15029373803E+03  0.19637021717E+03  0.12500113470E+03 0.  0.
         25    2    1    2    0    0  0.10511453821E+01 -0.18618966637E+02 -0.18484772845E+03  0.22392195827E+03  0.12499835942E+03 0.  0.
          5    1    3    3  501    0 -0.17623435664E+02  0.65210370002E+02 -0.49098115985E+02  0.83640258451E+02  0.47000000000E+01 0.  1.
         -5    1    3    3    0  501  0.16572290282E+02 -0.46591403365E+02 -0.10119562205E+03  0.11272995872E+03  0.47000000000E+01 0.  1.
          5    1    4    4  502    0 -0.33769531216E+02  0.43055133806E+01 -0.17815334308E+03  0.18143765413E+03  0.47000000000E+01 0. -1.
         -5    1    4    4    0  502  0.34820676598E+02 -0.22924480018E+02 -0.66943853616E+01  0.42484304139E+02  0.47000000000E+01 0. -1.
<mgrwt>
<rscale>  0 0.25362514E+03</rscale>
<asrwt>0</asrwt>
<pdfrwt beam="1">  1       21 0.65500542E-02 0.25362514E+03</pdfrwt>
<pdfrwt beam="2">  1       21 0.58110283E-01 0.25362514E+03</pdfrwt>
<totfact> 0.46459160E+05</totfact>
</mgrwt>
</event>
<event>
 8    1  0.9123825E-006  0.8112041E+03  0.7546771E-02  0.9543940E-01
         21   -1    0    0  504  503  0.00000000000E+00  0.00000000000E+00  0.30463690363E+03  0.30463690363E+03  0.00000000000E+00 0. -1.
         21   -1    0    0  503  504 -0.00000000000E+00 -0.00000000000E+00 -0.54002989634E+03  0.54002989634E+03  0.00000000000E+00 0. -1.
         25    2    1    2    0    0  0.38244441369E+03  0.45254199596E+02 -0.92710427318E+02  0.41537039278E+03  0.12500267086E+03 0.  0.
         25    2    1    2    0    0 -0.38244441369E+03 -0.45254199596E+02 -0.14268256539E+03  0.42929640719E+03  0.12500167445E+03 0.  0.
          5    1    3    3  501    0  0.22188367870E+03  0.84605594143E+02 -0.74855143276E+02  0.24902982936E+03  0.47000000000E+01 0.  1.
         -5    1    3    3    0  501  0.16056073498E+03 -0.39351394547E+02 -0.17855284041E+02  0.16634056342E+03  0.47000000000E+01 0.  1.
          5    1    4    4  502    0 -0.27062600254E+03 -0.29168032454E+02 -0.37380355455E+02  0.27478826092E+03  0.47000000000E+01 0.  1.
         -5    1    4    4    0  502 -0.11181841115E+03 -0.16086167142E+02 -0.10530220993E+03  0.15450814627E+03  0.47000000000E+01 0.  1.
<mgrwt>
<rscale>  0 0.81120413E+03</rscale>
<asrwt>0</asrwt>
<pdfrwt beam="1">  1       21 0.46867216E-01 0.81120413E+03</pdfrwt>
<pdfrwt beam="2">  1       21 0.83081522E-01 0.81120413E+03</pdfrwt>
<totfact> 0.44349433E+03</totfact>
</mgrwt>
</event>
<event>
 8    1  0.9123825E-006  0.3404448E+03  0.7546771E-02  0.1066607E+00
         21   -1    0    0  504  503  0.00000000000E+00  0.00000000000E+00  0.18821804052E+02  0.18821804052E+02  0.00000000000E+00 0. -1.
         21   -1    0    0  503  504 -0.00000000000E+00 -0.00000000000E+00 -0.15394729175E+04  0.15394729175E+04  0.00000000000E+00 0. -1.
         25    2    1    2    0    0  0.31543455440E+02  0.51105415980E+02 -0.12121540332E+04  0.12200605945E+04  0.12499480392E+03 0.  0.
         25    2    1    2    0    0 -0.31543455440E+02 -0.51105415980E+02 -0.30849708026E+03  0.33823412703E+03  0.12500049214E+03 0.  0.
          5    1    3    3  501    0  0.25173864493E+02  0.84372537307E+02 -0.54989135780E+03  0.55691565240E+03  0.47000000000E+01 0.  1.
         -5    1    3    3    0  501  0.63695909467E+01 -0.33267121326E+02 -0.66226267536E+03  0.66314494209E+03  0.47000000000E+01 0.  1.
          5    1    4    4  502    0  0.46340609658E+01  0.18222732632E+02  0.57324049463E+00  0.19389716611E+02  0.47000000000E+01 0. -1.
         -5    1    4    4    0  502 -0.36177516406E+02 -0.69328148612E+02 -0.30907032075E+03  0.31884441042E+03  0.47000000000E+01 0. -1.
<mgrwt>
<rscale>  0 0.34044475E+03</rscale>
<asrwt>0</asrwt>
<pdfrwt beam="1">  1       21 0.28956621E-02 0.34044475E+03</pdfrwt>
<pdfrwt beam="2">  1       21 0.23684199E+00 0.34044475E+03</pdfrwt>
<totfact> 0.49113946E+04</totfact>
</mgrwt>
</event>
<event>
 8    1  0.9123825E-006  0.3292562E+03  0.7546771E-02  0.1071466E+00
         21   -1    0    0  504  503  0.00000000000E+00  0.00000000000E+00  0.12938472165E+02  0.12938472165E+02  0.00000000000E+00 0.  1.
         21   -1    0    0  503  504 -0.00000000000E+00 -0.00000000000E+00 -0.20947150489E+04  0.20947150489E+04  0.00000000000E+00 0.  1.
         25    2    1    2    0    0  0.19681801915E+02  0.46726673978E+02 -0.43675833892E+03  0.45711412554E+03  0.12499888708E+03 0.  0.
         25    2    1    2    0    0 -0.19681801915E+02 -0.46726673978E+02 -0.16450182379E+04  0.16505393956E+04  0.12499815209E+03 0.  0.
          5    1    3    3  501    0 -0.12090848894E+02  0.61803007289E+02 -0.98531658091E+02  0.11703152560E+03  0.47000000000E+01 0. -1.
         -5    1    3    3    0  501  0.31772650809E+02 -0.15076333311E+02 -0.33822668082E+03  0.34008259995E+03  0.47000000000E+01 0. -1.
          5    1    4    4  502    0 -0.30659888522E+02  0.15796557566E+02 -0.14309416731E+03  0.14726707273E+03  0.47000000000E+01 0. -1.
         -5    1    4    4    0  502  0.10978086607E+02 -0.62523231544E+02 -0.15019240705E+04  0.15032723228E+04  0.47000000000E+01 0. -1.
<mgrwt>
<rscale>  0 0.32925621E+03</rscale>
<asrwt>0</asrwt>
<pdfrwt beam="1">  1       21 0.19905350E-02 0.32925621E+03</pdfrwt>
<pdfrwt beam="2">  1       21 0.32226372E+00 0.32925621E+03</pdfrwt>
<totfact> 0.28367908E+04</totfact>
</mgrwt>
</event>
<event>
 8    1  0.9123825E-006  0.3437486E+03  0.7546771E-02  0.1065211E+00
         21   -1    0    0  504  503  0.00000000000E+00  0.00000000000E+00  0.11688229783E+03  0.11688229783E+03  0.00000000000E+00 0. -1.
         21   -1    0    0  503  504 -0.00000000000E+00 -0.00000000000E+00 -0.25273945025E+03  0.25273945025E+03  0.00000000000E+00 0. -1.
         25    2    1    2    0    0 -0.21017294477E+02  0.35764478179E+01 -0.19268319394E+03  0.23066604612E+03  0.12500197582E+03 0.  0.
         25    2    1    2    0    0  0.21017294477E+02 -0.35764478179E+01  0.56826041523E+02  0.13895570196E+03  0.12499988186E+03 0.  0.
          5    1    3    3  501    0 -0.49182063140E+01  0.56039627802E+02 -0.15213739236E+03  0.16227293302E+03  0.47000000000E+01 0.  1.
         -5    1    3    3    0  501 -0.16099088163E+02 -0.52463179984E+02 -0.40545801585E+02  0.68393113103E+02  0.47000000000E+01 0.  1.
          5    1    4    4  502    0  0.82685290180E+00 -0.16302881959E+02 -0.37699823218E+02  0.41350142884E+02  0.47000000000E+01 0. -1.
         -5    1    4    4    0  502  0.20190441576E+02  0.12726434141E+02  0.94525864740E+02  0.97605559072E+02  0.47000000000E+01 0. -1.
<mgrwt>
<rscale>  0 0.34374856E+03</rscale>
<asrwt>0</asrwt>
<pdfrwt beam="1">  1       21 0.17981892E-01 0.34374856E+03</pdfrwt>
<pdfrwt beam="2">  1       21 0.38882992E-01 0.34374856E+03</pdfrwt>
<totfact> 0.17236372E+05</totfact>
</mgrwt>
</event>
<event>
 8    1  0.9123825E-006  0.2618527E+03  0.7546771E-02  0.1106035E+00
         21   -1    0    0  504  503  0.00000000000E+00  0.00000000000E+00  0.12623030891E+03  0.12623030891E+03  0.00000000000E+00 0. -1.
         21   -1    0    0  503  504 -0.00000000000E+00 -0.00000000000E+00 -0.13579711957E+03  0.13579711957E+03  0.00000000000E+00 0. -1.
         25    2    1    2    0    0 -0.11149693859E+02 -0.37271179195E+02 -0.57321149552E+01  0.13104672949E+03  0.12500772655E+03 0.  0.
         25    2    1    2    0    0  0.11149693859E+02  0.37271179195E+02 -0.38346956994E+01  0.13098069900E+03  0.12501112809E+03 0.  0.
          5    1    3    3  501    0  0.43518754238E+02 -0.20531442870E+02  0.35854626521E+02  0.60191912743E+02  0.47000000000E+01 0.  1.
         -5    1    3    3    0  501 -0.54668448097E+02 -0.16739736325E+02 -0.41586741476E+02  0.70854816746E+02  0.47000000000E+01 0.  1.
          5    1    4    4  502    0  0.52601529747E+02 -0.22938169741E+02  0.81940990394E+00  0.57583348248E+02  0.47000000000E+01 0.  1.
         -5    1    4    4    0  502 -0.41451835888E+02  0.60209348936E+02 -0.46541056034E+01  0.73397350748E+02  0.47000000000E+01 0.  1.
<mgrwt>
<rscale>  0 0.26185272E+03</rscale>
<asrwt>0</asrwt>
<pdfrwt beam="1">  1       21 0.19420048E-01 0.26185272E+03</pdfrwt>
<pdfrwt beam="2">  1       21 0.20891864E-01 0.26185272E+03</pdfrwt>
<totfact> 0.51201047E+05</totfact>
</mgrwt>
</event>
<event>
 8    1  0.9123825E-006  0.2899157E+03  0.7546771E-02  0.1090393E+00
         21   -1    0    0  504  503  0.00000000000E+00  0.00000000000E+00  0.47837252407E+03  0.47837252407E+03  0.00000000000E+00 0. -1.
         21   -1    0    0  503  504 -0.00000000000E+00 -0.00000000000E+00 -0.43925562871E+02  0.43925562871E+02  0.00000000000E+00 0. -1.
         25    2    1    2    0    0 -0.76520472436E+01  0.42308849838E+02  0.11002307906E+03  0.17198531064E+03  0.12500110618E+03 0.  0.
         25    2    1    2    0    0  0.76520472436E+01 -0.42308849838E+02  0.32442388214E+03  0.35031277631E+03  0.12497837148E+03 0.  0.
          5    1    3    3  501    0  0.24785183757E+02  0.51114107194E+02  0.16099519649E+00  0.57000642168E+02  0.47000000000E+01 0.  1.
         -5    1    3    3    0  501 -0.32437231000E+02 -0.88052573565E+01  0.10986208386E+03  0.11498466847E+03  0.47000000000E+01 0.  1.
          5    1    4    4  502    0 -0.21221863687E+02  0.11684557104E+02  0.26051767148E+03  0.26168386180E+03  0.47000000000E+01 0.  1.
         -5    1    4    4    0  502  0.28873910931E+02 -0.53993406942E+02  0.63906210666E+02  0.88628914510E+02  0.47000000000E+01 0.  1.
<mgrwt>
<rscale>  0 0.28991573E+03</rscale>
<asrwt>0</asrwt>
<pdfrwt beam="1">  1       21 0.73595769E-01 0.28991573E+03</pdfrwt>
<pdfrwt beam="2">  1       21 0.67577792E-02 0.28991573E+03</pdfrwt>
<totfact> 0.25982384E+05</totfact>
</mgrwt>
</event>
<event>
 8    1  0.9123825E-006  0.3389408E+03  0.7546771E-02  0.1067248E+00
         21   -1    0    0  504  503  0.00000000000E+00  0.00000000000E+00  0.15479208390E+03  0.15479208390E+03  0.00000000000E+00 0.  1.
         21   -1    0    0  503  504 -0.00000000000E+00 -0.00000000000E+00 -0.18554057298E+03  0.18554057298E+03  0.00000000000E+00 0.  1.
         25    2    1    2    0    0 -0.63092293258E+02  0.44959786346E+02  0.69184909662E+02  0.16253052753E+03  0.12501040275E+03 0.  0.
         25    2    1    2    0    0  0.63092293258E+02 -0.44959786346E+02 -0.99933398743E+02  0.17780212935E+03  0.12499957264E+03 0.  0.
          5    1    3    3  501    0 -0.96439436794E+02  0.38251288841E+02  0.74459994493E+02  0.12778930647E+03  0.47000000000E+01 0. -1.
         -5    1    3    3    0  501  0.33347143536E+02  0.67084975057E+01 -0.52750848311E+01  0.34741221061E+02  0.47000000000E+01 0. -1.
          5    1    4    4  502    0  0.96174227350E+02 -0.52260952595E+02 -0.91080197804E+02  0.14247238892E+03  0.47000000000E+01 0.  1.
         -5    1    4    4    0  502 -0.33081934092E+02  0.73011662483E+01 -0.88532009390E+01  0.35329740428E+02  0.47000000000E+01 0.  1.
<mgrwt>
<rscale>  0 0.33894077E+03</rscale>
<asrwt>0</asrwt>
<pdfrwt beam="1">  1       21 0.23814167E-01 0.33894077E+03</pdfrwt>
<pdfrwt beam="2">  1       21 0.28544704E-01 0.33894077E+03</pdfrwt>
<totfact> 0.18781459E+05</totfact>
</mgrwt>
</event>
<event>
 8    1  0.9123825E-006  0.4453143E+03  0.7546771E-02  0.1029129E+00
         21   -1    0    0  504  503  0.00000000000E+00  0.00000000000E+00  0.83354657929E+02  0.83354657929E+02  0.00000000000E+00 0.  1.
         21   -1    0    0  503  504 -0.00000000000E+00 -0.00000000000E+00 -0.59476233249E+03  0.59476233249E+03  0.00000000000E+00 0.  1.
         25    2    1    2    0    0  0.14090642252E+03  0.11436364025E+03 -0.20711575451E+03  0.30241611579E+03  0.12499963682E+03 0.  0.
         25    2    1    2    0    0 -0.14090642252E+03 -0.11436364025E+03 -0.30429192005E+03  0.37570087463E+03  0.12499564981E+03 0.  0.
          5    1    3    3  501    0  0.72424328927E+02  0.11322519412E+03 -0.76160695895E+02  0.15455668735E+03  0.47000000000E+01 0.  1.
         -5    1    3    3    0  501  0.68482093592E+02  0.11384461243E+01 -0.13095505862E+03  0.14785942844E+03  0.47000000000E+01 0.  1.
          5    1    4    4  502    0 -0.25368361238E+02 -0.70477583690E+02 -0.42710641680E+02  0.86353531876E+02  0.47000000000E+01 0.  1.
         -5    1    4    4    0  502 -0.11553806128E+03 -0.43886056556E+02 -0.26158127837E+03  0.28934734275E+03  0.47000000000E+01 0.  1.
<mgrwt>
<rscale>  0 0.44531432E+03</rscale>
<asrwt>0</asrwt>
<pdfrwt beam="1">  1       21 0.12823794E-01 0.44531432E+03</pdfrwt>
<pdfrwt beam="2">  1       21 0.91501896E-01 0.44531432E+03</pdfrwt>
<totfact> 0.48366708E+04</totfact>
</mgrwt>
</event>
<event>
 8    1  0.9123825E-006  0.2604992E+03  0.7546771E-02  0.1106844E+00
         21   -1    0    0  504  503  0.00000000000E+00  0.00000000000E+00  0.12187674814E+03  0.12187674814E+03  0.00000000000E+00 0. -1.
         21   -1    0    0  503  504 -0.00000000000E+00 -0.00000000000E+00 -0.13919770645E+03  0.13919770645E+03  0.00000000000E+00 0. -1.
         25    2    1    2    0    0 -0.53455960985E+01 -0.13797693874E+02  0.24896278645E+02  0.12831060937E+03  0.12499934413E+03 0.  0.
         25    2    1    2    0    0  0.53455960985E+01  0.13797693874E+02 -0.42217236952E+02  0.13276384521E+03  0.12499996698E+03 0.  0.
          5    1    3    3  501    0 -0.52333437842E+01 -0.55494238628E+02  0.53598949741E+02  0.77472161590E+02  0.47000000000E+01 0. -1.
         -5    1    3    3    0  501 -0.11225231429E+00  0.41696544754E+02 -0.28702671096E+02  0.50838447784E+02  0.47000000000E+01 0. -1.
          5    1    4    4  502    0 -0.19247181489E+02  0.55345196553E+02  0.12017601653E+02  0.60000479383E+02  0.47000000000E+01 0.  1.
         -5    1    4    4    0  502  0.24592777588E+02 -0.41547502679E+02 -0.54234838605E+02  0.72763365829E+02  0.47000000000E+01 0.  1.
<mgrwt>
<rscale>  0 0.26049924E+03</rscale>
<asrwt>0</asrwt>
<pdfrwt beam="1">  1       21 0.18750269E-01 0.26049924E+03</pdfrwt>
<pdfrwt beam="2">  1       21 0.21415032E-01 0.26049924E+03</pdfrwt>
<totfact> 0.52193248E+05</totfact>
</mgrwt>
</event>
<event>
 8    1  0.9123825E-006  0.2774358E+03  0.7546771E-02  0.1097098E+00
         21   -1    0    0  504  503  0.00000000000E+00  0.00000000000E+00  0.47809262083E+02  0.47809262083E+02  0.00000000000E+00 0.  1.
         21   -1    0    0  503  504 -0.00000000000E+00 -0.00000000000E+00 -0.40248812513E+03  0.40248812513E+03  0.00000000000E+00 0.  1.
         25    2    1    2    0    0  0.25577185427E+02 -0.54405414889E+01 -0.26521017506E+03  0.29435722496E+03  0.12500378802E+03 0.  0.
         25    2    1    2    0    0 -0.25577185427E+02  0.54405414889E+01 -0.89468687982E+02  0.15594016226E+03  0.12501558371E+03 0.  0.
          5    1    3    3  501    0  0.34143113758E+02 -0.47262653616E+01 -0.27691616161E+03  0.27909270926E+03  0.47000000000E+01 0. -1.
         -5    1    3    3    0  501 -0.85659283310E+01 -0.71427612727E+00  0.11705986543E+02  0.15264515698E+02  0.47000000000E+01 0. -1.
          5    1    4    4  502    0  0.17309194359E+02  0.45449486847E+02 -0.36418513725E-02  0.48860557480E+02  0.47000000000E+01 0. -1.
         -5    1    4    4    0  502 -0.42886379786E+02 -0.40008945358E+02 -0.89465046131E+02  0.10707960478E+03  0.47000000000E+01 0. -1.
<mgrwt>
<rscale>  0 0.27743583E+03</rscale>
<asrwt>0</asrwt>
<pdfrwt beam="1">  1       21 0.73552707E-02 0.27743583E+03</pdfrwt>
<pdfrwt beam="2">  1       21 0.61921253E-01 0.27743583E+03</pdfrwt>
<totfact> 0.32940475E+05</totfact>
</mgrwt>
</event>
<event>
 8    1  0.9123825E-006  0.2580059E+03  0.7546771E-02  0.1108347E+00
         21   -1    0    0  504  503  0.00000000000E+00  0.00000000000E+00  0.12648650548E+03  0.12648650548E+03  0.00000000000E+00 0. -1.
         21   -1    0    0  503  504 -0.00000000000E+00 -0.00000000000E+00 -0.13156944859E+03  0.13156944859E+03  0.00000000000E+00 0. -1.
         25    2    1    2    0    0  0.28965336707E+02  0.39980777486E+01 -0.15216298258E+02  0.12928085977E+03  0.12500811820E+03 0.  0.
         25    2    1    2    0    0 -0.28965336707E+02 -0.39980777486E+01  0.10133355156E+02  0.12877509429E+03  0.12500145866E+03 0.  0.
          5    1    3    3  501    0  0.29489727221E+02  0.24945687968E+02  0.48421045311E+02  0.62117783192E+02  0.47000000000E+01 0. -1.
         -5    1    3    3    0  501 -0.52439051350E+00 -0.20947610219E+02 -0.63637343569E+02  0.67163076581E+02  0.47000000000E+01 0. -1.
          5    1    4    4  502    0  0.33781587024E+02 -0.28494679694E+02  0.35256669514E+02  0.56729755314E+02  0.47000000000E+01 0. -1.
         -5    1    4    4    0  502 -0.62746923731E+02  0.24496601945E+02 -0.25123314359E+02  0.72045338981E+02  0.47000000000E+01 0. -1.
<mgrwt>
<rscale>  0 0.25800589E+03</rscale>
<asrwt>0</asrwt>
<pdfrwt beam="1">  1       21 0.19459462E-01 0.25800589E+03</pdfrwt>
<pdfrwt beam="2">  1       21 0.20241454E-01 0.25800589E+03</pdfrwt>
<totfact> 0.54176634E+05</totfact>
</mgrwt>
</event>
<event>
 8    1  0.9123825E-006  0.2506901E+03  0.7546771E-02  0.1112869E+00
         21   -1    0    0  504  503  0.00000000000E+00  0.00000000000E+00  0.45705949054E+03  0.45705949054E+03  0.00000000000E+00 0.  1.
         21   -1    0    0  503  504 -0.00000000000E+00 -0.00000000000E+00 -0.34374924395E+02  0.34374924395E+02  0.00000000000E+00 0.  1.
         25    2    1    2    0    0  0.56254108502E+01  0.44460600079E+01  0.22299797191E+03  0.25574117537E+03  0.12499616237E+03 0.  0.
         25    2    1    2    0    0 -0.56254108502E+01 -0.44460600079E+01  0.19968659424E+03  0.23569323957E+03  0.12500061825E+03 0.  0.
          5    1    3    3  501    0 -0.21550680574E+02 -0.31452638642E+02  0.20238622664E+03  0.20599993943E+03  0.47000000000E+01 0.  1.
         -5    1    3    3    0  501  0.27176091424E+02  0.35898698649E+02  0.20611745269E+02  0.49741235940E+02  0.47000000000E+01 0.  1.
          5    1    4    4  502    0  0.42748834635E+02  0.39561367835E+02  0.11050102495E+03  0.12500052481E+03  0.47000000000E+01 0. -1.
         -5    1    4    4    0  502 -0.48374245486E+02 -0.44007427842E+02  0.89185569290E+02  0.11069271476E+03  0.47000000000E+01 0. -1.
<mgrwt>
<rscale>  0 0.25069013E+03</rscale>
<asrwt>0</asrwt>
<pdfrwt beam="1">  1       21 0.70316840E-01 0.25069013E+03</pdfrwt>
<pdfrwt beam="2">  1       21 0.52884502E-02 0.25069013E+03</pdfrwt>
<totfact> 0.44277586E+05</totfact>
</mgrwt>
</event>
<event>
 8    1  0.9123825E-006  0.3340207E+03  0.7546771E-02  0.1069372E+00
         21   -1    0    0  504  503  0.00000000000E+00  0.00000000000E+00  0.67099054333E+02  0.67099054333E+02  0.00000000000E+00 0.  1.
         21   -1    0    0  503  504 -0.00000000000E+00 -0.00000000000E+00 -0.41569076907E+03  0.41569076907E+03  0.00000000000E+00 0.  1.
         25    2    1    2    0    0  0.68152925382E+02  0.86689952087E+02 -0.15936115575E+03  0.23061091525E+03  0.12500178895E+03 0.  0.
         25    2    1    2    0    0 -0.68152925382E+02 -0.86689952087E+02 -0.18923055899E+03  0.25217890815E+03  0.12500411286E+03 0.  0.
          5    1    3    3  501    0 -0.27198555688E+02  0.32276061726E+02 -0.74416126755E+01  0.43115811384E+02  0.47000000000E+01 0.  1.
         -5    1    3    3    0  501  0.95351481069E+02  0.54413890360E+02 -0.15191954308E+03  0.18749510387E+03  0.47000000000E+01 0.  1.
          5    1    4    4  502    0 -0.57923856915E+01 -0.67394014356E+02 -0.17143334930E+03  0.18435560246E+03  0.47000000000E+01 0. -1.
         -5    1    4    4    0  502 -0.62360539690E+02 -0.19295937731E+02 -0.17797209685E+02  0.67823305699E+02  0.47000000000E+01 0. -1.
<mgrwt>
<rscale>  0 0.33402070E+03</rscale>
<asrwt>0</asrwt>
<pdfrwt beam="1">  1       21 0.10322932E-01 0.33402070E+03</pdfrwt>
<pdfrwt beam="2">  1       21 0.63952425E-01 0.33402070E+03</pdfrwt>
<totfact> 0.16650514E+05</totfact>
</mgrwt>
</event>
<event>
 8    1  0.9123825E-006  0.2668775E+03  0.7546771E-02  0.1103080E+00
         21   -1    0    0  504  503  0.00000000000E+00  0.00000000000E+00  0.25970761594E+03  0.25970761594E+03  0.00000000000E+00 0. -1.
         21   -1    0    0  503  504 -0.00000000000E+00 -0.00000000000E+00 -0.68561334163E+02  0.68561334163E+02  0.00000000000E+00 0. -1.
         25    2    1    2    0    0  0.42992467520E+02 -0.13502763283E+02  0.11079380658E+03  0.17300749277E+03  0.12500259237E+03 0.  0.
         25    2    1    2    0    0 -0.42992467520E+02  0.13502763283E+02  0.80352475196E+02  0.15526145733E+03  0.12497568957E+03 0.  0.
          5    1    3    3  501    0  0.52237052217E+02 -0.33342226941E+02  0.22612164741E+01  0.62190166599E+02  0.47000000000E+01 0. -1.
         -5    1    3    3    0  501 -0.92445846974E+01  0.19839463657E+02  0.10853259010E+03  0.11081732617E+03  0.47000000000E+01 0. -1.
          5    1    4    4  502    0 -0.10699731266E+02 -0.13882281717E+02 -0.31065319899E+02  0.35977021767E+02  0.47000000000E+01 0. -1.
         -5    1    4    4    0  502 -0.32292736254E+02  0.27385045000E+02  0.11141779510E+03  0.11928443557E+03  0.47000000000E+01 0. -1.
<mgrwt>
<rscale>  0 0.26687750E+03</rscale>
<asrwt>0</asrwt>
<pdfrwt beam="1">  1       21 0.39955017E-01 0.26687750E+03</pdfrwt>
<pdfrwt beam="2">  1       21 0.10547898E-01 0.26687750E+03</pdfrwt>
<totfact> 0.43895029E+05</totfact>
</mgrwt>
</event>
<event>
 8    1  0.9123825E-006  0.4194369E+03  0.7546771E-02  0.1037250E+00
         21   -1    0    0  504  503  0.00000000000E+00  0.00000000000E+00  0.44358107995E+03  0.44358107995E+03  0.00000000000E+00 0.  1.
         21   -1    0    0  503  504 -0.00000000000E+00 -0.00000000000E+00 -0.99151700107E+02  0.99151700107E+02  0.00000000000E+00 0.  1.
         25    2    1    2    0    0 -0.99716284178E+02  0.13519731291E+03  0.15726377434E+03  0.26187845778E+03  0.12500712451E+03 0.  0.
         25    2    1    2    0    0  0.99716284178E+02 -0.13519731291E+03  0.18716560550E+03  0.28085432228E+03  0.12500614269E+03 0.  0.
          5    1    3    3  501    0 -0.11888157044E+03  0.81535776454E+02  0.77487098182E+02  0.16372920026E+03  0.47000000000E+01 0.  1.
         -5    1    3    3    0  501  0.19165286263E+02  0.53661536459E+02  0.79776676160E+02  0.98149257521E+02  0.47000000000E+01 0.  1.
          5    1    4    4  502    0  0.22562443499E+02 -0.28273017542E+02  0.13354460233E+03  0.13843654933E+03  0.47000000000E+01 0.  1.
         -5    1    4    4    0  502  0.77153840680E+02 -0.10692429537E+03  0.53621003173E+02  0.14241777296E+03  0.47000000000E+01 0.  1.
<mgrwt>
<rscale>  0 0.41943685E+03</rscale>
<asrwt>0</asrwt>
<pdfrwt beam="1">  1       21 0.68243242E-01 0.41943685E+03</pdfrwt>
<pdfrwt beam="2">  1       21 0.15254108E-01 0.41943685E+03</pdfrwt>
<totfact> 0.69438274E+04</totfact>
</mgrwt>
</event>
<event>
 8    1  0.9123825E-006  0.3795999E+03  0.7546771E-02  0.1051082E+00
         21   -1    0    0  504  503  0.00000000000E+00  0.00000000000E+00  0.91398782871E+02  0.91398782871E+02  0.00000000000E+00 0. -1.
         21   -1    0    0  503  504 -0.00000000000E+00 -0.00000000000E+00 -0.39414116367E+03  0.39414116367E+03  0.00000000000E+00 0. -1.
         25    2    1    2    0    0  0.13002702578E+03  0.27949094751E+02 -0.21796005291E+03  0.28429004337E+03  0.12500425899E+03 0.  0.
         25    2    1    2    0    0 -0.13002702578E+03 -0.27949094751E+02 -0.84782327888E+02  0.20124990317E+03  0.12500120428E+03 0.  0.
          5    1    3    3  501    0  0.11748160861E+03 -0.24990226794E+02 -0.18464049018E+03  0.22031940544E+03  0.47000000000E+01 0.  1.
         -5    1    3    3    0  501  0.12545417173E+02  0.52939321544E+02 -0.33319562727E+02  0.63970637936E+02  0.47000000000E+01 0.  1.
          5    1    4    4  502    0 -0.59871782035E+02 -0.40051923932E+02  0.19613037585E+02  0.74803396567E+02  0.47000000000E+01 0. -1.
         -5    1    4    4    0  502 -0.70155243746E+02  0.12102829181E+02 -0.10439536547E+03  0.12644650660E+03  0.47000000000E+01 0. -1.
<mgrwt>
<rscale>  0 0.37959991E+03</rscale>
<asrwt>0</asrwt>
<pdfrwt beam="1">  1       21 0.14061351E-01 0.37959991E+03</pdfrwt>
<pdfrwt beam="2">  1       21 0.60637102E-01 0.37959991E+03</pdfrwt>
<totfact> 0.10573974E+05</totfact>
</mgrwt>
</event>
<event>
 8    1  0.9123825E-006  0.3225450E+03  0.7546771E-02  0.1074484E+00
         21   -1    0    0  504  503  0.00000000000E+00  0.00000000000E+00  0.36646226228E+03  0.36646226228E+03  0.00000000000E+00 0.  1.
         21   -1    0    0  503  504 -0.00000000000E+00 -0.00000000000E+00 -0.70972705445E+02  0.70972705445E+02  0.00000000000E+00 0.  1.
         25    2    1    2    0    0  0.97666978699E+01 -0.10028724737E+03  0.12696144651E+03  0.20468801567E+03  0.12500021795E+03 0.  0.
         25    2    1    2    0    0 -0.97666978699E+01  0.10028724737E+03  0.16852811032E+03  0.23274695205E+03  0.12496599277E+03 0.  0.
          5    1    3    3  501    0  0.53663734674E+02 -0.78310292827E+02  0.36807516581E+02  0.10192733519E+03  0.47000000000E+01 0.  1.
         -5    1    3    3    0  501 -0.43897036804E+02 -0.21976954543E+02  0.90153929933E+02  0.10276068048E+03  0.47000000000E+01 0.  1.
          5    1    4    4  502    0  0.43833331279E+02  0.23355325465E+02  0.11337049296E+03  0.12386198300E+03  0.47000000000E+01 0. -1.
         -5    1    4    4    0  502 -0.53600029149E+02  0.76931921904E+02  0.55157617357E+02  0.10888496905E+03  0.47000000000E+01 0. -1.
<mgrwt>
<rscale>  0 0.32254499E+03</rscale>
<asrwt>0</asrwt>
<pdfrwt beam="1">  1       21 0.56378808E-01 0.32254499E+03</pdfrwt>
<pdfrwt beam="2">  1       21 0.10918878E-01 0.32254499E+03</pdfrwt>
<totfact> 0.19855472E+05</totfact>
</mgrwt>
</event>
<event>
 8    1  0.9123825E-006  0.3827761E+03  0.7546771E-02  0.1049912E+00
         21   -1    0    0  504  503  0.00000000000E+00  0.00000000000E+00  0.40765582199E+02  0.40765582199E+02  0.00000000000E+00 0. -1.
         21   -1    0    0  503  504 -0.00000000000E+00 -0.00000000000E+00 -0.89853704922E+03  0.89853704922E+03  0.00000000000E+00 0. -1.
         25    2    1    2    0    0  0.56576914493E+02 -0.13336950928E+03 -0.43875755743E+03  0.47866650164E+03  0.12500020933E+03 0.  0.
         25    2    1    2    0    0 -0.56576914493E+02  0.13336950928E+03 -0.41901390960E+03  0.46063612979E+03  0.12499845745E+03 0.  0.
          5    1    3    3  501    0  0.21768240423E+02 -0.22334705141E+01 -0.34067039036E+01  0.22639353196E+02  0.47000000000E+01 0. -1.
         -5    1    3    3    0  501  0.34808674071E+02 -0.13113603877E+03 -0.43535085352E+03  0.45602714844E+03  0.47000000000E+01 0. -1.
          5    1    4    4  502    0  0.12480671793E+02 -0.20394857312E+00  0.20580971927E+01  0.13495722563E+02  0.47000000000E+01 0. -1.
         -5    1    4    4    0  502 -0.69057586287E+02  0.13357345785E+03 -0.42107200679E+03  0.44714040722E+03  0.47000000000E+01 0. -1.
<mgrwt>
<rscale>  0 0.38277610E+03</rscale>
<asrwt>0</asrwt>
<pdfrwt beam="1">  1       21 0.62716287E-02 0.38277610E+03</pdfrwt>
<pdfrwt beam="2">  1       21 0.13823646E+00 0.38277610E+03</pdfrwt>
<totfact> 0.62854913E+04</totfact>
</mgrwt>
</event>
<event>
 8    1  0.9123825E-006  0.7636522E+03  0.7546771E-02  0.9614172E-01
         21   -1    0    0  504  503  0.00000000000E+00  0.00000000000E+00  0.35161816520E+03  0.35161816520E+03  0.00000000000E+00 0.  1.
         21   -1    0    0  503  504 -0.00000000000E+00 -0.00000000000E+00 -0.41462928090E+03  0.41462928090E+03  0.00000000000E+00 0.  1.
         25    2    1    2    0    0  0.32095649822E+03  0.16330014099E+03 -0.93754732793E+01  0.38130385403E+03  0.12499887921E+03 0.  0.
         25    2    1    2    0    0 -0.32095649822E+03 -0.16330014099E+03 -0.53635642416E+02  0.38494359207E+03  0.12499910856E+03 0.  0.
          5    1    3    3  501    0  0.29939164355E+03  0.10571719827E+03  0.65582744702E+01  0.31761074164E+03  0.47000000000E+01 0.  1.
         -5    1    3    3    0  501  0.21564854665E+02  0.57582942722E+02 -0.15933747750E+02  0.63693112395E+02  0.47000000000E+01 0.  1.
          5    1    4    4  502    0 -0.28070094866E+03 -0.11547989674E+03 -0.84454484471E+02  0.31509249289E+03  0.47000000000E+01 0. -1.
         -5    1    4    4    0  502 -0.40255549558E+02 -0.47820244249E+02  0.30818842055E+02  0.69851099174E+02  0.47000000000E+01 0. -1.
<mgrwt>
<rscale>  0 0.76365224E+03</rscale>
<asrwt>0</asrwt>
<pdfrwt beam="1">  1       21 0.54095102E-01 0.76365224E+03</pdfrwt>
<pdfrwt beam="2">  1       21 0.63789120E-01 0.76365224E+03</pdfrwt>
<totfact> 0.60269421E+03</totfact>
</mgrwt>
</event>
<event>
 8    1  0.9123825E-006  0.3385522E+03  0.7546771E-02  0.1067414E+00
         21   -1    0    0  504  503  0.00000000000E+00  0.00000000000E+00  0.24944503537E+02  0.24944503537E+02  0.00000000000E+00 0. -1.
         21   -1    0    0  503  504 -0.00000000000E+00 -0.00000000000E+00 -0.11487261369E+04  0.11487261369E+04  0.00000000000E+00 0. -1.
         25    2    1    2    0    0 -0.25422228780E+02 -0.91434685428E+02 -0.78170217278E+03  0.79730259122E+03  0.12500617433E+03 0.  0.
         25    2    1    2    0    0  0.25422228780E+02  0.91434685428E+02 -0.34207946060E+03  0.37636804923E+03  0.12501183826E+03 0.  0.
          5    1    3    3  501    0 -0.60910199543E+02 -0.10256207521E+03 -0.60579983184E+03  0.61745004489E+03  0.47000000000E+01 0.  1.
         -5    1    3    3    0  501  0.35487970763E+02  0.11127389780E+02 -0.17590234094E+03  0.17985254632E+03  0.47000000000E+01 0.  1.
          5    1    4    4  502    0  0.74510890794E+02  0.39314269216E+02 -0.20392831214E+03  0.22069510892E+03  0.47000000000E+01 0.  1.
         -5    1    4    4    0  502 -0.49088662014E+02  0.52120416211E+02 -0.13815114846E+03  0.15567294031E+03  0.47000000000E+01 0.  1.
<mgrwt>
<rscale>  0 0.33855223E+03</rscale>
<asrwt>0</asrwt>
<pdfrwt beam="1">  1       21 0.38376157E-02 0.33855223E+03</pdfrwt>
<pdfrwt beam="2">  1       21 0.17672711E+00 0.33855223E+03</pdfrwt>
<totfact> 0.75482083E+04</totfact>
</mgrwt>
</event>
<event>
 8    1  0.9123825E-006  0.2864165E+03  0.7546771E-02  0.1092235E+00
         21   -1    0    0  504  503  0.00000000000E+00  0.00000000000E+00  0.83897712898E+03  0.83897712898E+03  0.00000000000E+00 0. -1.
         21   -1    0    0  503  504 -0.00000000000E+00 -0.00000000000E+00 -0.24444773570E+02  0.24444773570E+02  0.00000000000E+00 0. -1.
         25    2    1    2    0    0 -0.15798176439E+02  0.58989505068E+02  0.50962614435E+03  0.52827664843E+03  0.12501226416E+03 0.  0.
         25    2    1    2    0    0  0.15798176439E+02 -0.58989505068E+02  0.30490621106E+03  0.33514525412E+03  0.12500079890E+03 0.  0.
          5    1    3    3  501    0  0.45052776608E+02  0.62773422361E+02  0.30822015216E+03  0.31779239675E+03  0.47000000000E+01 0.  1.
         -5    1    3    3    0  501 -0.60850953047E+02 -0.37839172934E+01  0.20140599219E+03  0.21048425169E+03  0.47000000000E+01 0.  1.
          5    1    4    4  502    0 -0.54569581740E+02 -0.19198419667E+02  0.13379400793E+03  0.14584013551E+03  0.47000000000E+01 0.  1.
         -5    1    4    4    0  502  0.70367758179E+02 -0.39791085401E+02  0.17111220313E+03  0.18930511860E+03  0.47000000000E+01 0.  1.
<mgrwt>
<rscale>  0 0.28641652E+03</rscale>
<asrwt>0</asrwt>
<pdfrwt beam="1">  1       21 0.12907338E+00 0.28641652E+03</pdfrwt>
<pdfrwt beam="2">  1       21 0.37607350E-02 0.28641652E+03</pdfrwt>
<totfact> 0.18522245E+05</totfact>
</mgrwt>
</event>
<event>
 8    1  0.9123825E-006  0.3029465E+03  0.7546771E-02  0.1083777E+00
         21   -1    0    0  504  503  0.00000000000E+00  0.00000000000E+00  0.55173884383E+03  0.55173884383E+03  0.00000000000E+00 0.  1.
         21   -1    0    0  503  504 -0.00000000000E+00 -0.00000000000E+00 -0.41585165293E+02  0.41585165293E+02  0.00000000000E+00 0.  1.
         25    2    1    2    0    0  0.50402111750E+02 -0.35950370345E+01  0.11986493850E+03  0.18040420266E+03  0.12499910277E+03 0.  0.
         25    2    1    2    0    0 -0.50402111750E+02  0.35950370345E+01  0.39028874003E+03  0.41291980646E+03  0.12499667521E+03 0.  0.
          5    1    3    3  501    0 -0.19416596083E+02 -0.47945266280E+02  0.44114425067E+02  0.68146351781E+02  0.47000000000E+01 0.  1.
         -5    1    3    3    0  501  0.69818707833E+02  0.44350229246E+02  0.75750513436E+02  0.11225785088E+03  0.47000000000E+01 0.  1.
          5    1    4    4  502    0 -0.59348603831E+02 -0.46372411972E+02  0.15791412555E+03  0.17501890874E+03  0.47000000000E+01 0.  1.
         -5    1    4    4    0  502  0.89464920811E+01  0.49967449007E+02  0.23237461449E+03  0.23790089772E+03  0.47000000000E+01 0.  1.
<mgrwt>
<rscale>  0 0.30294654E+03</rscale>
<asrwt>0</asrwt>
<pdfrwt beam="1">  1       21 0.84882894E-01 0.30294654E+03</pdfrwt>
<pdfrwt beam="2">  1       21 0.63977181E-02 0.30294654E+03</pdfrwt>
<totfact> 0.20574615E+05</totfact>
</mgrwt>
</event>
<event>
 8    1  0.9123825E-006  0.3565124E+03  0.7546771E-02  0.1059973E+00
         21   -1    0    0  504  503  0.00000000000E+00  0.00000000000E+00  0.16567686365E+03  0.16567686365E+03  0.00000000000E+00 0.  1.
         21   -1    0    0  503  504 -0.00000000000E+00 -0.00000000000E+00 -0.19179068686E+03  0.19179068686E+03  0.00000000000E+00 0.  1.
         25    2    1    2    0    0  0.11060099026E+02 -0.94578662648E+02  0.71328781092E+02  0.17256859115E+03  0.12499869767E+03 0.  0.
         25    2    1    2    0    0 -0.11060099026E+02  0.94578662648E+02 -0.97442604300E+02  0.18489895936E+03  0.12500045929E+03 0.  0.
          5    1    3    3  501    0 -0.50879880621E+01 -0.99315864719E+02  0.98638990550E+02  0.14014731201E+03  0.47000000000E+01 0. -1.
         -5    1    3    3    0  501  0.16148087088E+02  0.47372020713E+01 -0.27310209459E+02  0.32421279135E+02  0.47000000000E+01 0. -1.
          5    1    4    4  502    0 -0.48653063620E+02  0.62052024265E+02 -0.41699281893E+01  0.79101533589E+02  0.47000000000E+01 0. -1.
         -5    1    4    4    0  502  0.37592964595E+02  0.32526638383E+02 -0.93272676111E+02  0.10579742577E+03  0.47000000000E+01 0. -1.
<mgrwt>
<rscale>  0 0.35651244E+03</rscale>
<asrwt>0</asrwt>
<pdfrwt beam="1">  1       21 0.25488748E-01 0.35651244E+03</pdfrwt>
<pdfrwt beam="2">  1       21 0.29506260E-01 0.35651244E+03</pdfrwt>
<totfact> 0.15375183E+05</totfact>
</mgrwt>
</event>
<event>
 8    1  0.9123825E-006  0.2634504E+03  0.7546771E-02  0.1105088E+00
         21   -1    0    0  504  503  0.00000000000E+00  0.00000000000E+00  0.38928714653E+02  0.38928714653E+02  0.00000000000E+00 0.  1.
         21   -1    0    0  503  504 -0.00000000000E+00 -0.00000000000E+00 -0.44572562788E+03  0.44572562788E+03  0.00000000000E+00 0.  1.
         25    2    1    2    0    0 -0.30401778654E+01 -0.41305491189E+02 -0.20986725882E+03  0.24775477694E+03  0.12499110724E+03 0.  0.
         25    2    1    2    0    0  0.30401778654E+01  0.41305491189E+02 -0.19692965441E+03  0.23689956560E+03  0.12499891643E+03 0.  0.
          5    1    3    3  501    0  0.21097574499E+02 -0.51735908891E+02 -0.25732265066E+02  0.61692393242E+02  0.47000000000E+01 0. -1.
         -5    1    3    3    0  501 -0.24137752365E+02  0.10430417702E+02 -0.18413499375E+03  0.18606238370E+03  0.47000000000E+01 0. -1.
          5    1    4    4  502    0  0.29067046024E+02  0.84894196507E+01 -0.19204017689E+03  0.19446974816E+03  0.47000000000E+01 0. -1.
         -5    1    4    4    0  502 -0.26026868158E+02  0.32816071538E+02 -0.48894775246E+01  0.42429817438E+02  0.47000000000E+01 0. -1.
<mgrwt>
<rscale>  0 0.26345038E+03</rscale>
<asrwt>0</asrwt>
<pdfrwt beam="1">  1       21 0.59890334E-02 0.26345038E+03</pdfrwt>
<pdfrwt beam="2">  1       21 0.68573169E-01 0.26345038E+03</pdfrwt>
<totfact> 0.37711999E+05</totfact>
</mgrwt>
</event>
<event>
 8    1  0.9123825E-006  0.3736041E+03  0.7546771E-02  0.1053323E+00
         21   -1    0    0  504  503  0.00000000000E+00  0.00000000000E+00  0.19512300076E+03  0.19512300076E+03  0.00000000000E+00 0.  1.
         21   -1    0    0  503  504 -0.00000000000E+00 -0.00000000000E+00 -0.17883597968E+03  0.17883597968E+03  0.00000000000E+00 0.  1.
         25    2    1    2    0    0 -0.10934179269E+03 -0.70304927371E+02 -0.40597419941E+02  0.18485693160E+03  0.12500209683E+03 0.  0.
         25    2    1    2    0    0  0.10934179269E+03  0.70304927371E+02  0.56884441021E+02  0.18910204884E+03  0.12500133921E+03 0.  0.
          5    1    3    3  501    0  0.23377456077E+02  0.61544608713E+01  0.46807865220E+01  0.25067560785E+02  0.47000000000E+01 0.  1.
         -5    1    3    3    0  501 -0.13271924877E+03 -0.76459388242E+02 -0.45278206463E+02  0.15978937081E+03  0.47000000000E+01 0.  1.
          5    1    4    4  502    0  0.12609698903E+03  0.76433655314E+02  0.21352416139E+02  0.14906565661E+03  0.47000000000E+01 0. -1.
         -5    1    4    4    0  502 -0.16755196335E+02 -0.61287279432E+01  0.35532024882E+02  0.40036392228E+02  0.47000000000E+01 0. -1.
<mgrwt>
<rscale>  0 0.37360414E+03</rscale>
<asrwt>0</asrwt>
<pdfrwt beam="1">  1       21 0.30018923E-01 0.37360414E+03</pdfrwt>
<pdfrwt beam="2">  1       21 0.27513228E-01 0.37360414E+03</pdfrwt>
<totfact> 0.12758649E+05</totfact>
</mgrwt>
</event>
<event>
 8    1  0.9123825E-006  0.2893660E+03  0.7546771E-02  0.1090681E+00
         21   -1    0    0  504  503  0.00000000000E+00  0.00000000000E+00  0.54386066235E+03  0.54386066235E+03  0.00000000000E+00 0. -1.
         21   -1    0    0  503  504 -0.00000000000E+00 -0.00000000000E+00 -0.38489946760E+02  0.38489946760E+02  0.00000000000E+00 0. -1.
         25    2    1    2    0    0  0.65988517912E+02 -0.30822783961E+02  0.24876995513E+03  0.28777726848E+03  0.12499894868E+03 0.  0.
         25    2    1    2    0    0 -0.65988517912E+02  0.30822783961E+02  0.25660076046E+03  0.29457334063E+03  0.12499989693E+03 0.  0.
          5    1    3    3  501    0  0.88079243703E+02 -0.39434374792E+02  0.10784830844E+03  0.14479768893E+03  0.47000000000E+01 0.  1.
         -5    1    3    3    0  501 -0.22090725792E+02  0.86115908303E+01  0.14092164669E+03  0.14297957955E+03  0.47000000000E+01 0.  1.
          5    1    4    4  502    0  0.31591909701E+02  0.33596929935E+02  0.95249986779E+02  0.10593135721E+03  0.47000000000E+01 0.  1.
         -5    1    4    4    0  502 -0.97580427613E+02 -0.27741459737E+01  0.16135077368E+03  0.18864198341E+03  0.47000000000E+01 0.  1.
<mgrwt>
<rscale>  0 0.28936598E+03</rscale>
<asrwt>0</asrwt>
<pdfrwt beam="1">  1       21 0.83670866E-01 0.28936598E+03</pdfrwt>
<pdfrwt beam="2">  1       21 0.59215307E-02 0.28936598E+03</pdfrwt>
<totfact> 0.24393129E+05</totfact>
</mgrwt>
</event>
<event>
 8    1  0.9123825E-006  0.3117586E+03  0.7546771E-02  0.1079506E+00
         21   -1    0    0  504  503  0.00000000000E+00  0.00000000000E+00  0.24796788702E+03  0.24796788702E+03  0.00000000000E+00 0. -1.
         21   -1    0    0  503  504 -0.00000000000E+00 -0.00000000000E+00 -0.97989949783E+02  0.97989949783E+02  0.00000000000E+00 0. -1.
         25    2    1    2    0    0  0.11803047723E+02  0.90933338282E+02  0.56937748158E+02  0.16514901639E+03  0.12499642597E+03 0.  0.
         25    2    1    2    0    0 -0.11803047723E+02 -0.90933338282E+02  0.93040189080E+02  0.18080882041E+03  0.12500867493E+03 0.  0.
          5    1    3    3  501    0 -0.42563973763E+02  0.62218356341E+02  0.69015695632E+02  0.10231359622E+03  0.47000000000E+01 0.  1.
         -5    1    3    3    0  501  0.54367021486E+02  0.28714981942E+02 -0.12077947474E+02  0.62835420173E+02  0.47000000000E+01 0.  1.
          5    1    4    4  502    0 -0.26535984367E+02 -0.31521684582E+02  0.10963307192E+03  0.11721465575E+03  0.47000000000E+01 0.  1.
         -5    1    4    4    0  502  0.14732936644E+02 -0.59411653700E+02 -0.16592882837E+02  0.63594164657E+02  0.47000000000E+01 0.  1.
<mgrwt>
<rscale>  0 0.31175863E+03</rscale>
<asrwt>0</asrwt>
<pdfrwt beam="1">  1       21 0.38148906E-01 0.31175863E+03</pdfrwt>
<pdfrwt beam="2">  1       21 0.15075377E-01 0.31175863E+03</pdfrwt>
<totfact> 0.25020620E+05</totfact>
</mgrwt>
</event>
<event>
 8    1  0.9123825E-006  0.4274347E+03  0.7546771E-02  0.1034673E+00
         21   -1    0    0  504  503  0.00000000000E+00  0.00000000000E+00  0.42614126781E+03  0.42614126781E+03  0.00000000000E+00 0.  1.
         21   -1    0    0  503  504 -0.00000000000E+00 -0.00000000000E+00 -0.10718301407E+03  0.10718301407E+03  0.00000000000E+00 0.  1.
         25    2    1    2    0    0 -0.65379434986E+02 -0.13756584283E+03  0.26274793277E+03  0.32842137266E+03  0.12500116084E+03 0.  0.
         25    2    1    2    0    0  0.65379434986E+02  0.13756584283E+03  0.56210320976E+02  0.20490290922E+03  0.12500708135E+03 0.  0.
          5    1    3    3  501    0 -0.72026616659E+02 -0.26042013750E+02  0.62083167196E+02  0.98703746821E+02  0.47000000000E+01 0. -1.
         -5    1    3    3    0  501  0.66471816734E+01 -0.11152382908E+03  0.20066476557E+03  0.22971762584E+03  0.47000000000E+01 0. -1.
          5    1    4    4  502    0  0.13566006638E+02  0.56546432143E+02 -0.38456024371E+02  0.69874826187E+02  0.47000000000E+01 0.  1.
         -5    1    4    4    0  502  0.51813428348E+02  0.81019410690E+02  0.94666345346E+02  0.13502808303E+03  0.47000000000E+01 0.  1.
<mgrwt>
<rscale>  0 0.42743470E+03</rscale>
<asrwt>0</asrwt>
<pdfrwt beam="1">  1       21 0.65560194E-01 0.42743470E+03</pdfrwt>
<pdfrwt beam="2">  1       21 0.16489695E-01 0.42743470E+03</pdfrwt>
<totfact> 0.65574410E+04</totfact>
</mgrwt>
</event>
<event>
 8    1  0.9123825E-006  0.3001639E+03  0.7546771E-02  0.1085159E+00
         21   -1    0    0  504  503  0.00000000000E+00  0.00000000000E+00  0.22480767644E+03  0.22480767644E+03  0.00000000000E+00 0.  1.
         21   -1    0    0  503  504 -0.00000000000E+00 -0.00000000000E+00 -0.10019496547E+03  0.10019496547E+03  0.00000000000E+00 0.  1.
         25    2    1    2    0    0 -0.40167567795E+02  0.36858254012E+02  0.13016931089E+03  0.18852109201E+03  0.12499675293E+03 0.  0.
         25    2    1    2    0    0  0.40167567795E+02 -0.36858254012E+02 -0.55565999245E+01  0.13648154990E+03  0.12499749305E+03 0.  0.
          5    1    3    3  501    0 -0.13911276858E+02 -0.46481133324E+02  0.50368015920E+02  0.70093126672E+02  0.47000000000E+01 0.  1.
         -5    1    3    3    0  501 -0.26256290937E+02  0.83339387336E+02  0.79801294966E+02  0.11842796534E+03  0.47000000000E+01 0.  1.
          5    1    4    4  502    0 -0.25742096068E+01  0.31573713495E+02  0.33822122802E+02  0.46578449199E+02  0.47000000000E+01 0.  1.
         -5    1    4    4    0  502  0.42741777401E+02 -0.68431967508E+02 -0.39378722727E+02  0.89903100703E+02  0.47000000000E+01 0.  1.
<mgrwt>
<rscale>  0 0.30016394E+03</rscale>
<asrwt>0</asrwt>
<pdfrwt beam="1">  1       21 0.34585796E-01 0.30016394E+03</pdfrwt>
<pdfrwt beam="2">  1       21 0.15414610E-01 0.30016394E+03</pdfrwt>
<totfact> 0.29331721E+05</totfact>
</mgrwt>
</event>
<event>
 8    1  0.9123825E-006  0.3920144E+03  0.7546771E-02  0.1046580E+00
         21   -1    0    0  504  503  0.00000000000E+00  0.00000000000E+00  0.53941369198E+02  0.53941369198E+02  0.00000000000E+00 0.  1.
         21   -1    0    0  503  504 -0.00000000000E+00 -0.00000000000E+00 -0.71223282240E+03  0.71223282240E+03  0.00000000000E+00 0.  1.
         25    2    1    2    0    0  0.14521973819E+03  0.20921564814E+02 -0.39878348990E+03  0.44291812010E+03  0.12498681958E+03 0.  0.
         25    2    1    2    0    0 -0.14521973819E+03 -0.20921564814E+02 -0.25950796330E+03  0.32325607149E+03  0.12499448190E+03 0.  0.
          5    1    3    3  501    0  0.15751894524E+02 -0.23123648846E+02 -0.89229545464E+01  0.29741123632E+02  0.47000000000E+01 0.  1.
         -5    1    3    3    0  501  0.12946784366E+03  0.44045213661E+02 -0.38986053535E+03  0.41317699647E+03  0.47000000000E+01 0.  1.
          5    1    4    4  502    0 -0.80267278462E+02 -0.12367983226E+02 -0.33639291095E+02  0.88031215522E+02  0.47000000000E+01 0. -1.
         -5    1    4    4    0  502 -0.64952459723E+02 -0.85535815879E+01 -0.22586867220E+03  0.23522485597E+03  0.47000000000E+01 0. -1.
<mgrwt>
<rscale>  0 0.39201435E+03</rscale>
<asrwt>0</asrwt>
<pdfrwt beam="1">  1       21 0.82986720E-02 0.39201435E+03</pdfrwt>
<pdfrwt beam="2">  1       21 0.10957428E+00 0.39201435E+03</pdfrwt>
<totfact> 0.69266490E+04</totfact>
</mgrwt>
</event>
<event>
 8    1  0.9123825E-006  0.2716842E+03  0.7546771E-02  0.1100320E+00
         21   -1    0    0  504  503  0.00000000000E+00  0.00000000000E+00  0.12109431516E+04  0.12109431516E+04  0.00000000000E+00 0.  1.
         21   -1    0    0  503  504 -0.00000000000E+00 -0.00000000000E+00 -0.15238594605E+02  0.15238594605E+02  0.00000000000E+00 0.  1.
         25    2    1    2    0    0  0.50762375940E+02 -0.83298386065E+01  0.65866179078E+03  0.67238842180E+03  0.12499852047E+03 0.  0.
         25    2    1    2    0    0 -0.50762375940E+02  0.83298386065E+01  0.53704276625E+03  0.55379332444E+03  0.12500363350E+03 0.  0.
          5    1    3    3  501    0  0.54633824479E+02  0.20868029290E+02  0.62361122658E+03  0.62636521403E+03  0.47000000000E+01 0. -1.
         -5    1    3    3    0  501 -0.38714485384E+01 -0.29197867897E+02  0.35050564200E+02  0.46023207779E+02  0.47000000000E+01 0. -1.
          5    1    4    4  502    0 -0.88093531309E+02  0.13652100314E+02  0.45074074501E+03  0.45949554875E+03  0.47000000000E+01 0. -1.
         -5    1    4    4    0  502  0.37331155369E+02 -0.53222617076E+01  0.86302021236E+02  0.94297775691E+02  0.47000000000E+01 0. -1.
<mgrwt>
<rscale>  0 0.27168417E+03</rscale>
<asrwt>0</asrwt>
<pdfrwt beam="1">  1       21 0.18629887E+00 0.27168417E+03</pdfrwt>
<pdfrwt beam="2">  1       21 0.23444001E-02 0.27168417E+03</pdfrwt>
<totfact> 0.15127767E+05</totfact>
</mgrwt>
</event>
<event>
 8    1  0.9123825E-006  0.3465330E+03  0.7546771E-02  0.1064047E+00
         21   -1    0    0  504  503  0.00000000000E+00  0.00000000000E+00  0.13357516739E+03  0.13357516739E+03  0.00000000000E+00 0.  1.
         21   -1    0    0  503  504 -0.00000000000E+00 -0.00000000000E+00 -0.22475201567E+03  0.22475201567E+03  0.00000000000E+00 0.  1.
         25    2    1    2    0    0 -0.80998650751E+02  0.78551488365E+02 -0.87785009589E+02  0.18990164239E+03  0.12500123250E+03 0.  0.
         25    2    1    2    0    0  0.80998650751E+02 -0.78551488365E+02 -0.33918386873E+01  0.16842554067E+03  0.12499816172E+03 0.  0.
          5    1    3    3  501    0 -0.88217113565E+02  0.83700941271E+02 -0.22388271306E+02  0.12373936879E+03  0.47000000000E+01 0. -1.
         -5    1    3    3    0  501  0.72184628144E+01 -0.51494529069E+01 -0.65396738283E+02  0.66162273606E+02  0.47000000000E+01 0. -1.
          5    1    4    4  502    0  0.11320594048E+03 -0.74076270485E+02  0.24730614222E+00  0.13536997440E+03  0.47000000000E+01 0.  1.
         -5    1    4    4    0  502 -0.32207289725E+02 -0.44752178793E+01 -0.36391448295E+01  0.33055566272E+02  0.47000000000E+01 0.  1.
<mgrwt>
<rscale>  0 0.34653305E+03</rscale>
<asrwt>0</asrwt>
<pdfrwt beam="1">  1       21 0.20550026E-01 0.34653305E+03</pdfrwt>
<pdfrwt beam="2">  1       21 0.34577233E-01 0.34653305E+03</pdfrwt>
<totfact> 0.16983811E+05</totfact>
</mgrwt>
</event>
<event>
 8    1  0.9123825E-006  0.3739573E+03  0.7546771E-02  0.1053190E+00
         21   -1    0    0  504  503  0.00000000000E+00  0.00000000000E+00  0.13059088652E+04  0.13059088652E+04  0.00000000000E+00 0. -1.
         21   -1    0    0  503  504 -0.00000000000E+00 -0.00000000000E+00 -0.26771400228E+02  0.26771400228E+02  0.00000000000E+00 0. -1.
         25    2    1    2    0    0  0.10013429506E+03  0.21663983960E+01  0.29584422848E+03  0.33642332518E+03  0.12500110349E+03 0.  0.
         25    2    1    2    0    0 -0.10013429506E+03 -0.21663983960E+01  0.98329323651E+03  0.99625694026E+03  0.12502292482E+03 0.  0.
          5    1    3    3  501    0  0.58722154374E+02 -0.43766650248E+02  0.24641948140E+03  0.25711565861E+03  0.47000000000E+01 0. -1.
         -5    1    3    3    0  501  0.41412140682E+02  0.45933048644E+02  0.49424747084E+02  0.79307666577E+02  0.47000000000E+01 0. -1.
          5    1    4    4  502    0 -0.11165671018E+03  0.30604004989E+02  0.86951326033E+03  0.87719964998E+03  0.47000000000E+01 0. -1.
         -5    1    4    4    0  502  0.11522415126E+02 -0.32770403385E+02  0.11377997618E+03  0.11905729028E+03  0.47000000000E+01 0. -1.
<mgrwt>
<rscale>  0 0.37395726E+03</rscale>
<asrwt>0</asrwt>
<pdfrwt beam="1">  1       21 0.20090901E+00 0.37395726E+03</pdfrwt>
<pdfrwt beam="2">  1       21 0.41186780E-02 0.37395726E+03</pdfrwt>
<totfact> 0.45271481E+04</totfact>
</mgrwt>
</event>
<event>
 8    1  0.9123825E-006  0.3475410E+03  0.7546771E-02  0.1063629E+00
         21   -1    0    0  504  503  0.00000000000E+00  0.00000000000E+00  0.88380014962E+03  0.88380014962E+03  0.00000000000E+00 0. -1.
         21   -1    0    0  503  504 -0.00000000000E+00 -0.00000000000E+00 -0.34166305881E+02  0.34166305881E+02  0.00000000000E+00 0. -1.
         25    2    1    2    0    0  0.20340393053E+02  0.28318549281E+02  0.11957564610E+03  0.17646425357E+03  0.12500250327E+03 0.  0.
         25    2    1    2    0    0 -0.20340393053E+02 -0.28318549281E+02  0.73005819763E+03  0.74150220192E+03  0.12499948683E+03 0.  0.
          5    1    3    3  501    0 -0.48104436158E+02  0.32703403228E+02  0.72849508217E+02  0.93341792399E+02  0.47000000000E+01 0. -1.
         -5    1    3    3    0  501  0.68444829211E+02 -0.43848539462E+01  0.46726137888E+02  0.83122461175E+02  0.47000000000E+01 0. -1.
          5    1    4    4  502    0 -0.50065525862E+02 -0.62830308497E+02  0.37748034655E+03  0.38596334875E+03  0.47000000000E+01 0. -1.
         -5    1    4    4    0  502  0.29725132809E+02  0.34511759215E+02  0.35257785108E+03  0.35553885317E+03  0.47000000000E+01 0. -1.
<mgrwt>
<rscale>  0 0.34754100E+03</rscale>
<asrwt>0</asrwt>
<pdfrwt beam="1">  1       21 0.13596924E+00 0.34754100E+03</pdfrwt>
<pdfrwt beam="2">  1       21 0.52563554E-02 0.34754100E+03</pdfrwt>
<totfact> 0.89992249E+04</totfact>
</mgrwt>
</event>
<event>
 8    1  0.9123825E-006  0.2688536E+03  0.7546771E-02  0.1101938E+00
         21   -1    0    0  504  503  0.00000000000E+00  0.00000000000E+00  0.21135369030E+03  0.21135369030E+03  0.00000000000E+00 0. -1.
         21   -1    0    0  503  504 -0.00000000000E+00 -0.00000000000E+00 -0.85499184099E+02  0.85499184099E+02  0.00000000000E+00 0. -1.
         25    2    1    2    0    0 -0.12466149510E+02 -0.47037594337E+02  0.53228191215E+02  0.14431175972E+03  0.12499881395E+03 0.  0.
         25    2    1    2    0    0  0.12466149510E+02  0.47037594337E+02  0.72626314989E+02  0.15254111468E+03  0.12500507940E+03 0.  0.
          5    1    3    3  501    0  0.49856239539E+02 -0.41314223447E+02  0.49134656305E+02  0.81417529625E+02  0.47000000000E+01 0.  1.
         -5    1    3    3    0  501 -0.62322389049E+02 -0.57233708898E+01  0.40935349095E+01  0.62894230095E+02  0.47000000000E+01 0.  1.
          5    1    4    4  502    0  0.64196519783E+02  0.50432550163E+02  0.39238362019E+02  0.90699362303E+02  0.47000000000E+01 0.  1.
         -5    1    4    4    0  502 -0.51730370274E+02 -0.33949558260E+01  0.33387952970E+02  0.61841752378E+02  0.47000000000E+01 0.  1.
<mgrwt>
<rscale>  0 0.26885363E+03</rscale>
<asrwt>0</asrwt>
<pdfrwt beam="1">  1       21 0.32515952E-01 0.26885363E+03</pdfrwt>
<pdfrwt beam="2">  1       21 0.13153721E-01 0.26885363E+03</pdfrwt>
<totfact> 0.44600135E+05</totfact>
</mgrwt>
</event>
<event>
 8    1  0.9123825E-006  0.2862054E+03  0.7546771E-02  0.1092347E+00
         21   -1    0    0  504  503  0.00000000000E+00  0.00000000000E+00  0.48204174416E+03  0.48204174416E+03  0.00000000000E+00 0. -1.
         21   -1    0    0  503  504 -0.00000000000E+00 -0.00000000000E+00 -0.42482585495E+02  0.42482585495E+02  0.00000000000E+00 0. -1.
         25    2    1    2    0    0 -0.54761482977E+02  0.25421101919E+02  0.15581561606E+03  0.20864461520E+03  0.12493605084E+03 0.  0.
         25    2    1    2    0    0  0.54761482977E+02 -0.25421101919E+02  0.28374354260E+03  0.31587971445E+03  0.12499817438E+03 0.  0.
          5    1    3    3  501    0 -0.39318597719E+02 -0.47240882894E+02  0.50534141284E+02  0.79708484984E+02  0.47000000000E+01 0.  1.
         -5    1    3    3    0  501 -0.15442885258E+02  0.72661984813E+02  0.10528147478E+03  0.12893613021E+03  0.47000000000E+01 0.  1.
          5    1    4    4  502    0  0.89697729264E+02  0.61047262997E+01  0.16308249695E+03  0.18628188621E+03  0.47000000000E+01 0.  1.
         -5    1    4    4    0  502 -0.34936246287E+02 -0.31525828219E+02  0.12066104565E+03  0.12959782825E+03  0.47000000000E+01 0.  1.
<mgrwt>
<rscale>  0 0.28620538E+03</rscale>
<asrwt>0</asrwt>
<pdfrwt beam="1">  1       21 0.74160265E-01 0.28620538E+03</pdfrwt>
<pdfrwt beam="2">  1       21 0.65357827E-02 0.28620538E+03</pdfrwt>
<totfact> 0.27087715E+05</totfact>
</mgrwt>
</event>
<event>
 8    1  0.9123825E-006  0.3220605E+03  0.7546771E-02  0.1074705E+00
         21   -1    0    0  504  503  0.00000000000E+00  0.00000000000E+00  0.17265079494E+02  0.17265079494E+02  0.00000000000E+00 0. -1.
         21   -1    0    0  503  504 -0.00000000000E+00 -0.00000000000E+00 -0.15019187036E+04  0.15019187036E+04  0.00000000000E+00 0. -1.
         25    2    1    2    0    0  0.89456041331E+02 -0.41023937566E+02 -0.62480897132E+03  0.64474511185E+03  0.12499864729E+03 0.  0.
         25    2    1    2    0    0 -0.89456041331E+02  0.41023937566E+02 -0.85984465278E+03  0.87443867124E+03  0.12499926425E+03 0.  0.
          5    1    3    3  501    0  0.35523556231E+02  0.26381590263E+02 -0.42117102830E+03  0.42351509588E+03  0.47000000000E+01 0. -1.
         -5    1    3    3    0  501  0.53932485100E+02 -0.67405527830E+02 -0.20363794302E+03  0.22123001597E+03  0.47000000000E+01 0. -1.
          5    1    4    4  502    0  0.22654711115E+02 -0.67740742373E+01 -0.50543523418E+02  0.55998765852E+02  0.47000000000E+01 0.  1.
         -5    1    4    4    0  502 -0.11211075245E+03  0.47798011804E+02 -0.80930112936E+03  0.81843990539E+03  0.47000000000E+01 0.  1.
<mgrwt>
<rscale>  0 0.32206053E+03</rscale>
<asrwt>0</asrwt>
<pdfrwt beam="1">  1       21 0.26561669E-02 0.32206053E+03</pdfrwt>
<pdfrwt beam="2">  1       21 0.23106435E+00 0.32206053E+03</pdfrwt>
<totfact> 0.62066411E+04</totfact>
</mgrwt>
</event>
<event>
 8    1  0.9123825E-006  0.2904998E+03  0.7546771E-02  0.1090088E+00
         21   -1    0    0  504  503  0.00000000000E+00  0.00000000000E+00  0.89061407806E+01  0.89061407806E+01  0.00000000000E+00 0.  1.
         21   -1    0    0  503  504 -0.00000000000E+00 -0.00000000000E+00 -0.23688744748E+04  0.23688744748E+04  0.00000000000E+00 0.  1.
         25    2    1    2    0    0  0.68692323258E+02 -0.15722966712E+02 -0.99620636880E+03  0.10064900061E+04  0.12501662396E+03 0.  0.
         25    2    1    2    0    0 -0.68692323258E+02  0.15722966712E+02 -0.13637619652E+04  0.13712906094E+04  0.12500156320E+03 0.  0.
          5    1    3    3  501    0 -0.33155021102E+02  0.52237166769E+01 -0.14315752826E+03  0.14711461701E+03  0.47000000000E+01 0.  1.
         -5    1    3    3    0  501  0.10184734436E+03 -0.20946683389E+02 -0.85304884053E+03  0.85937538912E+03  0.47000000000E+01 0.  1.
          5    1    4    4  502    0  0.12610876000E+02  0.49755160763E+02 -0.66121048061E+03  0.66321640501E+03  0.47000000000E+01 0.  1.
         -5    1    4    4    0  502 -0.81303199258E+02 -0.34032194050E+02 -0.70255148459E+03  0.70807420440E+03  0.47000000000E+01 0.  1.
<mgrwt>
<rscale>  0 0.29049977E+03</rscale>
<asrwt>0</asrwt>
<pdfrwt beam="1">  1       21 0.13701721E-02 0.29049977E+03</pdfrwt>
<pdfrwt beam="2">  1       21 0.36444313E+00 0.29049977E+03</pdfrwt>
<totfact> 0.29834574E+04</totfact>
</mgrwt>
</event>
<event>
 8    1  0.9123825E-006  0.2697160E+03  0.7546771E-02  0.1101442E+00
         21   -1    0    0  504  503  0.00000000000E+00  0.00000000000E+00  0.32342161934E+02  0.32342161934E+02  0.00000000000E+00 0.  1.
         21   -1    0    0  503  504 -0.00000000000E+00 -0.00000000000E+00 -0.56232127412E+03  0.56232127412E+03  0.00000000000E+00 0.  1.
         25    2    1    2    0    0  0.33161170577E+02 -0.35451526825E+02 -0.29680523959E+03  0.32569094944E+03  0.12499908123E+03 0.  0.
         25    2    1    2    0    0 -0.33161170577E+02  0.35451526825E+02 -0.23317387259E+03  0.26897248662E+03  0.12497867701E+03 0.  0.
          5    1    3    3  501    0  0.41476804338E+02 -0.69078720344E+02 -0.11464115076E+03  0.14020298981E+03  0.47000000000E+01 0.  1.
         -5    1    3    3    0  501 -0.83156337605E+01  0.33627193519E+02 -0.18216408883E+03  0.18548795963E+03  0.47000000000E+01 0.  1.
          5    1    4    4  502    0  0.44838527713E+02 -0.59393912425E+01 -0.85790306413E+02  0.97097047382E+02  0.47000000000E+01 0. -1.
         -5    1    4    4    0  502 -0.77999698290E+02  0.41390918068E+02 -0.14738356618E+03  0.17187543923E+03  0.47000000000E+01 0. -1.
<mgrwt>
<rscale>  0 0.26971604E+03</rscale>
<asrwt>0</asrwt>
<pdfrwt beam="1">  1       21 0.49757170E-02 0.26971604E+03</pdfrwt>
<pdfrwt beam="2">  1       21 0.86510969E-01 0.26971604E+03</pdfrwt>
<totfact> 0.30581017E+05</totfact>
</mgrwt>
</event>
<event>
 8    1  0.9123825E-006  0.4071024E+03  0.7546771E-02  0.1041348E+00
         21   -1    0    0  504  503  0.00000000000E+00  0.00000000000E+00  0.23931795437E+02  0.23931795437E+02  0.00000000000E+00 0.  1.
         21   -1    0    0  503  504 -0.00000000000E+00 -0.00000000000E+00 -0.17312991193E+04  0.17312991193E+04  0.00000000000E+00 0.  1.
         25    2    1    2    0    0  0.62606264826E+02  0.14486568996E+03 -0.72419163338E+03  0.75165511601E+03  0.12500511606E+03 0.  0.
         25    2    1    2    0    0 -0.62606264826E+02 -0.14486568996E+03 -0.98317569050E+03  0.10035757988E+04  0.12499733165E+03 0.  0.
          5    1    3    3  501    0  0.71192998313E+02  0.54090745516E+02 -0.52442504589E+03  0.53201313002E+03  0.47000000000E+01 0.  1.
         -5    1    3    3    0  501 -0.85867334870E+01  0.90774944440E+02 -0.19976658749E+03  0.21964198599E+03  0.47000000000E+01 0.  1.
          5    1    4    4  502    0 -0.22327024453E+02 -0.58649609046E+02 -0.12323896093E+03  0.13837703622E+03  0.47000000000E+01 0.  1.
         -5    1    4    4    0  502 -0.40279240373E+02 -0.86216080910E+02 -0.85993672958E+03  0.86519876253E+03  0.47000000000E+01 0.  1.
<mgrwt>
<rscale>  0 0.40710243E+03</rscale>
<asrwt>0</asrwt>
<pdfrwt beam="1">  1       21 0.36818150E-02 0.40710243E+03</pdfrwt>
<pdfrwt beam="2">  1       21 0.26635368E+00 0.40710243E+03</pdfrwt>
<totfact> 0.21073219E+04</totfact>
</mgrwt>
</event>
<event>
 8    1  0.9123825E-006  0.3777944E+03  0.7546771E-02  0.1051752E+00
         21   -1    0    0  504  503  0.00000000000E+00  0.00000000000E+00  0.24547927935E+04  0.24547927935E+04  0.00000000000E+00 0. -1.
         21   -1    0    0  503  504 -0.00000000000E+00 -0.00000000000E+00 -0.14535708440E+02  0.14535708440E+02  0.00000000000E+00 0. -1.
         25    2    1    2    0    0 -0.93743985932E+02 -0.20093956208E+02  0.53891614376E+03  0.56146915957E+03  0.12500122067E+03 0.  0.
         25    2    1    2    0    0  0.93743985932E+02  0.20093956208E+02  0.19013409413E+04  0.19078593424E+04  0.12505276177E+03 0.  0.
          5    1    3    3  501    0 -0.54966300934E+01  0.45112535241E+02  0.12022616984E+03  0.12861483465E+03  0.47000000000E+01 0. -1.
         -5    1    3    3    0  501 -0.88247355839E+02 -0.65206491449E+02  0.41868997391E+03  0.43285432491E+03  0.47000000000E+01 0. -1.
          5    1    4    4  502    0  0.28279134861E+02  0.10891464641E+02  0.85913348619E+02  0.91222403726E+02  0.47000000000E+01 0.  1.
         -5    1    4    4    0  502  0.65464851071E+02  0.92024915677E+01  0.18154275927E+04  0.18166369387E+04  0.47000000000E+01 0.  1.
<mgrwt>
<rscale>  0 0.37779440E+03</rscale>
<asrwt>0</asrwt>
<pdfrwt beam="1">  1       21 0.37766010E+00 0.37779440E+03</pdfrwt>
<pdfrwt beam="2">  1       21 0.22362648E-02 0.37779440E+03</pdfrwt>
<totfact> 0.10471360E+04</totfact>
</mgrwt>
</event>
<event>
 8    1  0.9123825E-006  0.4275979E+03  0.7546771E-02  0.1034621E+00
         21   -1    0    0  504  503  0.00000000000E+00  0.00000000000E+00  0.61139798388E+03  0.61139798388E+03  0.00000000000E+00 0. -1.
         21   -1    0    0  503  504 -0.00000000000E+00 -0.00000000000E+00 -0.74763059574E+02  0.74763059574E+02  0.00000000000E+00 0. -1.
         25    2    1    2    0    0  0.12746836617E+03 -0.11591608191E+03  0.30047574646E+03  0.36823279159E+03  0.12499996866E+03 0.  0.
         25    2    1    2    0    0 -0.12746836617E+03  0.11591608191E+03  0.23615917784E+03  0.31792825187E+03  0.12498997414E+03 0.  0.
          5    1    3    3  501    0  0.13801814129E+03 -0.60713209406E+02  0.25277288177E+03  0.29436596420E+03  0.47000000000E+01 0. -1.
         -5    1    3    3    0  501 -0.10549775116E+02 -0.55202872509E+02  0.47702864696E+02  0.73866827388E+02  0.47000000000E+01 0. -1.
          5    1    4    4  502    0 -0.10021536051E+03  0.66941513527E+02  0.23206625830E+03  0.26153608347E+03  0.47000000000E+01 0. -1.
         -5    1    4    4    0  502 -0.27253005663E+02  0.48974568387E+02  0.40929195448E+01  0.56392168400E+02  0.47000000000E+01 0. -1.
<mgrwt>
<rscale>  0 0.42759787E+03</rscale>
<asrwt>0</asrwt>
<pdfrwt beam="1">  1       21 0.94061225E-01 0.42759787E+03</pdfrwt>
<pdfrwt beam="2">  1       21 0.11502010E-01 0.42759787E+03</pdfrwt>
<totfact> 0.55448408E+04</totfact>
</mgrwt>
</event>
<event>
 8    1  0.9123825E-006  0.3080940E+03  0.7546771E-02  0.1081263E+00
         21   -1    0    0  504  503  0.00000000000E+00  0.00000000000E+00  0.56521712862E+03  0.56521712862E+03  0.00000000000E+00 0. -1.
         21   -1    0    0  503  504 -0.00000000000E+00 -0.00000000000E+00 -0.41984723254E+02  0.41984723254E+02  0.00000000000E+00 0. -1.
         25    2    1    2    0    0  0.13732625668E+02 -0.29640587392E+02  0.96294965765E+02  0.16114223397E+03  0.12500779859E+03 0.  0.
         25    2    1    2    0    0 -0.13732625668E+02  0.29640587392E+02  0.42693743960E+03  0.44605961790E+03  0.12500582371E+03 0.  0.
          5    1    3    3  501    0 -0.35833226910E+02 -0.13224715140E+02  0.10141202387E+03  0.10846843700E+03  0.47000000000E+01 0. -1.
         -5    1    3    3    0  501  0.49565852578E+02 -0.16415872252E+02 -0.51170581013E+01  0.52673796970E+02  0.47000000000E+01 0. -1.
          5    1    4    4  502    0  0.11098505299E+02  0.15982273554E+02  0.41411933010E+03  0.41460284545E+03  0.47000000000E+01 0. -1.
         -5    1    4    4    0  502 -0.24831130968E+02  0.13658313838E+02  0.12818109495E+02  0.31456772451E+02  0.47000000000E+01 0. -1.
<mgrwt>
<rscale>  0 0.30809404E+03</rscale>
<asrwt>0</asrwt>
<pdfrwt beam="1">  1       21 0.86956476E-01 0.30809404E+03</pdfrwt>
<pdfrwt beam="2">  1       21 0.64591886E-02 0.30809404E+03</pdfrwt>
<totfact> 0.19109835E+05</totfact>
</mgrwt>
</event>
<event>
 8    1  0.9123825E-006  0.3532932E+03  0.7546771E-02  0.1061271E+00
         21   -1    0    0  504  503  0.00000000000E+00  0.00000000000E+00  0.57190561317E+02  0.57190561317E+02  0.00000000000E+00 0.  1.
         21   -1    0    0  503  504 -0.00000000000E+00 -0.00000000000E+00 -0.54561494083E+03  0.54561494083E+03  0.00000000000E+00 0.  1.
         25    2    1    2    0    0  0.43107432577E+02 -0.68274355069E+02 -0.40661796893E+03  0.43299316153E+03  0.12500106788E+03 0.  0.
         25    2    1    2    0    0 -0.43107432577E+02  0.68274355069E+02 -0.81806410574E+02  0.16981234061E+03  0.12499721560E+03 0.  0.
          5    1    3    3  501    0  0.20093753288E+01  0.35232181286E+02 -0.12930839454E+03  0.13411970431E+03  0.47000000000E+01 0. -1.
         -5    1    3    3    0  501  0.41098057248E+02 -0.10350653636E+03 -0.27730957440E+03  0.29887345722E+03  0.47000000000E+01 0. -1.
          5    1    4    4  502    0 -0.34624391465E+02  0.10141130035E+03 -0.82434256865E+02  0.13527969924E+03  0.47000000000E+01 0. -1.
         -5    1    4    4    0  502 -0.84830411117E+01 -0.33136945277E+02  0.62784629096E+00  0.34532641367E+02  0.47000000000E+01 0. -1.
<mgrwt>
<rscale>  0 0.35329322E+03</rscale>
<asrwt>0</asrwt>
<pdfrwt beam="1">  1       21 0.87985481E-02 0.35329322E+03</pdfrwt>
<pdfrwt beam="2">  1       21 0.83940758E-01 0.35329322E+03</pdfrwt>
<totfact> 0.11929955E+05</totfact>
</mgrwt>
</event>
<event>
 8    1  0.9123825E-006  0.2673103E+03  0.7546771E-02  0.1102829E+00
         21   -1    0    0  504  503  0.00000000000E+00  0.00000000000E+00  0.19225021847E+03  0.19225021847E+03  0.00000000000E+00 0. -1.
         21   -1    0    0  503  504 -0.00000000000E+00 -0.00000000000E+00 -0.92919007356E+02  0.92919007356E+02  0.00000000000E+00 0. -1.
         25    2    1    2    0    0 -0.14847239427E+01 -0.38365640519E+02  0.79116407408E+02  0.15285223254E+03  0.12502108740E+03 0.  0.
         25    2    1    2    0    0  0.14847239427E+01  0.38365640519E+02  0.20214803703E+02  0.13231699328E+03  0.12500008658E+03 0.  0.
          5    1    3    3  501    0  0.55709973617E+02  0.45612300439E+01  0.18733415333E+02  0.59139131123E+02  0.47000000000E+01 0. -1.
         -5    1    3    3    0  501 -0.57194697560E+02 -0.42926870563E+02  0.60382992075E+02  0.93713101417E+02  0.47000000000E+01 0. -1.
          5    1    4    4  502    0  0.27637258401E+02  0.77607962672E+02  0.20082665744E+02  0.84924774862E+02  0.47000000000E+01 0. -1.
         -5    1    4    4    0  502 -0.26152534458E+02 -0.39242322153E+02  0.13213795959E+00  0.47392218422E+02  0.47000000000E+01 0. -1.
<mgrwt>
<rscale>  0 0.26731030E+03</rscale>
<asrwt>0</asrwt>
<pdfrwt beam="1">  1       21 0.29576957E-01 0.26731030E+03</pdfrwt>
<pdfrwt beam="2">  1       21 0.14295232E-01 0.26731030E+03</pdfrwt>
<totfact> 0.46210593E+05</totfact>
</mgrwt>
</event>
<event>
 8    1  0.9123825E-006  0.2543538E+03  0.7546771E-02  0.1110584E+00
         21   -1    0    0  504  503  0.00000000000E+00  0.00000000000E+00  0.55110691042E+03  0.55110691042E+03  0.00000000000E+00 0. -1.
         21   -1    0    0  503  504 -0.00000000000E+00 -0.00000000000E+00 -0.29348141262E+02  0.29348141262E+02  0.00000000000E+00 0. -1.
         25    2    1    2    0    0  0.12841202515E-03 -0.23430649767E+02  0.26386007282E+03  0.29290861353E+03  0.12499728997E+03 0.  0.
         25    2    1    2    0    0 -0.12841202515E-03  0.23430649767E+02  0.25789869634E+03  0.28754643816E+03  0.12498888421E+03 0.  0.
          5    1    3    3  501    0  0.58717308182E+02  0.94206043543E+01  0.12885026616E+03  0.14198926423E+03  0.47000000000E+01 0.  1.
         -5    1    3    3    0  501 -0.58717179770E+02 -0.32851254121E+02  0.13500980666E+03  0.15091934930E+03  0.47000000000E+01 0.  1.
          5    1    4    4  502    0 -0.22857294681E+01  0.74743826902E+02  0.16689399077E+03  0.18294140695E+03  0.47000000000E+01 0. -1.
         -5    1    4    4    0  502  0.22856010561E+01 -0.51313177136E+02  0.91004705566E+02  0.10460503121E+03  0.47000000000E+01 0. -1.
<mgrwt>
<rscale>  0 0.25435380E+03</rscale>
<asrwt>0</asrwt>
<pdfrwt beam="1">  1       21 0.84785671E-01 0.25435380E+03</pdfrwt>
<pdfrwt beam="2">  1       21 0.45150990E-02 0.25435380E+03</pdfrwt>
<totfact> 0.37932072E+05</totfact>
</mgrwt>
</event>
<event>
 8    1  0.9123825E-006  0.4044768E+03  0.7546771E-02  0.1042240E+00
         21   -1    0    0  504  503  0.00000000000E+00  0.00000000000E+00  0.25701594421E+03  0.25701594421E+03  0.00000000000E+00 0. -1.
         21   -1    0    0  503  504 -0.00000000000E+00 -0.00000000000E+00 -0.15913551971E+03  0.15913551971E+03  0.00000000000E+00 0. -1.
         25    2    1    2    0    0 -0.12907714230E+03 -0.11697906143E+02 -0.45792277638E+02  0.18578960734E+03  0.12499238310E+03 0.  0.
         25    2    1    2    0    0  0.12907714230E+03  0.11697906143E+02  0.14367270214E+03  0.23036185658E+03  0.12500795956E+03 0.  0.
          5    1    3    3  501    0  0.11853007064E+02 -0.34046877714E+02 -0.17053893016E+02  0.40157302269E+02  0.47000000000E+01 0. -1.
         -5    1    3    3    0  501 -0.14093014936E+03  0.22348971571E+02 -0.28738384623E+02  0.14563230507E+03  0.47000000000E+01 0. -1.
          5    1    4    4  502    0  0.55461041048E+02 -0.47559597097E+02  0.22435742925E+02  0.76572154930E+02  0.47000000000E+01 0.  1.
         -5    1    4    4    0  502  0.73616101249E+02  0.59257503240E+02  0.12123695921E+03  0.15378970165E+03  0.47000000000E+01 0.  1.
<mgrwt>
<rscale>  0 0.40447678E+03</rscale>
<asrwt>0</asrwt>
<pdfrwt beam="1">  1       21 0.39540915E-01 0.40447678E+03</pdfrwt>
<pdfrwt beam="2">  1       21 0.24482388E-01 0.40447678E+03</pdfrwt>
<totfact> 0.91360571E+04</totfact>
</mgrwt>
</event>
<event>
 8    1  0.9123825E-006  0.2521305E+03  0.7546771E-02  0.1111966E+00
         21   -1    0    0  504  503  0.00000000000E+00  0.00000000000E+00  0.32136167893E+02  0.32136167893E+02  0.00000000000E+00 0.  1.
         21   -1    0    0  503  504 -0.00000000000E+00 -0.00000000000E+00 -0.49453456704E+03  0.49453456704E+03  0.00000000000E+00 0.  1.
         25    2    1    2    0    0  0.46852893806E+01 -0.58748963370E+01 -0.26152253041E+03  0.28995846012E+03  0.12500163336E+03 0.  0.
         25    2    1    2    0    0 -0.46852893806E+01  0.58748963370E+01 -0.20087586874E+03  0.23671227481E+03  0.12500048024E+03 0.  0.
          5    1    3    3  501    0  0.40368268266E+02  0.28955855906E+02 -0.43319659274E+02  0.66081173972E+02  0.47000000000E+01 0.  1.
         -5    1    3    3    0  501 -0.35682978885E+02 -0.34830752243E+02 -0.21820287113E+03  0.22387728615E+03  0.47000000000E+01 0.  1.
          5    1    4    4  502    0 -0.46000063197E+02 -0.41464190958E+02 -0.10468792562E+03  0.12172484018E+03  0.47000000000E+01 0. -1.
         -5    1    4    4    0  502  0.41314773816E+02  0.47339087295E+02 -0.96187943122E+02  0.11498743463E+03  0.47000000000E+01 0. -1.
<mgrwt>
<rscale>  0 0.25213049E+03</rscale>
<asrwt>0</asrwt>
<pdfrwt beam="1">  1       21 0.49440259E-02 0.25213049E+03</pdfrwt>
<pdfrwt beam="2">  1       21 0.76082240E-01 0.25213049E+03</pdfrwt>
<totfact> 0.41628133E+05</totfact>
</mgrwt>
</event>
<event>
 8    1  0.9123825E-006  0.4827017E+03  0.7546771E-02  0.1018395E+00
         21   -1    0    0  504  503  0.00000000000E+00  0.00000000000E+00  0.78683837866E+03  0.78683837866E+03  0.00000000000E+00 0. -1.
         21   -1    0    0  503  504 -0.00000000000E+00 -0.00000000000E+00 -0.74030758361E+02  0.74030758361E+02  0.00000000000E+00 0. -1.
         25    2    1    2    0    0 -0.10218344484E+03  0.66236364356E+02  0.65374810044E+03  0.67663753696E+03  0.12499226071E+03 0.  0.
         25    2    1    2    0    0  0.10218344484E+03 -0.66236364356E+02  0.59059519867E+02  0.18423160006E+03  0.12499817284E+03 0.  0.
          5    1    3    3  501    0 -0.18758460612E+02 -0.36964778360E+02  0.15650795381E+03  0.16197254178E+03  0.47000000000E+01 0. -1.
         -5    1    3    3    0  501 -0.83424984227E+02  0.10320114272E+03  0.49724014663E+03  0.51466499519E+03  0.47000000000E+01 0. -1.
          5    1    4    4  502    0  0.64045676309E+02 -0.48729343079E+02 -0.29723429227E+02  0.85918390207E+02  0.47000000000E+01 0.  1.
         -5    1    4    4    0  502  0.38137768529E+02 -0.17507021277E+02  0.88782949094E+02  0.98313209856E+02  0.47000000000E+01 0.  1.
<mgrwt>
<rscale>  0 0.48270174E+03</rscale>
<asrwt>0</asrwt>
<pdfrwt beam="1">  1       21 0.12105205E+00 0.48270174E+03</pdfrwt>
<pdfrwt beam="2">  1       21 0.11389348E-01 0.48270174E+03</pdfrwt>
<totfact> 0.29902036E+04</totfact>
</mgrwt>
</event>
<event>
 8    1  0.9123825E-006  0.2826200E+03  0.7546771E-02  0.1094266E+00
         21   -1    0    0  504  503  0.00000000000E+00  0.00000000000E+00  0.24723407053E+03  0.24723407053E+03  0.00000000000E+00 0. -1.
         21   -1    0    0  503  504 -0.00000000000E+00 -0.00000000000E+00 -0.80767682817E+02  0.80767682817E+02  0.00000000000E+00 0. -1.
         25    2    1    2    0    0  0.34764698618E+02  0.10856458161E+02  0.19477263600E+02  0.13164162013E+03  0.12499482149E+03 0.  0.
         25    2    1    2    0    0 -0.34764698618E+02 -0.10856458161E+02  0.14698912411E+03  0.19636013321E+03  0.12500020941E+03 0.  0.
          5    1    3    3  501    0  0.51898765487E+02 -0.81233396904E+00 -0.41782864818E+02  0.66798499519E+02  0.47000000000E+01 0.  1.
         -5    1    3    3    0  501 -0.17134066869E+02  0.11668792130E+02  0.61260128418E+02  0.64843120615E+02  0.47000000000E+01 0.  1.
          5    1    4    4  502    0 -0.16233513949E+00 -0.29439244214E+02 -0.12287178851E+02  0.32245313097E+02  0.47000000000E+01 0.  1.
         -5    1    4    4    0  502 -0.34602363478E+02  0.18582786053E+02  0.15927630296E+03  0.16411482011E+03  0.47000000000E+01 0.  1.
<mgrwt>
<rscale>  0 0.28262005E+03</rscale>
<asrwt>0</asrwt>
<pdfrwt beam="1">  1       21 0.38036010E-01 0.28262005E+03</pdfrwt>
<pdfrwt beam="2">  1       21 0.12425798E-01 0.28262005E+03</pdfrwt>
<totfact> 0.36027055E+05</totfact>
</mgrwt>
</event>
<event>
 8    1  0.9123825E-006  0.2639929E+03  0.7546771E-02  0.1104768E+00
         21   -1    0    0  504  503  0.00000000000E+00  0.00000000000E+00  0.42736484233E+03  0.42736484233E+03  0.00000000000E+00 0.  1.
         21   -1    0    0  503  504 -0.00000000000E+00 -0.00000000000E+00 -0.40768593650E+02  0.40768593650E+02  0.00000000000E+00 0.  1.
         25    2    1    2    0    0 -0.30972213513E+02 -0.28453687444E+02  0.20291105698E+03  0.24200384760E+03  0.12499629943E+03 0.  0.
         25    2    1    2    0    0  0.30972213513E+02  0.28453687444E+02  0.18368519170E+03  0.22612958837E+03  0.12500180299E+03 0.  0.
          5    1    3    3  501    0  0.29119199576E+02 -0.46630931021E+02  0.14979503205E+03  0.15963399744E+03  0.47000000000E+01 0.  1.
         -5    1    3    3    0  501 -0.60091413089E+02  0.18177243577E+02  0.53116024926E+02  0.82369850158E+02  0.47000000000E+01 0.  1.
          5    1    4    4  502    0 -0.44182258031E+02  0.10847307816E+02  0.31844910912E+02  0.55730820581E+02  0.47000000000E+01 0.  1.
         -5    1    4    4    0  502  0.75154471544E+02  0.17606379628E+02  0.15184028078E+03  0.17039876779E+03  0.47000000000E+01 0.  1.
<mgrwt>
<rscale>  0 0.26399291E+03</rscale>
<asrwt>0</asrwt>
<pdfrwt beam="1">  1       21 0.65748434E-01 0.26399291E+03</pdfrwt>
<pdfrwt beam="2">  1       21 0.62720916E-02 0.26399291E+03</pdfrwt>
<totfact> 0.38205836E+05</totfact>
</mgrwt>
</event>
<event>
 8    1  0.9123825E-006  0.2722755E+03  0.7546771E-02  0.1099984E+00
         21   -1    0    0  504  503  0.00000000000E+00  0.00000000000E+00  0.70303167018E+02  0.70303167018E+02  0.00000000000E+00 0. -1.
         21   -1    0    0  503  504 -0.00000000000E+00 -0.00000000000E+00 -0.26362235419E+03  0.26362235419E+03  0.00000000000E+00 0. -1.
         25    2    1    2    0    0  0.32310183932E+02 -0.45115677072E+01 -0.44004520947E+02  0.13648317732E+03  0.12500783015E+03 0.  0.
         25    2    1    2    0    0 -0.32310183932E+02  0.45115677072E+01 -0.14931466623E+03  0.19744234389E+03  0.12499722949E+03 0.  0.
          5    1    3    3  501    0  0.41982868405E+02 -0.46451991965E+02  0.13774121808E+02  0.64281919919E+02  0.47000000000E+01 0.  1.
         -5    1    3    3    0  501 -0.96726844723E+01  0.41940424257E+02 -0.57778642755E+02  0.72201257402E+02  0.47000000000E+01 0.  1.
          5    1    4    4  502    0 -0.10332650741E+02 -0.59895695245E+02 -0.69459358756E+02  0.92417262992E+02  0.47000000000E+01 0.  1.
         -5    1    4    4    0  502 -0.21977533191E+02  0.64407262952E+02 -0.79855307473E+02  0.10502508090E+03  0.47000000000E+01 0.  1.
<mgrwt>
<rscale>  0 0.27227550E+03</rscale>
<asrwt>0</asrwt>
<pdfrwt beam="1">  1       21 0.10815872E-01 0.27227550E+03</pdfrwt>
<pdfrwt beam="2">  1       21 0.40557285E-01 0.27227550E+03</pdfrwt>
<totfact> 0.40668057E+05</totfact>
</mgrwt>
</event>
<event>
 8    1  0.9123825E-006  0.3842889E+03  0.7546771E-02  0.1049360E+00
         21   -1    0    0  504  503  0.00000000000E+00  0.00000000000E+00  0.14120848932E+04  0.14120848932E+04  0.00000000000E+00 0. -1.
         21   -1    0    0  503  504 -0.00000000000E+00 -0.00000000000E+00 -0.26145379360E+02  0.26145379360E+02  0.00000000000E+00 0. -1.
         25    2    1    2    0    0 -0.12328955635E+03  0.83119070716E+01  0.98347039359E+03  0.99905359159E+03  0.12499864513E+03 0.  0.
         25    2    1    2    0    0  0.12328955635E+03 -0.83119070716E+01  0.40246912023E+03  0.43917668096E+03  0.12500144741E+03 0.  0.
          5    1    3    3  501    0 -0.95534862712E+02 -0.52028003466E+02  0.58160884579E+03  0.59171341259E+03  0.47000000000E+01 0. -1.
         -5    1    3    3    0  501 -0.27754693636E+02  0.60339910538E+02  0.40186154780E+03  0.40734017900E+03  0.47000000000E+01 0. -1.
          5    1    4    4  502    0  0.54207385069E+02 -0.49061561299E+02  0.87499493240E+02  0.11412155235E+03  0.47000000000E+01 0. -1.
         -5    1    4    4    0  502  0.69082171279E+02  0.40749654227E+02  0.31496962699E+03  0.32505512861E+03  0.47000000000E+01 0. -1.
<mgrwt>
<rscale>  0 0.38428893E+03</rscale>
<asrwt>0</asrwt>
<pdfrwt beam="1">  1       21 0.21724377E+00 0.38428893E+03</pdfrwt>
<pdfrwt beam="2">  1       21 0.40223672E-02 0.38428893E+03</pdfrwt>
<totfact> 0.36789441E+04</totfact>
</mgrwt>
</event>
<event>
 8    1  0.9123825E-006  0.2655524E+03  0.7546771E-02  0.1103852E+00
         21   -1    0    0  504  503  0.00000000000E+00  0.00000000000E+00  0.10068477155E+04  0.10068477155E+04  0.00000000000E+00 0.  1.
         21   -1    0    0  503  504 -0.00000000000E+00 -0.00000000000E+00 -0.17509617988E+02  0.17509617988E+02  0.00000000000E+00 0.  1.
         25    2    1    2    0    0  0.25399717516E+02  0.53472284425E+01  0.63509454522E+03  0.64780291693E+03  0.12501919580E+03 0.  0.
         25    2    1    2    0    0 -0.25399717516E+02 -0.53472284425E+01  0.35424355230E+03  0.37655441656E+03  0.12502398084E+03 0.  0.
          5    1    3    3  501    0 -0.17192539257E+02  0.17963328223E+01  0.56691139452E+03  0.56719434893E+03  0.47000000000E+01 0.  1.
         -5    1    3    3    0  501  0.42592256773E+02  0.35508956202E+01  0.68183150696E+02  0.80608568003E+02  0.47000000000E+01 0.  1.
          5    1    4    4  502    0 -0.18027926493E+02  0.80681276533E+01 -0.15863878596E+01  0.20364367015E+02  0.47000000000E+01 0. -1.
         -5    1    4    4    0  502 -0.73717910232E+01 -0.13415356096E+02  0.35582994016E+03  0.35619004955E+03  0.47000000000E+01 0. -1.
<mgrwt>
<rscale>  0 0.26555240E+03</rscale>
<asrwt>0</asrwt>
<pdfrwt beam="1">  1       21 0.15489960E+00 0.26555240E+03</pdfrwt>
<pdfrwt beam="2">  1       21 0.26937882E-02 0.26555240E+03</pdfrwt>
<totfact> 0.20188816E+05</totfact>
</mgrwt>
</event>
<event>
 8    1  0.9123825E-006  0.5380901E+03  0.7546771E-02  0.1004289E+00
         21   -1    0    0  504  503  0.00000000000E+00  0.00000000000E+00  0.66844935133E+03  0.66844935133E+03  0.00000000000E+00 0. -1.
         21   -1    0    0  503  504 -0.00000000000E+00 -0.00000000000E+00 -0.10828828158E+03  0.10828828158E+03  0.00000000000E+00 0. -1.
         25    2    1    2    0    0  0.63755405798E+02 -0.21601166527E+03  0.16792854514E+03  0.30748736890E+03  0.12499077748E+03 0.  0.
         25    2    1    2    0    0 -0.63755405798E+02  0.21601166527E+03  0.39223252460E+03  0.46925026401E+03  0.12499466235E+03 0.  0.
          5    1    3    3  501    0  0.88241263166E+02 -0.18969631315E+03  0.10327559794E+03  0.23336484499E+03  0.47000000000E+01 0. -1.
         -5    1    3    3    0  501 -0.24485857368E+02 -0.26315352121E+02  0.64652947198E+02  0.74122523902E+02  0.47000000000E+01 0. -1.
          5    1    4    4  502    0 -0.79756600008E+02  0.22362651997E+03  0.37628064887E+03  0.44494848285E+03  0.47000000000E+01 0.  1.
         -5    1    4    4    0  502  0.16001194210E+02 -0.76148546934E+01  0.15951875731E+02  0.24301781158E+02  0.47000000000E+01 0.  1.
<mgrwt>
<rscale>  0 0.53809007E+03</rscale>
<asrwt>0</asrwt>
<pdfrwt beam="1">  1       21 0.10283836E+00 0.53809007E+03</pdfrwt>
<pdfrwt beam="2">  1       21 0.16659736E-01 0.53809007E+03</pdfrwt>
<totfact> 0.21984688E+04</totfact>
</mgrwt>
</event>
<event>
 8    1  0.9123825E-006  0.3427901E+03  0.7546771E-02  0.1065614E+00
         21   -1    0    0  504  503  0.00000000000E+00  0.00000000000E+00  0.43312350234E+02  0.43312350234E+02  0.00000000000E+00 0.  1.
         21   -1    0    0  503  504 -0.00000000000E+00 -0.00000000000E+00 -0.67824219965E+03  0.67824219965E+03  0.00000000000E+00 0.  1.
         25    2    1    2    0    0 -0.76476948415E+02  0.21531269329E+02 -0.13591112304E+03  0.20101955505E+03  0.12499883579E+03 0.  0.
         25    2    1    2    0    0  0.76476948415E+02 -0.21531269329E+02 -0.49901872638E+03  0.52053499484E+03  0.12499868949E+03 0.  0.
          5    1    3    3  501    0 -0.57907671954E+02 -0.47444062947E+02 -0.55165199524E+02  0.93110293838E+02  0.47000000000E+01 0. -1.
         -5    1    3    3    0  501 -0.18569276460E+02  0.68975332277E+02 -0.80745923512E+02  0.10790926121E+03  0.47000000000E+01 0. -1.
          5    1    4    4  502    0  0.92000010005E+02 -0.37337936672E+02 -0.48216642022E+03  0.49230546426E+03  0.47000000000E+01 0.  1.
         -5    1    4    4    0  502 -0.15523061590E+02  0.15806667342E+02 -0.16852306168E+02  0.28229530580E+02  0.47000000000E+01 0.  1.
<mgrwt>
<rscale>  0 0.34279010E+03</rscale>
<asrwt>0</asrwt>
<pdfrwt beam="1">  1       21 0.66634386E-02 0.34279010E+03</pdfrwt>
<pdfrwt beam="2">  1       21 0.10434495E+00 0.34279010E+03</pdfrwt>
<totfact> 0.11628984E+05</totfact>
</mgrwt>
</event>
<event>
 8    1  0.9123825E-006  0.3478976E+03  0.7546771E-02  0.1063481E+00
         21   -1    0    0  504  503  0.00000000000E+00  0.00000000000E+00  0.33672622552E+03  0.33672622552E+03  0.00000000000E+00 0. -1.
         21   -1    0    0  503  504 -0.00000000000E+00 -0.00000000000E+00 -0.89859875443E+02  0.89859875443E+02  0.00000000000E+00 0. -1.
         25    2    1    2    0    0 -0.55262018864E+02 -0.10133045513E+03  0.16783087152E+03  0.23898670782E+03  0.12500277282E+03 0.  0.
         25    2    1    2    0    0  0.55262018864E+02  0.10133045513E+03  0.79035478559E+02  0.18759939315E+03  0.12500069428E+03 0.  0.
          5    1    3    3  501    0 -0.92017380326E+02 -0.63362721052E+02  0.84323689018E+02  0.14005215896E+03  0.47000000000E+01 0. -1.
         -5    1    3    3    0  501  0.36755361462E+02 -0.37967734083E+02  0.83507182501E+02  0.98934548853E+02  0.47000000000E+01 0. -1.
          5    1    4    4  502    0 -0.17747345326E+02 -0.17391745295E+02  0.31216408374E+02  0.40174559391E+02  0.47000000000E+01 0.  1.
         -5    1    4    4    0  502  0.73009364189E+02  0.11872220043E+03  0.47819070185E+02  0.14742483375E+03  0.47000000000E+01 0.  1.
<mgrwt>
<rscale>  0 0.34789755E+03</rscale>
<asrwt>0</asrwt>
<pdfrwt beam="1">  1       21 0.51804034E-01 0.34789755E+03</pdfrwt>
<pdfrwt beam="2">  1       21 0.13824596E-01 0.34789755E+03</pdfrwt>
<totfact> 0.15422501E+05</totfact>
</mgrwt>
</event>
<event>
 8    1  0.9123825E-006  0.2629727E+03  0.7546771E-02  0.1105370E+00
         21   -1    0    0  504  503  0.00000000000E+00  0.00000000000E+00  0.11114196737E+02  0.11114196737E+02  0.00000000000E+00 0.  1.
         21   -1    0    0  503  504 -0.00000000000E+00 -0.00000000000E+00 -0.15555470329E+04  0.15555470329E+04  0.00000000000E+00 0.  1.
         25    2    1    2    0    0 -0.85834878435E+01  0.14628396017E+02 -0.99313490163E+03  0.10011143128E+04  0.12500107299E+03 0.  0.
         25    2    1    2    0    0  0.85834878435E+01 -0.14628396017E+02 -0.55129793449E+03  0.56554691678E+03  0.12500494500E+03 0.  0.
          5    1    3    3  501    0 -0.13898774699E+02  0.26384839097E+02 -0.98435046527E+03  0.98481331436E+03  0.47000000000E+01 0.  1.
         -5    1    3    3    0  501  0.53152868553E+01 -0.11756443080E+02 -0.87844363613E+01  0.16300998449E+02  0.47000000000E+01 0.  1.
          5    1    4    4  502    0  0.18866761750E+02 -0.79752606095E+01 -0.86267380696E+01  0.22717176111E+02  0.47000000000E+01 0. -1.
         -5    1    4    4    0  502 -0.10283273906E+02 -0.66531354073E+01 -0.54267119642E+03  0.54282974067E+03  0.47000000000E+01 0. -1.
<mgrwt>
<rscale>  0 0.26297267E+03</rscale>
<asrwt>0</asrwt>
<pdfrwt beam="1">  1       21 0.17098750E-02 0.26297267E+03</pdfrwt>
<pdfrwt beam="2">  1       21 0.23931513E+00 0.26297267E+03</pdfrwt>
<totfact> 0.11723828E+05</totfact>
</mgrwt>
</event>
<event>
 8    1  0.9123825E-006  0.2982969E+03  0.7546771E-02  0.1086095E+00
         21   -1    0    0  504  503  0.00000000000E+00  0.00000000000E+00  0.36421449297E+02  0.36421449297E+02  0.00000000000E+00 0. -1.
         21   -1    0    0  503  504 -0.00000000000E+00 -0.00000000000E+00 -0.61077358159E+03  0.61077358159E+03  0.00000000000E+00 0. -1.
         25    2    1    2    0    0 -0.46858037123E+02  0.46101259376E+02 -0.39123408704E+03  0.41594221806E+03  0.12499126428E+03 0.  0.
         25    2    1    2    0    0  0.46858037123E+02 -0.46101259376E+02 -0.18311804526E+03  0.23125281283E+03  0.12499857272E+03 0.  0.
          5    1    3    3  501    0  0.26336051547E+02 -0.19744289790E+01 -0.17433571207E+02  0.31992270721E+02  0.47000000000E+01 0.  1.
         -5    1    3    3    0  501 -0.73194088670E+02  0.48075688355E+02 -0.37380051583E+03  0.38394994734E+03  0.47000000000E+01 0.  1.
          5    1    4    4  502    0  0.10778936895E+02 -0.53822605981E+02 -0.12321417741E+02  0.56453217183E+02  0.47000000000E+01 0. -1.
         -5    1    4    4    0  502  0.36079100228E+02  0.77213466053E+01 -0.17079662752E+03  0.17479959564E+03  0.47000000000E+01 0. -1.
<mgrwt>
<rscale>  0 0.29829689E+03</rscale>
<asrwt>0</asrwt>
<pdfrwt beam="1">  1       21 0.56033007E-02 0.29829689E+03</pdfrwt>
<pdfrwt beam="2">  1       21 0.93965154E-01 0.29829689E+03</pdfrwt>
<totfact> 0.20418643E+05</totfact>
</mgrwt>
</event>
<event>
 8    1  0.9123825E-006  0.3034837E+03  0.7546771E-02  0.1083512E+00
         21   -1    0    0  504  503  0.00000000000E+00  0.00000000000E+00  0.48858333695E+03  0.48858333695E+03  0.00000000000E+00 0. -1.
         21   -1    0    0  503  504 -0.00000000000E+00 -0.00000000000E+00 -0.47127235857E+02  0.47127235857E+02  0.00000000000E+00 0. -1.
         25    2    1    2    0    0  0.13182515817E+02 -0.68615052709E+02  0.13214153697E+03  0.19485538111E+03  0.12500171829E+03 0.  0.
         25    2    1    2    0    0 -0.13182515817E+02  0.68615052709E+02  0.30931456412E+03  0.34085519169E+03  0.12499983178E+03 0.  0.
          5    1    3    3  501    0 -0.10719979049E+02 -0.32041650727E+02  0.14508809856E+03  0.14904439498E+03  0.47000000000E+01 0. -1.
         -5    1    3    3    0  501  0.23902494866E+02 -0.36573401982E+02 -0.12946561590E+02  0.45810986131E+02  0.47000000000E+01 0. -1.
          5    1    4    4  502    0 -0.24210739359E+02 -0.28317499883E+02  0.42434590280E+02  0.56664143443E+02  0.47000000000E+01 0. -1.
         -5    1    4    4    0  502  0.11028223542E+02  0.96932552592E+02  0.26687997384E+03  0.28419104825E+03  0.47000000000E+01 0. -1.
<mgrwt>
<rscale>  0 0.30348365E+03</rscale>
<asrwt>0</asrwt>
<pdfrwt beam="1">  1       21 0.75166664E-01 0.30348365E+03</pdfrwt>
<pdfrwt beam="2">  1       21 0.72503443E-02 0.30348365E+03</pdfrwt>
<totfact> 0.21847684E+05</totfact>
</mgrwt>
</event>
<event>
 8    1  0.9123825E-006  0.3179456E+03  0.7546771E-02  0.1076599E+00
         21   -1    0    0  504  503  0.00000000000E+00  0.00000000000E+00  0.98951845903E+03  0.98951845903E+03  0.00000000000E+00 0. -1.
         21   -1    0    0  503  504 -0.00000000000E+00 -0.00000000000E+00 -0.25540051018E+02  0.25540051018E+02  0.00000000000E+00 0. -1.
         25    2    1    2    0    0 -0.20188219456E+01 -0.95461467735E+02  0.55550624924E+03  0.57734674399E+03  0.12500040956E+03 0.  0.
         25    2    1    2    0    0  0.20188219456E+01  0.95461467735E+02  0.40847215877E+03  0.43771176605E+03  0.12500047274E+03 0.  0.
          5    1    3    3  501    0 -0.62309752338E+02 -0.62499269776E+02  0.31895245349E+03  0.33097042397E+03  0.47000000000E+01 0. -1.
         -5    1    3    3    0  501  0.60290930392E+02 -0.32962197959E+02  0.23655379575E+03  0.24637632002E+03  0.47000000000E+01 0. -1.
          5    1    4    4  502    0  0.48595557607E+02  0.78291533720E+02  0.16369471066E+03  0.18790726641E+03  0.47000000000E+01 0.  1.
         -5    1    4    4    0  502 -0.46576735661E+02  0.17169934015E+02  0.24477744811E+03  0.24980449964E+03  0.47000000000E+01 0.  1.
<mgrwt>
<rscale>  0 0.31794560E+03</rscale>
<asrwt>0</asrwt>
<pdfrwt beam="1">  1       21 0.15223358E+00 0.31794560E+03</pdfrwt>
<pdfrwt beam="2">  1       21 0.39292394E-02 0.31794560E+03</pdfrwt>
<totfact> 0.11052814E+05</totfact>
</mgrwt>
</event>
<event>
 8    1  0.9123825E-006  0.2610851E+03  0.7546771E-02  0.1106493E+00
         21   -1    0    0  504  503  0.00000000000E+00  0.00000000000E+00  0.35290236791E+03  0.35290236791E+03  0.00000000000E+00 0.  1.
         21   -1    0    0  503  504 -0.00000000000E+00 -0.00000000000E+00 -0.48289164682E+02  0.48289164682E+02  0.00000000000E+00 0.  1.
         25    2    1    2    0    0  0.27525777215E+02 -0.84541965680E+01  0.18955726327E+03  0.22887891358E+03  0.12499783668E+03 0.  0.
         25    2    1    2    0    0 -0.27525777215E+02  0.84541965680E+01  0.11505593996E+03  0.17231261901E+03  0.12499850998E+03 0.  0.
          5    1    3    3  501    0  0.47249172155E+02  0.25886914673E+02  0.17989081763E+03  0.18784411859E+03  0.47000000000E+01 0.  1.
         -5    1    3    3    0  501 -0.19723394940E+02 -0.34341111241E+02  0.96664456384E+01  0.41034794997E+02  0.47000000000E+01 0.  1.
          5    1    4    4  502    0 -0.32500809432E+02 -0.17560931994E+02 -0.14522782782E+02  0.39971116647E+02  0.47000000000E+01 0. -1.
         -5    1    4    4    0  502  0.49750322169E+01  0.26015128562E+02  0.12957872274E+03  0.13234150236E+03  0.47000000000E+01 0. -1.
<mgrwt>
<rscale>  0 0.26108512E+03</rscale>
<asrwt>0</asrwt>
<pdfrwt beam="1">  1       21 0.54292670E-01 0.26108512E+03</pdfrwt>
<pdfrwt beam="2">  1       21 0.74291025E-02 0.26108512E+03</pdfrwt>
<totfact> 0.43102436E+05</totfact>
</mgrwt>
</event>
<event>
 8    1  0.9123825E-006  0.3432115E+03  0.7546771E-02  0.1065436E+00
         21   -1    0    0  504  503  0.00000000000E+00  0.00000000000E+00  0.35189459447E+03  0.35189459447E+03  0.00000000000E+00 0.  1.
         21   -1    0    0  503  504 -0.00000000000E+00 -0.00000000000E+00 -0.83685677531E+02  0.83685677531E+02  0.00000000000E+00 0.  1.
         25    2    1    2    0    0 -0.10999589753E+03  0.39040560007E+02  0.15204998700E+03  0.22884153193E+03  0.12500394151E+03 0.  0.
         25    2    1    2    0    0  0.10999589753E+03 -0.39040560007E+02  0.11615892995E+03  0.20673874007E+03  0.12499898737E+03 0.  0.
          5    1    3    3  501    0 -0.52205192386E+02  0.54162293524E+02  0.11752090095E+02  0.76283273222E+02  0.47000000000E+01 0.  1.
         -5    1    3    3    0  501 -0.57790705141E+02 -0.15121733517E+02  0.14029789690E+03  0.15255825871E+03  0.47000000000E+01 0.  1.
          5    1    4    4  502    0  0.61906034668E+02 -0.83558417594E+02  0.83044694428E+02  0.13316485104E+03  0.47000000000E+01 0. -1.
         -5    1    4    4    0  502  0.48089862859E+02  0.44517857587E+02  0.33114235519E+02  0.73573889037E+02  0.47000000000E+01 0. -1.
<mgrwt>
<rscale>  0 0.34321152E+03</rscale>
<asrwt>0</asrwt>
<pdfrwt beam="1">  1       21 0.54137629E-01 0.34321152E+03</pdfrwt>
<pdfrwt beam="2">  1       21 0.12874720E-01 0.34321152E+03</pdfrwt>
<totfact> 0.16005814E+05</totfact>
</mgrwt>
</event>
<event>
 8    1  0.9123825E-006  0.2659123E+03  0.7546771E-02  0.1103642E+00
         21   -1    0    0  504  503  0.00000000000E+00  0.00000000000E+00  0.57638037071E+02  0.57638037071E+02  0.00000000000E+00 0. -1.
         21   -1    0    0  503  504 -0.00000000000E+00 -0.00000000000E+00 -0.30669579688E+03  0.30669579688E+03  0.00000000000E+00 0. -1.
         25    2    1    2    0    0 -0.37404215808E+02  0.21630294798E+02 -0.14317802249E+03  0.19491567392E+03  0.12500091520E+03 0.  0.
         25    2    1    2    0    0  0.37404215808E+02 -0.21630294798E+02 -0.10587973731E+03  0.16941816003E+03  0.12500019664E+03 0.  0.
          5    1    3    3  501    0 -0.28904717759E+02  0.35649185290E+02  0.44102350639E+01  0.46345304982E+02  0.47000000000E+01 0.  1.
         -5    1    3    3    0  501 -0.84994980486E+01 -0.14018890492E+02 -0.14758825756E+03  0.14857036894E+03  0.47000000000E+01 0.  1.
          5    1    4    4  502    0  0.81411364498E+02  0.23572233032E+01 -0.59547220602E+02  0.10100162500E+03  0.47000000000E+01 0. -1.
         -5    1    4    4    0  502 -0.44007148690E+02 -0.23987518101E+02 -0.46332516711E+02  0.68416535028E+02  0.47000000000E+01 0. -1.
<mgrwt>
<rscale>  0 0.26591234E+03</rscale>
<asrwt>0</asrwt>
<pdfrwt beam="1">  1       21 0.88673903E-02 0.26591234E+03</pdfrwt>
<pdfrwt beam="2">  1       21 0.47183969E-01 0.26591234E+03</pdfrwt>
<totfact> 0.42418740E+05</totfact>
</mgrwt>
</event>
<event>
 8    1  0.9123825E-006  0.4720499E+03  0.7546771E-02  0.1021343E+00
         21   -1    0    0  504  503  0.00000000000E+00  0.00000000000E+00  0.13447943387E+04  0.13447943387E+04  0.00000000000E+00 0. -1.
         21   -1    0    0  503  504 -0.00000000000E+00 -0.00000000000E+00 -0.41424763584E+02  0.41424763584E+02  0.00000000000E+00 0. -1.
         25    2    1    2    0    0  0.79331559412E+01 -0.67757629091E+02  0.98940627804E+02  0.17340079253E+03  0.12499822301E+03 0.  0.
         25    2    1    2    0    0 -0.79331559412E+01  0.67757629091E+02  0.12044289473E+04  0.12128183098E+04  0.12500052834E+03 0.  0.
          5    1    3    3  501    0 -0.48866090368E+02 -0.69403602056E+02  0.65334185455E+02  0.10721660578E+03  0.47000000000E+01 0. -1.
         -5    1    3    3    0  501  0.56799246309E+02  0.16459729651E+01  0.33606442349E+02  0.66184186749E+02  0.47000000000E+01 0. -1.
          5    1    4    4  502    0  0.10472870334E+02 -0.83039319588E+01  0.14369778862E+02  0.20179614554E+02  0.47000000000E+01 0. -1.
         -5    1    4    4    0  502 -0.18406026275E+02  0.76061561050E+02  0.11900591685E+04  0.11926386952E+04  0.47000000000E+01 0. -1.
<mgrwt>
<rscale>  0 0.47204994E+03</rscale>
<asrwt>0</asrwt>
<pdfrwt beam="1">  1       21 0.20689140E+00 0.47204994E+03</pdfrwt>
<pdfrwt beam="2">  1       21 0.63730416E-02 0.47204994E+03</pdfrwt>
<totfact> 0.18837156E+04</totfact>
</mgrwt>
</event>
<event>
 8    1  0.9123825E-006  0.3452227E+03  0.7546771E-02  0.1064593E+00
         21   -1    0    0  504  503  0.00000000000E+00  0.00000000000E+00  0.11154328208E+03  0.11154328208E+03  0.00000000000E+00 0.  1.
         21   -1    0    0  503  504 -0.00000000000E+00 -0.00000000000E+00 -0.26711317062E+03  0.26711317062E+03  0.00000000000E+00 0.  1.
         25    2    1    2    0    0  0.64897045092E+02  0.23531559690E+02  0.28591015291E+02  0.14562536541E+03  0.12499576046E+03 0.  0.
         25    2    1    2    0    0 -0.64897045092E+02 -0.23531559690E+02 -0.18416090382E+03  0.23303108729E+03  0.12499155324E+03 0.  0.
          5    1    3    3  501    0  0.19891815068E+02 -0.49194187642E+02  0.27530785732E+02  0.59964877782E+02  0.47000000000E+01 0. -1.
         -5    1    3    3    0  501  0.45005230025E+02  0.72725747331E+02  0.10602295593E+01  0.85660487631E+02  0.47000000000E+01 0. -1.
          5    1    4    4  502    0 -0.74458138786E+02 -0.51659051371E+02 -0.68977345310E+02  0.11398524548E+03  0.47000000000E+01 0. -1.
         -5    1    4    4    0  502  0.95610936942E+01  0.28127491681E+02 -0.11518355851E+03  0.11904584181E+03  0.47000000000E+01 0. -1.
<mgrwt>
<rscale>  0 0.34522271E+03</rscale>
<asrwt>0</asrwt>
<pdfrwt beam="1">  1       21 0.17160505E-01 0.34522271E+03</pdfrwt>
<pdfrwt beam="2">  1       21 0.41094334E-01 0.34522271E+03</pdfrwt>
<totfact> 0.16790785E+05</totfact>
</mgrwt>
</event>
<event>
 8    1  0.9123825E-006  0.2717223E+03  0.7546771E-02  0.1100298E+00
         21   -1    0    0  504  503  0.00000000000E+00  0.00000000000E+00  0.20256151277E+03  0.20256151277E+03  0.00000000000E+00 0. -1.
         21   -1    0    0  503  504 -0.00000000000E+00 -0.00000000000E+00 -0.91124173277E+02  0.91124173277E+02  0.00000000000E+00 0. -1.
         25    2    1    2    0    0 -0.42355129625E+02  0.30181656373E+02  0.43501980887E+02  0.14220683075E+03  0.12500188393E+03 0.  0.
         25    2    1    2    0    0  0.42355129625E+02 -0.30181656373E+02  0.67935358605E+02  0.15147885529E+03  0.12500296502E+03 0.  0.
          5    1    3    3  501    0 -0.39096246372E+02  0.46076556032E+02 -0.29406031352E+02  0.67367426669E+02  0.47000000000E+01 0.  1.
         -5    1    3    3    0  501 -0.32588832525E+01 -0.15894899659E+02  0.72908012238E+02  0.74839404085E+02  0.47000000000E+01 0.  1.
          5    1    4    4  502    0 -0.45451494323E+01  0.27367986407E+02 -0.21309451332E+02  0.35296568946E+02  0.47000000000E+01 0.  1.
         -5    1    4    4    0  502  0.46900279057E+02 -0.57549642780E+02  0.89244809937E+02  0.11618228635E+03  0.47000000000E+01 0.  1.
<mgrwt>
<rscale>  0 0.27172229E+03</rscale>
<asrwt>0</asrwt>
<pdfrwt beam="1">  1       21 0.31163310E-01 0.27172229E+03</pdfrwt>
<pdfrwt beam="2">  1       21 0.14019104E-01 0.27172229E+03</pdfrwt>
<totfact> 0.43175371E+05</totfact>
</mgrwt>
</event>
<event>
 8    1  0.9123825E-006  0.2668139E+03  0.7546771E-02  0.1103117E+00
         21   -1    0    0  504  503  0.00000000000E+00  0.00000000000E+00  0.27823219724E+03  0.27823219724E+03  0.00000000000E+00 0. -1.
         21   -1    0    0  503  504 -0.00000000000E+00 -0.00000000000E+00 -0.63966051084E+02  0.63966051084E+02  0.00000000000E+00 0. -1.
         25    2    1    2    0    0  0.22976768852E+02  0.19835418176E+02  0.15249563689E+03  0.19950137229E+03  0.12499801020E+03 0.  0.
         25    2    1    2    0    0 -0.22976768852E+02 -0.19835418176E+02  0.61770509269E+02  0.14269687603E+03  0.12500170756E+03 0.  0.
          5    1    3    3  501    0  0.62603890538E+02  0.15580077289E+02  0.31348843888E+02  0.71880636697E+02  0.47000000000E+01 0.  1.
         -5    1    3    3    0  501 -0.39627121687E+02  0.42553408864E+01  0.12114679300E+03  0.12762073559E+03  0.47000000000E+01 0.  1.
          5    1    4    4  502    0  0.18353928249E+02  0.24046773636E+02  0.74819434811E+02  0.80840285934E+02  0.47000000000E+01 0.  1.
         -5    1    4    4    0  502 -0.41330697101E+02 -0.43882191812E+02 -0.13048925542E+02  0.61856590101E+02  0.47000000000E+01 0.  1.
<mgrwt>
<rscale>  0 0.26681390E+03</rscale>
<asrwt>0</asrwt>
<pdfrwt beam="1">  1       21 0.42804953E-01 0.26681390E+03</pdfrwt>
<pdfrwt beam="2">  1       21 0.98409311E-02 0.26681390E+03</pdfrwt>
<totfact> 0.43140713E+05</totfact>
</mgrwt>
</event>
<event>
 8    1  0.9123825E-006  0.2665152E+03  0.7546771E-02  0.1103291E+00
         21   -1    0    0  504  503  0.00000000000E+00  0.00000000000E+00  0.14974768030E+03  0.14974768030E+03  0.00000000000E+00 0. -1.
         21   -1    0    0  503  504 -0.00000000000E+00 -0.00000000000E+00 -0.11858341645E+03  0.11858341645E+03  0.00000000000E+00 0. -1.
         25    2    1    2    0    0 -0.37008683891E+02 -0.19549278315E+02  0.35201288554E+02  0.13644119851E+03  0.12500101187E+03 0.  0.
         25    2    1    2    0    0  0.37008683891E+02  0.19549278315E+02 -0.40370246987E+01  0.13188989825E+03  0.12500732269E+03 0.  0.
          5    1    3    3  501    0 -0.18160753457E+02 -0.72632394493E+02  0.15658811671E+02  0.76632669788E+02  0.47000000000E+01 0. -1.
         -5    1    3    3    0  501 -0.18847930434E+02  0.53083116178E+02  0.19542476883E+02  0.59808528719E+02  0.47000000000E+01 0. -1.
          5    1    4    4  502    0 -0.42698110406E+02  0.26700977408E+02  0.66584672211E+01  0.51014664681E+02  0.47000000000E+01 0. -1.
         -5    1    4    4    0  502  0.79706794297E+02 -0.71516990928E+01 -0.10695491920E+02  0.80875233566E+02  0.47000000000E+01 0. -1.
<mgrwt>
<rscale>  0 0.26651523E+03</rscale>
<asrwt>0</asrwt>
<pdfrwt beam="1">  1       21 0.23038105E-01 0.26651523E+03</pdfrwt>
<pdfrwt beam="2">  1       21 0.18243602E-01 0.26651523E+03</pdfrwt>
<totfact> 0.47761477E+05</totfact>
</mgrwt>
</event>
<event>
 8    1  0.9123825E-006  0.2707438E+03  0.7546771E-02  0.1100855E+00
         21   -1    0    0  504  503  0.00000000000E+00  0.00000000000E+00  0.29488570148E+03  0.29488570148E+03  0.00000000000E+00 0.  1.
         21   -1    0    0  503  504 -0.00000000000E+00 -0.00000000000E+00 -0.62144568999E+02  0.62144568999E+02  0.00000000000E+00 0.  1.
         25    2    1    2    0    0 -0.20140554090E+02  0.24231077424E+02  0.17086148742E+03  0.21403548980E+03  0.12499902392E+03 0.  0.
         25    2    1    2    0    0  0.20140554090E+02 -0.24231077424E+02  0.61879645061E+02  0.14299478067E+03  0.12500251915E+03 0.  0.
          5    1    3    3  501    0  0.94243250730E+01 -0.94875861123E+01  0.16827529905E+03  0.16887124819E+03  0.47000000000E+01 0.  1.
         -5    1    3    3    0  501 -0.29564879163E+02  0.33718663536E+02  0.25861883650E+01  0.45164241617E+02  0.47000000000E+01 0.  1.
          5    1    4    4  502    0  0.20584530180E+02  0.26227498912E+01 -0.35764790306E+02  0.41615044459E+02  0.47000000000E+01 0. -1.
         -5    1    4    4    0  502 -0.44397608969E+00 -0.26853827315E+02  0.97644435367E+02  0.10137973621E+03  0.47000000000E+01 0. -1.
<mgrwt>
<rscale>  0 0.27074375E+03</rscale>
<asrwt>0</asrwt>
<pdfrwt beam="1">  1       21 0.45367030E-01 0.27074375E+03</pdfrwt>
<pdfrwt beam="2">  1       21 0.95607030E-02 0.27074375E+03</pdfrwt>
<totfact> 0.40247276E+05</totfact>
</mgrwt>
</event>
<event>
 8    1  0.9123825E-006  0.2860355E+03  0.7546771E-02  0.1092437E+00
         21   -1    0    0  504  503  0.00000000000E+00  0.00000000000E+00  0.10083234150E+03  0.10083234150E+03  0.00000000000E+00 0.  1.
         21   -1    0    0  503  504 -0.00000000000E+00 -0.00000000000E+00 -0.20285233281E+03  0.20285233281E+03  0.00000000000E+00 0.  1.
         25    2    1    2    0    0  0.63537061889E+02  0.18748369104E+02 -0.73317920670E+02  0.15933621292E+03  0.12499620666E+03 0.  0.
         25    2    1    2    0    0 -0.63537061889E+02 -0.18748369104E+02 -0.28702070636E+02  0.14434846139E+03  0.12499683944E+03 0.  0.
          5    1    3    3  501    0 -0.87923484583E+01  0.26791699946E+02  0.24276851575E+02  0.37504081109E+02  0.47000000000E+01 0. -1.
         -5    1    3    3    0  501  0.72329410348E+02 -0.80433308422E+01 -0.97594772245E+02  0.12183213181E+03  0.47000000000E+01 0. -1.
          5    1    4    4  502    0 -0.79950442766E+02 -0.13867994910E+02  0.27186833006E+02  0.85706525249E+02  0.47000000000E+01 0.  1.
         -5    1    4    4    0  502  0.16413380877E+02 -0.48803741937E+01 -0.55888903643E+02  0.58641936142E+02  0.47000000000E+01 0.  1.
<mgrwt>
<rscale>  0 0.28603549E+03</rscale>
<asrwt>0</asrwt>
<pdfrwt beam="1">  1       21 0.15512668E-01 0.28603549E+03</pdfrwt>
<pdfrwt beam="2">  1       21 0.31208051E-01 0.28603549E+03</pdfrwt>
<totfact> 0.35664370E+05</totfact>
</mgrwt>
</event>
<event>
 8    1  0.9123825E-006  0.3209816E+03  0.7546771E-02  0.1075198E+00
         21   -1    0    0  504  503  0.00000000000E+00  0.00000000000E+00  0.22214677411E+02  0.22214677411E+02  0.00000000000E+00 0.  1.
         21   -1    0    0  503  504 -0.00000000000E+00 -0.00000000000E+00 -0.11594722306E+04  0.11594722306E+04  0.00000000000E+00 0.  1.
         25    2    1    2    0    0 -0.91948027107E+02  0.39587224985E+02 -0.60720800542E+03  0.62797164493E+03  0.12500094769E+03 0.  0.
         25    2    1    2    0    0  0.91948027107E+02 -0.39587224985E+02 -0.53004954776E+03  0.55371526307E+03  0.12500592548E+03 0.  0.
          5    1    3    3  501    0 -0.56249912334E+02  0.67766540467E+02 -0.20491577826E+03  0.22308949510E+03  0.47000000000E+01 0.  1.
         -5    1    3    3    0  501 -0.35698114773E+02 -0.28179315482E+02 -0.40229222716E+03  0.40488214983E+03  0.47000000000E+01 0.  1.
          5    1    4    4  502    0  0.75311058031E+02  0.30506152052E+02 -0.35794958296E+03  0.36708633142E+03  0.47000000000E+01 0. -1.
         -5    1    4    4    0  502  0.16636969076E+02 -0.70093377036E+02 -0.17209996481E+03  0.18662893165E+03  0.47000000000E+01 0. -1.
<mgrwt>
<rscale>  0 0.32098163E+03</rscale>
<asrwt>0</asrwt>
<pdfrwt beam="1">  1       21 0.34176415E-02 0.32098163E+03</pdfrwt>
<pdfrwt beam="2">  1       21 0.17838041E+00 0.32098163E+03</pdfrwt>
<totfact> 0.89913403E+04</totfact>
</mgrwt>
</event>
<event>
 8    1  0.9123825E-006  0.4068545E+03  0.7546771E-02  0.1041432E+00
         21   -1    0    0  504  503  0.00000000000E+00  0.00000000000E+00  0.83657092595E+03  0.83657092595E+03  0.00000000000E+00 0.  1.
         21   -1    0    0  503  504 -0.00000000000E+00 -0.00000000000E+00 -0.49466993314E+02  0.49466993314E+02  0.00000000000E+00 0.  1.
         25    2    1    2    0    0 -0.10929881409E+03  0.10024992090E+03  0.52717341579E+03  0.56171769532E+03  0.12497472350E+03 0.  0.
         25    2    1    2    0    0  0.10929881409E+03 -0.10024992090E+03  0.25993051684E+03  0.32432022395E+03  0.12499382654E+03 0.  0.
          5    1    3    3  501    0 -0.32121458778E+02  0.16252040906E+02  0.34378067973E+03  0.34569229483E+03  0.47000000000E+01 0. -1.
         -5    1    3    3    0  501 -0.77177355311E+02  0.83997879996E+02  0.18339273607E+03  0.21602540049E+03  0.47000000000E+01 0. -1.
          5    1    4    4  502    0  0.46614226169E+02  0.17171814977E+02  0.12562188386E+03  0.13516917184E+03  0.47000000000E+01 0.  1.
         -5    1    4    4    0  502  0.62684587921E+02 -0.11742173588E+03  0.13430863298E+03  0.18915105211E+03  0.47000000000E+01 0.  1.
<mgrwt>
<rscale>  0 0.40685451E+03</rscale>
<asrwt>0</asrwt>
<pdfrwt beam="1">  1       21 0.12870321E+00 0.40685451E+03</pdfrwt>
<pdfrwt beam="2">  1       21 0.76103073E-02 0.40685451E+03</pdfrwt>
<totfact> 0.53580539E+04</totfact>
</mgrwt>
</event>
<event>
 8    1  0.9123825E-006  0.3485002E+03  0.7546771E-02  0.1063232E+00
         21   -1    0    0  504  503  0.00000000000E+00  0.00000000000E+00  0.21898228333E+03  0.21898228333E+03  0.00000000000E+00 0.  1.
         21   -1    0    0  503  504 -0.00000000000E+00 -0.00000000000E+00 -0.13865552278E+03  0.13865552278E+03  0.00000000000E+00 0.  1.
         25    2    1    2    0    0 -0.98552712803E+02  0.11449894037E+02 -0.31629812537E+02  0.16269430303E+03  0.12500101568E+03 0.  0.
         25    2    1    2    0    0  0.98552712803E+02 -0.11449894037E+02  0.11195657309E+03  0.19494350309E+03  0.12499983146E+03 0.  0.
          5    1    3    3  501    0 -0.12302283143E+03 -0.11228057363E+02 -0.35904635943E+02  0.12873196653E+03  0.47000000000E+01 0. -1.
         -5    1    3    3    0  501  0.24470118624E+02  0.22677951400E+02  0.42748234061E+01  0.33962336497E+02  0.47000000000E+01 0. -1.
          5    1    4    4  502    0  0.10693827287E+03 -0.29268300912E+02  0.36502146343E+02  0.11682005106E+03  0.47000000000E+01 0. -1.
         -5    1    4    4    0  502 -0.83855600636E+01  0.17818406875E+02  0.75454426746E+02  0.78123452028E+02  0.47000000000E+01 0. -1.
<mgrwt>
<rscale>  0 0.34850023E+03</rscale>
<asrwt>0</asrwt>
<pdfrwt beam="1">  1       21 0.33689582E-01 0.34850023E+03</pdfrwt>
<pdfrwt beam="2">  1       21 0.21331619E-01 0.34850023E+03</pdfrwt>
<totfact> 0.16660758E+05</totfact>
</mgrwt>
</event>
<event>
 8    1  0.9123825E-006  0.3131561E+03  0.7546771E-02  0.1078843E+00
         21   -1    0    0  504  503  0.00000000000E+00  0.00000000000E+00  0.61214972883E+02  0.61214972883E+02  0.00000000000E+00 0.  1.
         21   -1    0    0  503  504 -0.00000000000E+00 -0.00000000000E+00 -0.40050157818E+03  0.40050157818E+03  0.00000000000E+00 0.  1.
         25    2    1    2    0    0 -0.56737132674E+02 -0.75284282441E+02 -0.17286454112E+03  0.23322619108E+03  0.12500192488E+03 0.  0.
         25    2    1    2    0    0  0.56737132674E+02  0.75284282441E+02 -0.16642206418E+03  0.22849035998E+03  0.12499886301E+03 0.  0.
          5    1    3    3  501    0 -0.28140217932E+02 -0.10648546990E+03 -0.14573637492E+03  0.18273535000E+03  0.47000000000E+01 0.  1.
         -5    1    3    3    0  501 -0.28596914742E+02  0.31201187459E+02 -0.27128166200E+02  0.50490841081E+02  0.47000000000E+01 0.  1.
          5    1    4    4  502    0  0.76603997407E+02 -0.14452314581E+01 -0.73642784383E+02  0.10637485983E+03  0.47000000000E+01 0.  1.
         -5    1    4    4    0  502 -0.19866864733E+02  0.76729513899E+02 -0.92779279793E+02  0.12211550015E+03  0.47000000000E+01 0.  1.
<mgrwt>
<rscale>  0 0.31315615E+03</rscale>
<asrwt>0</asrwt>
<pdfrwt beam="1">  1       21 0.94176884E-02 0.31315615E+03</pdfrwt>
<pdfrwt beam="2">  1       21 0.61615626E-01 0.31315615E+03</pdfrwt>
<totfact> 0.21379471E+05</totfact>
</mgrwt>
</event>
<event>
 8    1  0.9123825E-006  0.2561655E+03  0.7546771E-02  0.1109469E+00
         21   -1    0    0  504  503  0.00000000000E+00  0.00000000000E+00  0.78634523657E+02  0.78634523657E+02  0.00000000000E+00 0.  1.
         21   -1    0    0  503  504 -0.00000000000E+00 -0.00000000000E+00 -0.20862580539E+03  0.20862580539E+03  0.00000000000E+00 0.  1.
         25    2    1    2    0    0  0.23589718537E+02  0.55595294888E+01 -0.49553119177E+02  0.13662762333E+03  0.12499685055E+03 0.  0.
         25    2    1    2    0    0 -0.23589718537E+02 -0.55595294888E+01 -0.80438162552E+02  0.15063270571E+03  0.12503011976E+03 0.  0.
          5    1    3    3  501    0 -0.34245430874E+02  0.51197825337E+01  0.24405078082E+02  0.42622289299E+02  0.47000000000E+01 0. -1.
         -5    1    3    3    0  501  0.57835149411E+02  0.43974695519E+00 -0.73958197259E+02  0.94005334033E+02  0.47000000000E+01 0. -1.
          5    1    4    4  502    0 -0.23836937089E+02 -0.58115687407E+02 -0.74458629050E+02  0.97528509333E+02  0.47000000000E+01 0.  1.
         -5    1    4    4    0  502  0.24721855215E+00  0.52556157918E+02 -0.59795335021E+01  0.53104196379E+02  0.47000000000E+01 0.  1.
<mgrwt>
<rscale>  0 0.25616550E+03</rscale>
<asrwt>0</asrwt>
<pdfrwt beam="1">  1       21 0.12097619E-01 0.25616550E+03</pdfrwt>
<pdfrwt beam="2">  1       21 0.32096277E-01 0.25616550E+03</pdfrwt>
<totfact> 0.53359304E+05</totfact>
</mgrwt>
</event>
<event>
 8    1  0.9123825E-006  0.2950465E+03  0.7546771E-02  0.1087743E+00
         21   -1    0    0  504  503  0.00000000000E+00  0.00000000000E+00  0.94313705056E+02  0.94313705056E+02  0.00000000000E+00 0.  1.
         21   -1    0    0  503  504 -0.00000000000E+00 -0.00000000000E+00 -0.23075231983E+03  0.23075231983E+03  0.00000000000E+00 0.  1.
         25    2    1    2    0    0 -0.42848649292E+01 -0.55121527421E+02 -0.12937199588E+03  0.18820042387E+03  0.12500217349E+03 0.  0.
         25    2    1    2    0    0  0.42848649292E+01  0.55121527421E+02 -0.70666188949E+01  0.13686560101E+03  0.12500205112E+03 0.  0.
          5    1    3    3  501    0  0.59492900878E+02 -0.36849644550E+02 -0.68530622422E+02  0.98060378175E+02  0.47000000000E+01 0. -1.
         -5    1    3    3    0  501 -0.63777765807E+02 -0.18271882870E+02 -0.60841373454E+02  0.90140045699E+02  0.47000000000E+01 0. -1.
          5    1    4    4  502    0  0.33587730782E+02  0.53051834007E+02 -0.52890212727E+02  0.82231972814E+02  0.47000000000E+01 0.  1.
         -5    1    4    4    0  502 -0.29302865853E+02  0.20696934139E+01  0.45823593832E+02  0.54633628194E+02  0.47000000000E+01 0.  1.
<mgrwt>
<rscale>  0 0.29504648E+03</rscale>
<asrwt>0</asrwt>
<pdfrwt beam="1">  1       21 0.14509801E-01 0.29504648E+03</pdfrwt>
<pdfrwt beam="2">  1       21 0.35500356E-01 0.29504648E+03</pdfrwt>
<totfact> 0.31141339E+05</totfact>
</mgrwt>
</event>
<event>
 8    1  0.9123825E-006  0.2947822E+03  0.7546771E-02  0.1087878E+00
         21   -1    0    0  504  503  0.00000000000E+00  0.00000000000E+00  0.57764014691E+02  0.57764014691E+02  0.00000000000E+00 0. -1.
         21   -1    0    0  503  504 -0.00000000000E+00 -0.00000000000E+00 -0.37608422349E+03  0.37608422349E+03  0.00000000000E+00 0. -1.
         25    2    1    2    0    0 -0.55473744250E+02  0.54550266641E+02 -0.16887539628E+03  0.22404628064E+03  0.12499907402E+03 0.  0.
         25    2    1    2    0    0  0.55473744250E+02 -0.54550266641E+02 -0.14944481252E+03  0.20980195755E+03  0.12502016441E+03 0.  0.
          5    1    3    3  501    0 -0.55035119178E+02  0.92523801651E+02 -0.11132215214E+03  0.15493298478E+03  0.47000000000E+01 0.  1.
         -5    1    3    3    0  501 -0.43862507269E+00 -0.37973535009E+02 -0.57553244139E+02  0.69113295855E+02  0.47000000000E+01 0.  1.
          5    1    4    4  502    0 -0.10677941534E+02 -0.58484447484E+02 -0.17623876372E+02  0.62186333316E+02  0.47000000000E+01 0. -1.
         -5    1    4    4    0  502  0.66151685784E+02  0.39341808423E+01 -0.13182093614E+03  0.14761562423E+03  0.47000000000E+01 0. -1.
<mgrwt>
<rscale>  0 0.29478219E+03</rscale>
<asrwt>0</asrwt>
<pdfrwt beam="1">  1       21 0.88867716E-02 0.29478219E+03</pdfrwt>
<pdfrwt beam="2">  1       21 0.57859110E-01 0.29478219E+03</pdfrwt>
<totfact> 0.27270284E+05</totfact>
</mgrwt>
</event>
<event>
 8    1  0.9123825E-006  0.4125120E+03  0.7546771E-02  0.1039531E+00
         21   -1    0    0  504  503  0.00000000000E+00  0.00000000000E+00  0.41615019333E+03  0.41615019333E+03  0.00000000000E+00 0. -1.
         21   -1    0    0  503  504 -0.00000000000E+00 -0.00000000000E+00 -0.10222641925E+03  0.10222641925E+03  0.00000000000E+00 0. -1.
         25    2    1    2    0    0 -0.12111631268E+03  0.60062013901E+02  0.40161464307E+02  0.18845479966E+03  0.12500264632E+03 0.  0.
         25    2    1    2    0    0  0.12111631268E+03 -0.60062013901E+02  0.27376230978E+03  0.32992181292E+03  0.12500397465E+03 0.  0.
          5    1    3    3  501    0 -0.95070140569E+02  0.10571466527E+02 -0.28360508289E+02  0.99882410678E+02  0.47000000000E+01 0. -1.
         -5    1    3    3    0  501 -0.26046172110E+02  0.49490547374E+02  0.68521972596E+02  0.88572388979E+02  0.47000000000E+01 0. -1.
          5    1    4    4  502    0  0.77288612952E+02  0.14955685561E+02  0.59883248105E+02  0.99021692705E+02  0.47000000000E+01 0.  1.
         -5    1    4    4    0  502  0.43827699728E+02 -0.75017699462E+02  0.21387906167E+03  0.23090012022E+03  0.47000000000E+01 0.  1.
<mgrwt>
<rscale>  0 0.41251203E+03</rscale>
<asrwt>0</asrwt>
<pdfrwt beam="1">  1       21 0.64023106E-01 0.41251203E+03</pdfrwt>
<pdfrwt beam="2">  1       21 0.15727142E-01 0.41251203E+03</pdfrwt>
<totfact> 0.75736393E+04</totfact>
</mgrwt>
</event>
<event>
 8    1  0.9123825E-006  0.3630865E+03  0.7546771E-02  0.1057368E+00
         21   -1    0    0  504  503  0.00000000000E+00  0.00000000000E+00  0.20426836432E+03  0.20426836432E+03  0.00000000000E+00 0. -1.
         21   -1    0    0  503  504 -0.00000000000E+00 -0.00000000000E+00 -0.16134631112E+03  0.16134631112E+03  0.00000000000E+00 0. -1.
         25    2    1    2    0    0  0.55689971275E+02 -0.12098955701E+02 -0.98046034247E+02  0.16878093477E+03  0.12500488583E+03 0.  0.
         25    2    1    2    0    0 -0.55689971275E+02  0.12098955701E+02  0.14096808744E+03  0.19683374066E+03  0.12499504853E+03 0.  0.
          5    1    3    3  501    0  0.73412274295E+02 -0.39873056566E+02 -0.23140021278E+02  0.86814591180E+02  0.47000000000E+01 0.  1.
         -5    1    3    3    0  501 -0.17722303020E+02  0.27774100865E+02 -0.74906012969E+02  0.81966343593E+02  0.47000000000E+01 0.  1.
          5    1    4    4  502    0 -0.61363383800E+01  0.64455896679E+02  0.72215206877E+02  0.97104806110E+02  0.47000000000E+01 0.  1.
         -5    1    4    4    0  502 -0.49553632895E+02 -0.52356940978E+02  0.68752880563E+02  0.99728934554E+02  0.47000000000E+01 0.  1.
<mgrwt>
<rscale>  0 0.36308647E+03</rscale>
<asrwt>0</asrwt>
<pdfrwt beam="1">  1       21 0.31425902E-01 0.36308647E+03</pdfrwt>
<pdfrwt beam="2">  1       21 0.24822509E-01 0.36308647E+03</pdfrwt>
<totfact> 0.14265964E+05</totfact>
</mgrwt>
</event>
<event>
 8    1  0.9123825E-006  0.3661351E+03  0.7546771E-02  0.1056181E+00
         21   -1    0    0  504  503  0.00000000000E+00  0.00000000000E+00  0.19737759951E+03  0.19737759951E+03  0.00000000000E+00 0.  1.
         21   -1    0    0  503  504 -0.00000000000E+00 -0.00000000000E+00 -0.16979497763E+03  0.16979497763E+03  0.00000000000E+00 0.  1.
         25    2    1    2    0    0 -0.28887149804E+02  0.12745089217E+03 -0.14734018933E+02  0.18144138397E+03  0.12500274863E+03 0.  0.
         25    2    1    2    0    0  0.28887149804E+02 -0.12745089217E+03  0.42316640818E+02  0.18573119316E+03  0.12500872243E+03 0.  0.
          5    1    3    3  501    0  0.15654732912E+02  0.95994649367E+02 -0.56512123612E+02  0.11258664879E+03  0.47000000000E+01 0. -1.
         -5    1    3    3    0  501 -0.44541882716E+02  0.31456242805E+02  0.41778104679E+02  0.68854735189E+02  0.47000000000E+01 0. -1.
          5    1    4    4  502    0 -0.17874293229E+02 -0.72138602844E+01 -0.31346638682E+02  0.37097599589E+02  0.47000000000E+01 0.  1.
         -5    1    4    4    0  502  0.46761443033E+02 -0.12023703189E+03  0.73663279500E+02  0.14863359357E+03  0.47000000000E+01 0.  1.
<mgrwt>
<rscale>  0 0.36613508E+03</rscale>
<asrwt>0</asrwt>
<pdfrwt beam="1">  1       21 0.30365785E-01 0.36613508E+03</pdfrwt>
<pdfrwt beam="2">  1       21 0.26122304E-01 0.36613508E+03</pdfrwt>
<totfact> 0.13822466E+05</totfact>
</mgrwt>
</event>
<event>
 8    1  0.9123825E-006  0.2817484E+03  0.7546771E-02  0.1094738E+00
         21   -1    0    0  504  503  0.00000000000E+00  0.00000000000E+00  0.26941552996E+02  0.26941552996E+02  0.00000000000E+00 0.  1.
         21   -1    0    0  503  504 -0.00000000000E+00 -0.00000000000E+00 -0.73661467131E+03  0.73661467131E+03  0.00000000000E+00 0.  1.
         25    2    1    2    0    0  0.47465030469E+02 -0.25814773347E+02 -0.45227847261E+03  0.47235714742E+03  0.12508447663E+03 0.  0.
         25    2    1    2    0    0 -0.47465030469E+02  0.25814773347E+02 -0.25739464570E+03  0.29119907688E+03  0.12500226838E+03 0.  0.
          5    1    3    3  501    0 -0.85257376405E+01 -0.11024732798E+02 -0.37689154778E+03  0.37717842161E+03  0.47000000000E+01 0.  1.
         -5    1    3    3    0  501  0.55990768109E+02 -0.14790040549E+02 -0.75386924829E+02  0.95178725817E+02  0.47000000000E+01 0.  1.
          5    1    4    4  502    0  0.25198539074E+02 -0.29275747007E+01 -0.17742613152E+03  0.17929210583E+03  0.47000000000E+01 0. -1.
         -5    1    4    4    0  502 -0.72663569543E+02  0.28742348048E+02 -0.79968514172E+02  0.11190697105E+03  0.47000000000E+01 0. -1.
<mgrwt>
<rscale>  0 0.28174842E+03</rscale>
<asrwt>0</asrwt>
<pdfrwt beam="1">  1       21 0.41448549E-02 0.28174842E+03</pdfrwt>
<pdfrwt beam="2">  1       21 0.11332532E+00 0.28174842E+03</pdfrwt>
<totfact> 0.21812676E+05</totfact>
</mgrwt>
</event>
<event>
 8    1  0.9123825E-006  0.4839667E+03  0.7546771E-02  0.1018051E+00
         21   -1    0    0  504  503  0.00000000000E+00  0.00000000000E+00  0.34503653882E+03  0.34503653882E+03  0.00000000000E+00 0.  1.
         21   -1    0    0  503  504 -0.00000000000E+00 -0.00000000000E+00 -0.16970939209E+03  0.16970939209E+03  0.00000000000E+00 0.  1.
         25    2    1    2    0    0 -0.86802150532E+02  0.17710870982E+03  0.15517272916E+03  0.28036990722E+03  0.12500640209E+03 0.  0.
         25    2    1    2    0    0  0.86802150532E+02 -0.17710870982E+03  0.20154417563E+02  0.23437602369E+03  0.12499524592E+03 0.  0.
          5    1    3    3  501    0 -0.10629941307E+03  0.11968720708E+03  0.14983865224E+03  0.21931325647E+03  0.47000000000E+01 0. -1.
         -5    1    3    3    0  501  0.19497262542E+02  0.57421502738E+02  0.53340769239E+01  0.61056650743E+02  0.47000000000E+01 0. -1.
          5    1    4    4  502    0 -0.24747860771E+02 -0.12256572688E+02  0.21428450955E+02  0.35269656889E+02  0.47000000000E+01 0. -1.
         -5    1    4    4    0  502  0.11155001130E+03 -0.16485213713E+03 -0.12740333917E+01  0.19910636680E+03  0.47000000000E+01 0. -1.
<mgrwt>
<rscale>  0 0.48396670E+03</rscale>
<asrwt>0</asrwt>
<pdfrwt beam="1">  1       21 0.53082544E-01 0.48396670E+03</pdfrwt>
<pdfrwt beam="2">  1       21 0.26109137E-01 0.48396670E+03</pdfrwt>
<totfact> 0.42708475E+04</totfact>
</mgrwt>
</event>
<event>
 8    1  0.9123825E-006  0.2853345E+03  0.7546771E-02  0.1092811E+00
         21   -1    0    0  504  503  0.00000000000E+00  0.00000000000E+00  0.36915517277E+02  0.36915517277E+02  0.00000000000E+00 0.  1.
         21   -1    0    0  503  504 -0.00000000000E+00 -0.00000000000E+00 -0.55136559531E+03  0.55136559531E+03  0.00000000000E+00 0.  1.
         25    2    1    2    0    0  0.30195906950E+02 -0.61742924462E+02 -0.24968145061E+03  0.28753924580E+03  0.12495603060E+03 0.  0.
         25    2    1    2    0    0 -0.30195906950E+02  0.61742924462E+02 -0.26476862742E+03  0.30074186678E+03  0.12497704929E+03 0.  0.
          5    1    3    3  501    0  0.53947503798E+02 -0.86775500795E+02 -0.14678122943E+03  0.17890539404E+03  0.47000000000E+01 0.  1.
         -5    1    3    3    0  501 -0.23751596848E+02  0.25032576333E+02 -0.10290022117E+03  0.10863385176E+03  0.47000000000E+01 0.  1.
          5    1    4    4  502    0 -0.34159609121E+02  0.92729482469E+02 -0.24302715527E+03  0.26239269047E+03  0.47000000000E+01 0. -1.
         -5    1    4    4    0  502  0.39637021711E+01 -0.30986558007E+02 -0.21741472151E+02  0.38349176305E+02  0.47000000000E+01 0. -1.
<mgrwt>
<rscale>  0 0.28533451E+03</rscale>
<asrwt>0</asrwt>
<pdfrwt beam="1">  1       21 0.56793106E-02 0.28533451E+03</pdfrwt>
<pdfrwt beam="2">  1       21 0.84825473E-01 0.28533451E+03</pdfrwt>
<totfact> 0.25420776E+05</totfact>
</mgrwt>
</event>
<event>
 8    1  0.9123825E-006  0.2637676E+03  0.7546771E-02  0.1104900E+00
         21   -1    0    0  504  503  0.00000000000E+00  0.00000000000E+00  0.13305479067E+03  0.13305479067E+03  0.00000000000E+00 0. -1.
         21   -1    0    0  503  504 -0.00000000000E+00 -0.00000000000E+00 -0.13072313950E+03  0.13072313950E+03  0.00000000000E+00 0. -1.
         25    2    1    2    0    0 -0.27012398205E+02 -0.42295406402E+01 -0.30724427327E+02  0.13162260401E+03  0.12503183907E+03 0.  0.
         25    2    1    2    0    0  0.27012398205E+02  0.42295406402E+01  0.33056078490E+02  0.13215532615E+03  0.12499906894E+03 0.  0.
          5    1    3    3  501    0  0.79997155645E+01  0.48509717217E+02  0.16970986512E+02  0.52223486065E+02  0.47000000000E+01 0. -1.
         -5    1    3    3    0  501 -0.35012113769E+02 -0.52739257857E+02 -0.47695413839E+02  0.79399117950E+02  0.47000000000E+01 0. -1.
          5    1    4    4  502    0 -0.34657990891E+02 -0.33204207083E+02  0.35396371789E+02  0.59822143363E+02  0.47000000000E+01 0. -1.
         -5    1    4    4    0  502  0.61670389096E+02  0.37433747724E+02 -0.23402932993E+01  0.72333182790E+02  0.47000000000E+01 0. -1.
<mgrwt>
<rscale>  0 0.26376762E+03</rscale>
<asrwt>0</asrwt>
<pdfrwt beam="1">  1       21 0.20469968E-01 0.26376762E+03</pdfrwt>
<pdfrwt beam="2">  1       21 0.20111252E-01 0.26376762E+03</pdfrwt>
<totfact> 0.49809737E+05</totfact>
</mgrwt>
</event>
<event>
 8    1  0.9123825E-006  0.4720654E+03  0.7546771E-02  0.1021339E+00
         21   -1    0    0  504  503  0.00000000000E+00  0.00000000000E+00  0.14272107579E+03  0.14272107579E+03  0.00000000000E+00 0.  1.
         21   -1    0    0  503  504 -0.00000000000E+00 -0.00000000000E+00 -0.39035189018E+03  0.39035189018E+03  0.00000000000E+00 0.  1.
         25    2    1    2    0    0 -0.56163461344E+02 -0.15385756614E+03  0.62123570435E+01  0.20613215747E+03  0.12500155165E+03 0.  0.
         25    2    1    2    0    0  0.56163461344E+02  0.15385756614E+03 -0.25384317144E+03  0.32694080850E+03  0.12500980572E+03 0.  0.
          5    1    3    3  501    0 -0.11000410162E+02 -0.30335950536E+02  0.56510885569E+02  0.65244533154E+02  0.47000000000E+01 0. -1.
         -5    1    3    3    0  501 -0.45163051182E+02 -0.12352161561E+03 -0.50298528526E+02  0.14088762432E+03  0.47000000000E+01 0. -1.
          5    1    4    4  502    0 -0.18511963850E+02 -0.68325142738E+01 -0.41128706627E+01  0.20697385390E+02  0.47000000000E+01 0. -1.
         -5    1    4    4    0  502  0.74675425194E+02  0.16069008042E+03 -0.24973030078E+03  0.30624342311E+03  0.47000000000E+01 0. -1.
<mgrwt>
<rscale>  0 0.47206543E+03</rscale>
<asrwt>0</asrwt>
<pdfrwt beam="1">  1       21 0.21957089E-01 0.47206543E+03</pdfrwt>
<pdfrwt beam="2">  1       21 0.60054136E-01 0.47206543E+03</pdfrwt>
<totfact> 0.45827206E+04</totfact>
</mgrwt>
</event>
<event>
 8    1  0.9123825E-006  0.2552353E+03  0.7546771E-02  0.1110040E+00
         21   -1    0    0  504  503  0.00000000000E+00  0.00000000000E+00  0.13430796479E+02  0.13430796479E+02  0.00000000000E+00 0.  1.
         21   -1    0    0  503  504 -0.00000000000E+00 -0.00000000000E+00 -0.12126060486E+04  0.12126060486E+04  0.00000000000E+00 0.  1.
         25    2    1    2    0    0 -0.94834243733E+01  0.23150689964E+02 -0.57105808374E+03  0.58511358394E+03  0.12499872533E+03 0.  0.
         25    2    1    2    0    0  0.94834243733E+01 -0.23150689964E+02 -0.62811716841E+03  0.64092326116E+03  0.12500223862E+03 0.  0.
          5    1    3    3  501    0 -0.29500088353E+02  0.66404089528E+02 -0.24611371083E+03  0.25665893122E+03  0.47000000000E+01 0.  1.
         -5    1    3    3    0  501  0.20016663979E+02 -0.43253399563E+02 -0.32494437291E+03  0.32845465272E+03  0.47000000000E+01 0.  1.
          5    1    4    4  502    0  0.25798598062E+02  0.13779229274E+02 -0.56547093779E+03  0.56624633006E+03  0.47000000000E+01 0.  1.
         -5    1    4    4    0  502 -0.16315173689E+02 -0.36929919238E+02 -0.62646230623E+02  0.74676931101E+02  0.47000000000E+01 0.  1.
<mgrwt>
<rscale>  0 0.25523530E+03</rscale>
<asrwt>0</asrwt>
<pdfrwt beam="1">  1       21 0.20662765E-02 0.25523530E+03</pdfrwt>
<pdfrwt beam="2">  1       21 0.18655476E+00 0.25523530E+03</pdfrwt>
<totfact> 0.18664727E+05</totfact>
</mgrwt>
</event>
<event>
 8    1  0.9123825E-006  0.3118511E+03  0.7546771E-02  0.1079462E+00
         21   -1    0    0  504  503  0.00000000000E+00  0.00000000000E+00  0.36244769629E+03  0.36244769629E+03  0.00000000000E+00 0.  1.
         21   -1    0    0  503  504 -0.00000000000E+00 -0.00000000000E+00 -0.67079399961E+02  0.67079399961E+02  0.00000000000E+00 0.  1.
         25    2    1    2    0    0  0.13880369810E+02 -0.88520536534E+02  0.11229403195E+03  0.19042584891E+03  0.12499401693E+03 0.  0.
         25    2    1    2    0    0 -0.13880369810E+02  0.88520536534E+02  0.18307426438E+03  0.23910124734E+03  0.12499868058E+03 0.  0.
          5    1    3    3  501    0 -0.14319321132E+02 -0.48803862143E+02 -0.15667099491E+02  0.53426659302E+02  0.47000000000E+01 0.  1.
         -5    1    3    3    0  501  0.28199690942E+02 -0.39716674392E+02  0.12796113144E+03  0.13699918961E+03  0.47000000000E+01 0.  1.
          5    1    4    4  502    0 -0.15834511511E+01 -0.26453563570E+02  0.60166013485E+01  0.27578756950E+02  0.47000000000E+01 0.  1.
         -5    1    4    4    0  502 -0.12296918659E+02  0.11497410010E+03  0.17705766304E+03  0.21152249039E+03  0.47000000000E+01 0.  1.
<mgrwt>
<rscale>  0 0.31185108E+03</rscale>
<asrwt>0</asrwt>
<pdfrwt beam="1">  1       21 0.55761183E-01 0.31185108E+03</pdfrwt>
<pdfrwt beam="2">  1       21 0.10319908E-01 0.31185108E+03</pdfrwt>
<totfact> 0.22546921E+05</totfact>
</mgrwt>
</event>
<event>
 8    1  0.9123825E-006  0.2748531E+03  0.7546771E-02  0.1098534E+00
         21   -1    0    0  504  503  0.00000000000E+00  0.00000000000E+00  0.36730204975E+03  0.36730204975E+03  0.00000000000E+00 0. -1.
         21   -1    0    0  503  504 -0.00000000000E+00 -0.00000000000E+00 -0.51418332200E+02  0.51418332200E+02  0.00000000000E+00 0. -1.
         25    2    1    2    0    0 -0.32824106018E+02  0.82602419172E+01  0.22800801725E+03  0.26221971737E+03  0.12500348280E+03 0.  0.
         25    2    1    2    0    0  0.32824106018E+02 -0.82602419172E+01  0.87875700295E+02  0.15650066458E+03  0.12499866311E+03 0.  0.
          5    1    3    3  501    0  0.15259563535E+01 -0.20751195125E+02  0.21375824686E+03  0.21481996821E+03  0.47000000000E+01 0.  1.
         -5    1    3    3    0  501 -0.34350062371E+02  0.29011437042E+02  0.14249770396E+02  0.47399749161E+02  0.47000000000E+01 0.  1.
          5    1    4    4  502    0  0.24106828118E+02 -0.47266873825E+02  0.10098720210E+03  0.11417443457E+03  0.47000000000E+01 0.  1.
         -5    1    4    4    0  502  0.87172778997E+01  0.39006631908E+02 -0.13111501802E+02  0.42326230003E+02  0.47000000000E+01 0.  1.
<mgrwt>
<rscale>  0 0.27485312E+03</rscale>
<asrwt>0</asrwt>
<pdfrwt beam="1">  1       21 0.56508006E-01 0.27485312E+03</pdfrwt>
<pdfrwt beam="2">  1       21 0.79105129E-02 0.27485312E+03</pdfrwt>
<totfact> 0.35361979E+05</totfact>
</mgrwt>
</event>
<event>
 8    1  0.9123825E-006  0.3622935E+03  0.7546771E-02  0.1057679E+00
         21   -1    0    0  504  503  0.00000000000E+00  0.00000000000E+00  0.17368056139E+04  0.17368056139E+04  0.00000000000E+00 0.  1.
         21   -1    0    0  503  504 -0.00000000000E+00 -0.00000000000E+00 -0.18893389727E+02  0.18893389727E+02  0.00000000000E+00 0.  1.
         25    2    1    2    0    0 -0.50837994845E+02 -0.12080888034E+03  0.87435068840E+03  0.89291266478E+03  0.12499845330E+03 0.  0.
         25    2    1    2    0    0  0.50837994845E+02  0.12080888034E+03  0.84356153579E+03  0.86278633887E+03  0.12499965832E+03 0.  0.
          5    1    3    3  501    0 -0.26349012057E+02  0.12730260403E+02  0.55963714391E+02  0.63327381872E+02  0.47000000000E+01 0.  1.
         -5    1    3    3    0  501 -0.24488982788E+02 -0.13353914074E+03  0.81838697401E+03  0.82958528291E+03  0.47000000000E+01 0.  1.
          5    1    4    4  502    0  0.43743163672E+02  0.11503556642E+03  0.84355897215E+03  0.85250247824E+03  0.47000000000E+01 0.  1.
         -5    1    4    4    0  502  0.70948311737E+01  0.57733139124E+01  0.25636459939E-02  0.10283860631E+02  0.47000000000E+01 0.  1.
<mgrwt>
<rscale>  0 0.36229350E+03</rscale>
<asrwt>0</asrwt>
<pdfrwt beam="1">  1       21 0.26720074E+00 0.36229350E+03</pdfrwt>
<pdfrwt beam="2">  1       21 0.29066767E-02 0.36229350E+03</pdfrwt>
<totfact> 0.31640946E+04</totfact>
</mgrwt>
</event>
<event>
 8    1  0.9123825E-006  0.3102996E+03  0.7546771E-02  0.1080202E+00
         21   -1    0    0  504  503  0.00000000000E+00  0.00000000000E+00  0.11775958473E+03  0.11775958473E+03  0.00000000000E+00 0.  1.
         21   -1    0    0  503  504 -0.00000000000E+00 -0.00000000000E+00 -0.20441187497E+03  0.20441187497E+03  0.00000000000E+00 0.  1.
         25    2    1    2    0    0  0.76725437126E+02 -0.26039275773E+02 -0.88353638287E+02  0.17318410584E+03  0.12498612935E+03 0.  0.
         25    2    1    2    0    0 -0.76725437126E+02  0.26039275773E+02  0.17013480433E+01  0.14898735386E+03  0.12501800047E+03 0.  0.
          5    1    3    3  501    0  0.56849380619E+02  0.30942041824E+02  0.14192243076E+01  0.64910447747E+02  0.47000000000E+01 0. -1.
         -5    1    3    3    0  501  0.19876056507E+02 -0.56981317597E+02 -0.89772862595E+02  0.10827365809E+03  0.47000000000E+01 0. -1.
          5    1    4    4  502    0 -0.31068971904E+02  0.73571329448E+01  0.62627261625E+02  0.70453334335E+02  0.47000000000E+01 0. -1.
         -5    1    4    4    0  502 -0.45656465222E+02  0.18682142828E+02 -0.60925913581E+02  0.78534019526E+02  0.47000000000E+01 0. -1.
<mgrwt>
<rscale>  0 0.31029958E+03</rscale>
<asrwt>0</asrwt>
<pdfrwt beam="1">  1       21 0.18116859E-01 0.31029958E+03</pdfrwt>
<pdfrwt beam="2">  1       21 0.31447980E-01 0.31029958E+03</pdfrwt>
<totfact> 0.26213416E+05</totfact>
</mgrwt>
</event>
<event>
 8    1  0.9123825E-006  0.3670430E+03  0.7546771E-02  0.1055829E+00
         21   -1    0    0  504  503  0.00000000000E+00  0.00000000000E+00  0.15437123215E+03  0.15437123215E+03  0.00000000000E+00 0. -1.
         21   -1    0    0  503  504 -0.00000000000E+00 -0.00000000000E+00 -0.21817630314E+03  0.21817630314E+03  0.00000000000E+00 0. -1.
         25    2    1    2    0    0 -0.85925970170E+02 -0.71581150053E+02  0.43694917012E+02  0.17332425339E+03  0.12499967059E+03 0.  0.
         25    2    1    2    0    0  0.85925970170E+02  0.71581150053E+02 -0.10749998800E+03  0.19922328191E+03  0.12500614081E+03 0.  0.
          5    1    3    3  501    0 -0.81268953447E+02 -0.13353600356E+02  0.70844745503E+02  0.10873835295E+03  0.47000000000E+01 0.  1.
         -5    1    3    3    0  501 -0.46570167230E+01 -0.58227549697E+02 -0.27149828491E+02  0.64585900440E+02  0.47000000000E+01 0.  1.
          5    1    4    4  502    0  0.95987493364E+02  0.29893506289E+02 -0.11772954756E+03  0.15488562545E+03  0.47000000000E+01 0. -1.
         -5    1    4    4    0  502 -0.10061523194E+02  0.41687643764E+02  0.10229559558E+02  0.44337656460E+02  0.47000000000E+01 0. -1.
<mgrwt>
<rscale>  0 0.36704302E+03</rscale>
<asrwt>0</asrwt>
<pdfrwt beam="1">  1       21 0.23749420E-01 0.36704302E+03</pdfrwt>
<pdfrwt beam="2">  1       21 0.33565585E-01 0.36704302E+03</pdfrwt>
<totfact> 0.13611402E+05</totfact>
</mgrwt>
</event>
<event>
 8    1  0.9123825E-006  0.2901585E+03  0.7546771E-02  0.1090266E+00
         21   -1    0    0  504  503  0.00000000000E+00  0.00000000000E+00  0.44978121387E+02  0.44978121387E+02  0.00000000000E+00 0.  1.
         21   -1    0    0  503  504 -0.00000000000E+00 -0.00000000000E+00 -0.46796063270E+03  0.46796063270E+03  0.00000000000E+00 0.  1.
         25    2    1    2    0    0  0.43426269156E+02 -0.47538677389E+02 -0.14856074001E+03  0.20458925205E+03  0.12506279176E+03 0.  0.
         25    2    1    2    0    0 -0.43426269156E+02  0.47538677389E+02 -0.27442177130E+03  0.30834950203E+03  0.12500536044E+03 0.  0.
          5    1    3    3  501    0 -0.37233632062E+02 -0.23812139091E+02 -0.15403498821E+02  0.47039548260E+02  0.47000000000E+01 0.  1.
         -5    1    3    3    0  501  0.80659901218E+02 -0.23726538298E+02 -0.13315724119E+03  0.15754970379E+03  0.47000000000E+01 0.  1.
          5    1    4    4  502    0 -0.96555967211E+01  0.87284475269E+02 -0.18165330140E+03  0.20182126270E+03  0.47000000000E+01 0.  1.
         -5    1    4    4    0  502 -0.33770672435E+02 -0.39745797881E+02 -0.92768469904E+02  0.10652823933E+03  0.47000000000E+01 0.  1.
<mgrwt>
<rscale>  0 0.29015851E+03</rscale>
<asrwt>0</asrwt>
<pdfrwt beam="1">  1       21 0.69197112E-02 0.29015851E+03</pdfrwt>
<pdfrwt beam="2">  1       21 0.71993941E-01 0.29015851E+03</pdfrwt>
<totfact> 0.26194228E+05</totfact>
</mgrwt>
</event>
<event>
 8    1  0.9123825E-006  0.3188218E+03  0.7546771E-02  0.1076193E+00
         21   -1    0    0  504  503  0.00000000000E+00  0.00000000000E+00  0.18630736006E+03  0.18630736006E+03  0.00000000000E+00 0.  1.
         21   -1    0    0  503  504 -0.00000000000E+00 -0.00000000000E+00 -0.13639739915E+03  0.13639739915E+03  0.00000000000E+00 0.  1.
         25    2    1    2    0    0  0.67038294246E+02  0.69928041409E+02  0.46588746254E+01  0.15821565819E+03  0.12500570192E+03 0.  0.
         25    2    1    2    0    0 -0.67038294246E+02 -0.69928041409E+02  0.45251086276E+02  0.16448910102E+03  0.12499975870E+03 0.  0.
          5    1    3    3  501    0  0.49948215983E+02  0.68425629656E+02 -0.51536384374E+02  0.99272251853E+02  0.47000000000E+01 0.  1.
         -5    1    3    3    0  501  0.17090078263E+02  0.15024117529E+01  0.56195258999E+02  0.58943406333E+02  0.47000000000E+01 0.  1.
          5    1    4    4  502    0  0.25901829720E+02 -0.33952354705E+02 -0.17757932443E+02  0.46487647150E+02  0.47000000000E+01 0. -1.
         -5    1    4    4    0  502 -0.92940123966E+02 -0.35975686704E+02  0.63009018718E+02  0.11800145387E+03  0.47000000000E+01 0. -1.
<mgrwt>
<rscale>  0 0.31882183E+03</rscale>
<asrwt>0</asrwt>
<pdfrwt beam="1">  1       21 0.28662671E-01 0.31882183E+03</pdfrwt>
<pdfrwt beam="2">  1       21 0.20984215E-01 0.31882183E+03</pdfrwt>
<totfact> 0.23821362E+05</totfact>
</mgrwt>
</event>
<event>
 8    1  0.9123825E-006  0.3063268E+03  0.7546771E-02  0.1082120E+00
         21   -1    0    0  504  503  0.00000000000E+00  0.00000000000E+00  0.85211803679E+03  0.85211803679E+03  0.00000000000E+00 0. -1.
         21   -1    0    0  503  504 -0.00000000000E+00 -0.00000000000E+00 -0.27530255486E+02  0.27530255486E+02  0.00000000000E+00 0. -1.
         25    2    1    2    0    0  0.27996055579E+02 -0.83712221960E+02  0.43076551422E+03  0.45713810342E+03  0.12499920849E+03 0.  0.
         25    2    1    2    0    0 -0.27996055579E+02  0.83712221960E+02  0.39382226709E+03  0.42251018886E+03  0.12500946526E+03 0.  0.
          5    1    3    3  501    0  0.57161346967E+01 -0.32141624311E+01  0.31068672175E+03  0.31079146402E+03  0.47000000000E+01 0. -1.
         -5    1    3    3    0  501  0.22279920883E+02 -0.80498059528E+02  0.12007879247E+03  0.14634663940E+03  0.47000000000E+01 0. -1.
          5    1    4    4  502    0  0.12368192197E+02 -0.20135971045E+02  0.17757752953E+03  0.17920462745E+03  0.47000000000E+01 0. -1.
         -5    1    4    4    0  502 -0.40364247777E+02  0.10384819300E+03  0.21624473757E+03  0.24330556141E+03  0.47000000000E+01 0. -1.
<mgrwt>
<rscale>  0 0.30632680E+03</rscale>
<asrwt>0</asrwt>
<pdfrwt beam="1">  1       21 0.13109506E+00 0.30632680E+03</pdfrwt>
<pdfrwt beam="2">  1       21 0.42354246E-02 0.30632680E+03</pdfrwt>
<totfact> 0.14475201E+05</totfact>
</mgrwt>
</event>
<event>
 8    1  0.9123825E-006  0.3570102E+03  0.7546771E-02  0.1059774E+00
         21   -1    0    0  504  503  0.00000000000E+00  0.00000000000E+00  0.62352540117E+02  0.62352540117E+02  0.00000000000E+00 0. -1.
         21   -1    0    0  503  504 -0.00000000000E+00 -0.00000000000E+00 -0.51103095455E+03  0.51103095455E+03  0.00000000000E+00 0. -1.
         25    2    1    2    0    0  0.10751994162E+03  0.39657537513E+02 -0.31385020904E+03  0.35673635203E+03  0.12500245204E+03 0.  0.
         25    2    1    2    0    0 -0.10751994162E+03 -0.39657537513E+02 -0.13482820539E+03  0.21664714264E+03  0.12499632522E+03 0.  0.
          5    1    3    3  501    0  0.20295583443E+02 -0.43321126826E+02 -0.10810843415E+03  0.11831379578E+03  0.47000000000E+01 0.  1.
         -5    1    3    3    0  501  0.87224358173E+02  0.82978664339E+02 -0.20574177489E+03  0.23842255625E+03  0.47000000000E+01 0.  1.
          5    1    4    4  502    0 -0.38707213027E+02  0.17508940818E+02 -0.11799166659E+03  0.12549475979E+03  0.47000000000E+01 0.  1.
         -5    1    4    4    0  502 -0.68812728589E+02 -0.57166478331E+02 -0.16836538798E+02  0.91152382850E+02  0.47000000000E+01 0.  1.
<mgrwt>
<rscale>  0 0.35701024E+03</rscale>
<asrwt>0</asrwt>
<pdfrwt beam="1">  1       21 0.95926982E-02 0.35701024E+03</pdfrwt>
<pdfrwt beam="2">  1       21 0.78620149E-01 0.35701024E+03</pdfrwt>
<totfact> 0.11884323E+05</totfact>
</mgrwt>
</event>
<event>
 8    1  0.9123825E-006  0.3064504E+03  0.7546771E-02  0.1082060E+00
         21   -1    0    0  504  503  0.00000000000E+00  0.00000000000E+00  0.26047227851E+03  0.26047227851E+03  0.00000000000E+00 0.  1.
         21   -1    0    0  503  504 -0.00000000000E+00 -0.00000000000E+00 -0.90136147176E+02  0.90136147176E+02  0.00000000000E+00 0.  1.
         25    2    1    2    0    0 -0.26032784662E+02 -0.69899845230E+02  0.30417301253E+02  0.14869758540E+03  0.12498826124E+03 0.  0.
         25    2    1    2    0    0  0.26032784662E+02  0.69899845230E+02  0.13991883008E+03  0.20191084028E+03  0.12500805643E+03 0.  0.
          5    1    3    3  501    0  0.31927678521E+02  0.19777791521E+02  0.10896353855E+01  0.37865749675E+02  0.47000000000E+01 0.  1.
         -5    1    3    3    0  501 -0.57960463183E+02 -0.89677636751E+02  0.29327665868E+02  0.11083183573E+03  0.47000000000E+01 0.  1.
          5    1    4    4  502    0 -0.46416107047E+01 -0.35163333833E+02  0.39575613500E+02  0.53350949196E+02  0.47000000000E+01 0. -1.
         -5    1    4    4    0  502  0.30674395367E+02  0.10506317906E+03  0.10034321658E+03  0.14855989108E+03  0.47000000000E+01 0. -1.
<mgrwt>
<rscale>  0 0.30645044E+03</rscale>
<asrwt>0</asrwt>
<pdfrwt beam="1">  1       21 0.40072658E-01 0.30645044E+03</pdfrwt>
<pdfrwt beam="2">  1       21 0.13867100E-01 0.30645044E+03</pdfrwt>
<totfact> 0.26414088E+05</totfact>
</mgrwt>
</event>
<event>
 8    1  0.9123825E-006  0.3289108E+03  0.7546771E-02  0.1071620E+00
         21   -1    0    0  504  503  0.00000000000E+00  0.00000000000E+00  0.28890948243E+03  0.28890948243E+03  0.00000000000E+00 0. -1.
         21   -1    0    0  503  504 -0.00000000000E+00 -0.00000000000E+00 -0.93612618614E+02  0.93612618614E+02  0.00000000000E+00 0. -1.
         25    2    1    2    0    0  0.64553936502E+01 -0.18186936390E+02 -0.24592019299E+02  0.12885191823E+03  0.12500245060E+03 0.  0.
         25    2    1    2    0    0 -0.64553936502E+01  0.18186936390E+02  0.21988888312E+03  0.25367018282E+03  0.12500001588E+03 0.  0.
          5    1    3    3  501    0  0.27586244603E+01 -0.71590062360E+02 -0.21836522242E+02  0.75044458431E+02  0.47000000000E+01 0. -1.
         -5    1    3    3    0  501  0.36967691899E+01  0.53403125971E+02 -0.27554970571E+01  0.53807459798E+02  0.47000000000E+01 0. -1.
          5    1    4    4  502    0  0.43959744297E+02  0.16653376652E+02  0.27370705265E+02  0.54598897235E+02  0.47000000000E+01 0. -1.
         -5    1    4    4    0  502 -0.50415137947E+02  0.15335597376E+01  0.19251817785E+03  0.19907128558E+03  0.47000000000E+01 0. -1.
<mgrwt>
<rscale>  0 0.32891077E+03</rscale>
<asrwt>0</asrwt>
<pdfrwt beam="1">  1       21 0.44447612E-01 0.32891077E+03</pdfrwt>
<pdfrwt beam="2">  1       21 0.14401941E-01 0.32891077E+03</pdfrwt>
<totfact> 0.19816586E+05</totfact>
</mgrwt>
</event>
<event>
 8    1  0.9123825E-006  0.2916793E+03  0.7546771E-02  0.1089476E+00
         21   -1    0    0  504  503  0.00000000000E+00  0.00000000000E+00  0.31426618446E+03  0.31426618446E+03  0.00000000000E+00 0.  1.
         21   -1    0    0  503  504 -0.00000000000E+00 -0.00000000000E+00 -0.67678958507E+02  0.67678958507E+02  0.00000000000E+00 0.  1.
         25    2    1    2    0    0 -0.54370613117E+02 -0.84720876211E+01  0.56321028760E+02  0.14773530376E+03  0.12500288740E+03 0.  0.
         25    2    1    2    0    0  0.54370613117E+02  0.84720876211E+01  0.19026619719E+03  0.23420983920E+03  0.12500033259E+03 0.  0.
          5    1    3    3  501    0 -0.44014299362E+02 -0.61080790881E+02  0.55936305661E+02  0.93909966745E+02  0.47000000000E+01 0.  1.
         -5    1    3    3    0  501 -0.10356313754E+02  0.52608703260E+02  0.38472309927E+00  0.53825337018E+02  0.47000000000E+01 0.  1.
          5    1    4    4  502    0  0.28524193144E+02 -0.57660081092E+02  0.77003049687E+02  0.10044836588E+03  0.47000000000E+01 0. -1.
         -5    1    4    4    0  502  0.25846419972E+02  0.66132168713E+02  0.11326314750E+03  0.13376147332E+03  0.47000000000E+01 0. -1.
<mgrwt>
<rscale>  0 0.29167933E+03</rscale>
<asrwt>0</asrwt>
<pdfrwt beam="1">  1       21 0.48348643E-01 0.29167933E+03</pdfrwt>
<pdfrwt beam="2">  1       21 0.10412148E-01 0.29167933E+03</pdfrwt>
<totfact> 0.30152918E+05</totfact>
</mgrwt>
</event>
<event>
 8    1  0.9123825E-006  0.2544415E+03  0.7546771E-02  0.1110530E+00
         21   -1    0    0  504  503  0.00000000000E+00  0.00000000000E+00  0.34672589682E+02  0.34672589682E+02  0.00000000000E+00 0. -1.
         21   -1    0    0  503  504 -0.00000000000E+00 -0.00000000000E+00 -0.46679862908E+03  0.46679862908E+03  0.00000000000E+00 0. -1.
         25    2    1    2    0    0  0.39059758588E+01  0.56812693152E+01 -0.17162206039E+03  0.21245391819E+03  0.12504000269E+03 0.  0.
         25    2    1    2    0    0 -0.39059758588E+01 -0.56812693152E+01 -0.26050397901E+03  0.28901730058E+03  0.12498457299E+03 0.  0.
          5    1    3    3  501    0 -0.25600695157E+02 -0.44879625502E+02 -0.31932853942E+02  0.60921043479E+02  0.47000000000E+01 0. -1.
         -5    1    3    3    0  501  0.29506671016E+02  0.50560894817E+02 -0.13968920645E+03  0.15153287471E+03  0.47000000000E+01 0. -1.
          5    1    4    4  502    0 -0.13111722267E+02  0.50129026125E+02 -0.54541663723E+02  0.75377182242E+02  0.47000000000E+01 0. -1.
         -5    1    4    4    0  502  0.92057464085E+01 -0.55810295440E+02 -0.20596231529E+03  0.21364011834E+03  0.47000000000E+01 0. -1.
<mgrwt>
<rscale>  0 0.25444149E+03</rscale>
<asrwt>0</asrwt>
<pdfrwt beam="1">  1       21 0.53342448E-02 0.25444149E+03</pdfrwt>
<pdfrwt beam="2">  1       21 0.71815171E-01 0.25444149E+03</pdfrwt>
<totfact> 0.41595976E+05</totfact>
</mgrwt>
</event>
<event>
 8    1  0.9123825E-006  0.3739145E+03  0.7546771E-02  0.1053206E+00
         21   -1    0    0  504  503  0.00000000000E+00  0.00000000000E+00  0.66716745280E+02  0.66716745280E+02  0.00000000000E+00 0.  1.
         21   -1    0    0  503  504 -0.00000000000E+00 -0.00000000000E+00 -0.52390153652E+03  0.52390153652E+03  0.00000000000E+00 0.  1.
         25    2    1    2    0    0 -0.45729205600E+02  0.64945522350E+01 -0.21471446721E+02  0.13498243052E+03  0.12500357623E+03 0.  0.
         25    2    1    2    0    0  0.45729205600E+02 -0.64945522350E+01 -0.43571334452E+03  0.45563585128E+03  0.12499828370E+03 0.  0.
          5    1    3    3  501    0 -0.49575016612E+02  0.57536730339E+02 -0.31939749459E+02  0.82525118635E+02  0.47000000000E+01 0.  1.
         -5    1    3    3    0  501  0.38458110120E+01 -0.51042178104E+02  0.10468302738E+02  0.52457311885E+02  0.47000000000E+01 0.  1.
          5    1    4    4  502    0 -0.22400874799E+02  0.39993835589E+02 -0.10332282588E+03  0.11313267620E+03  0.47000000000E+01 0. -1.
         -5    1    4    4    0  502  0.68130080399E+02 -0.46488387824E+02 -0.33239051863E+03  0.34250317507E+03  0.47000000000E+01 0. -1.
<mgrwt>
<rscale>  0 0.37391446E+03</rscale>
<asrwt>0</asrwt>
<pdfrwt beam="1">  1       21 0.10264115E-01 0.37391446E+03</pdfrwt>
<pdfrwt beam="2">  1       21 0.80600237E-01 0.37391446E+03</pdfrwt>
<totfact> 0.99053797E+04</totfact>
</mgrwt>
</event>
<event>
 8    1  0.9123825E-006  0.2836486E+03  0.7546771E-02  0.1093713E+00
         21   -1    0    0  504  503  0.00000000000E+00  0.00000000000E+00  0.64568204668E+02  0.64568204668E+02  0.00000000000E+00 0.  1.
         21   -1    0    0  503  504 -0.00000000000E+00 -0.00000000000E+00 -0.31151766296E+03  0.31151766296E+03  0.00000000000E+00 0.  1.
         25    2    1    2    0    0 -0.26294092825E+02  0.58084725589E+02 -0.96159963171E+02  0.17010631529E+03  0.12499682124E+03 0.  0.
         25    2    1    2    0    0  0.26294092825E+02 -0.58084725589E+02 -0.15078949512E+03  0.20597955234E+03  0.12499955792E+03 0.  0.
          5    1    3    3  501    0  0.66139198213E+01  0.74481213247E+02 -0.90851075432E+01  0.75470684648E+02  0.47000000000E+01 0. -1.
         -5    1    3    3    0  501 -0.32908012646E+02 -0.16396487658E+02 -0.87074855628E+02  0.94635630639E+02  0.47000000000E+01 0. -1.
          5    1    4    4  502    0  0.37786425247E+02 -0.75121651286E+02 -0.16164328759E+03  0.18226826067E+03  0.47000000000E+01 0. -1.
         -5    1    4    4    0  502 -0.11492332422E+02  0.17036925697E+02  0.10853792470E+02  0.23711291671E+02  0.47000000000E+01 0. -1.
<mgrwt>
<rscale>  0 0.28364863E+03</rscale>
<asrwt>0</asrwt>
<pdfrwt beam="1">  1       21 0.99335697E-02 0.28364863E+03</pdfrwt>
<pdfrwt beam="2">  1       21 0.47925796E-01 0.28364863E+03</pdfrwt>
<totfact> 0.33456820E+05</totfact>
</mgrwt>
</event>
<event>
 8    1  0.9123825E-006  0.4592246E+03  0.7546771E-02  0.1025006E+00
         21   -1    0    0  504  503  0.00000000000E+00  0.00000000000E+00  0.53809560378E+03  0.53809560378E+03  0.00000000000E+00 0. -1.
         21   -1    0    0  503  504 -0.00000000000E+00 -0.00000000000E+00 -0.97978514540E+02  0.97978514540E+02  0.00000000000E+00 0. -1.
         25    2    1    2    0    0 -0.18658450907E+02  0.18435911278E+03  0.14724689170E+03  0.26765320241E+03  0.12498067607E+03 0.  0.
         25    2    1    2    0    0  0.18658450907E+02 -0.18435911278E+03  0.29287019755E+03  0.36842091591E+03  0.12499839365E+03 0.  0.
          5    1    3    3  501    0 -0.63222273739E+02  0.16087247524E+03  0.11451424918E+03  0.20739482262E+03  0.47000000000E+01 0. -1.
         -5    1    3    3    0  501  0.44563822833E+02  0.23486637542E+02  0.32732642517E+02  0.60258379788E+02  0.47000000000E+01 0. -1.
          5    1    4    4  502    0 -0.39316437268E+02 -0.10161247657E+03  0.88706629897E+02  0.14057678977E+03  0.47000000000E+01 0.  1.
         -5    1    4    4    0  502  0.57974888175E+02 -0.82746636214E+02  0.20416356765E+03  0.22784412615E+03  0.47000000000E+01 0.  1.
<mgrwt>
<rscale>  0 0.45922460E+03</rscale>
<asrwt>0</asrwt>
<pdfrwt beam="1">  1       21 0.82783938E-01 0.45922460E+03</pdfrwt>
<pdfrwt beam="2">  1       21 0.15073618E-01 0.45922460E+03</pdfrwt>
<totfact> 0.45289540E+04</totfact>
</mgrwt>
</event>
<event>
 8    1  0.9123825E-006  0.2609535E+03  0.7546771E-02  0.1106572E+00
         21   -1    0    0  504  503  0.00000000000E+00  0.00000000000E+00  0.23475632380E+02  0.23475632380E+02  0.00000000000E+00 0. -1.
         21   -1    0    0  503  504 -0.00000000000E+00 -0.00000000000E+00 -0.72518520114E+03  0.72518520114E+03  0.00000000000E+00 0. -1.
         25    2    1    2    0    0 -0.39869994584E+01 -0.19384619833E+02 -0.44190624155E+03  0.45967103523E+03  0.12499869864E+03 0.  0.
         25    2    1    2    0    0  0.39869994584E+01  0.19384619833E+02 -0.25980332721E+03  0.28898979829E+03  0.12500270010E+03 0.  0.
          5    1    3    3  501    0 -0.20120948174E+02  0.43155782153E+02 -0.90725878525E+02  0.10256972810E+03  0.47000000000E+01 0. -1.
         -5    1    3    3    0  501  0.16133948715E+02 -0.62540401986E+02 -0.35118036302E+03  0.35710130713E+03  0.47000000000E+01 0. -1.
          5    1    4    4  502    0 -0.37059481529E+02 -0.37295144155E+02 -0.78550113723E+02  0.94639015816E+02  0.47000000000E+01 0. -1.
         -5    1    4    4    0  502  0.41046480987E+02  0.56679763988E+02 -0.18125321349E+03  0.19435078247E+03  0.47000000000E+01 0. -1.
<mgrwt>
<rscale>  0 0.26095349E+03</rscale>
<asrwt>0</asrwt>
<pdfrwt beam="1">  1       21 0.36116357E-02 0.26095349E+03</pdfrwt>
<pdfrwt beam="2">  1       21 0.11156695E+00 0.26095349E+03</pdfrwt>
<totfact> 0.28748493E+05</totfact>
</mgrwt>
</event>
<event>
 8    1  0.9123825E-006  0.3258403E+03  0.7546771E-02  0.1072992E+00
         21   -1    0    0  504  503  0.00000000000E+00  0.00000000000E+00  0.17786503993E+02  0.17786503993E+02  0.00000000000E+00 0.  1.
         21   -1    0    0  503  504 -0.00000000000E+00 -0.00000000000E+00 -0.14923097832E+04  0.14923097832E+04  0.00000000000E+00 0.  1.
         25    2    1    2    0    0  0.10105997270E+03 -0.14848097736E+02 -0.63521133360E+03  0.65540213243E+03  0.12499973107E+03 0.  0.
         25    2    1    2    0    0 -0.10105997270E+03  0.14848097736E+02 -0.83931194562E+03  0.85469415478E+03  0.12499588820E+03 0.  0.
          5    1    3    3  501    0  0.81738889470E+02  0.45492399273E+02 -0.30211541273E+03  0.31630146546E+03  0.47000000000E+01 0. -1.
         -5    1    3    3    0  501  0.19321083230E+02 -0.60340497010E+02 -0.33309592087E+03  0.33910066696E+03  0.47000000000E+01 0. -1.
          5    1    4    4  502    0 -0.39050877994E+02  0.28628178144E+02 -0.86895363444E+02  0.99586333621E+02  0.47000000000E+01 0.  1.
         -5    1    4    4    0  502 -0.62009094706E+02 -0.13780080408E+02 -0.75241658218E+03  0.75510782116E+03  0.47000000000E+01 0.  1.
<mgrwt>
<rscale>  0 0.32584029E+03</rscale>
<asrwt>0</asrwt>
<pdfrwt beam="1">  1       21 0.27363837E-02 0.32584029E+03</pdfrwt>
<pdfrwt beam="2">  1       21 0.22958625E+00 0.32584029E+03</pdfrwt>
<totfact> 0.60227169E+04</totfact>
</mgrwt>
</event>
<event>
 8    1  0.9123825E-006  0.2649493E+03  0.7546771E-02  0.1104206E+00
         21   -1    0    0  504  503  0.00000000000E+00  0.00000000000E+00  0.85724525393E+01  0.85724525393E+01  0.00000000000E+00 0.  1.
         21   -1    0    0  503  504 -0.00000000000E+00 -0.00000000000E+00 -0.20472003636E+04  0.20472003636E+04  0.00000000000E+00 0.  1.
         25    2    1    2    0    0 -0.19882933301E+02 -0.39102229007E+02 -0.10221473344E+04  0.10306960241E+04  0.12499922248E+03 0.  0.
         25    2    1    2    0    0  0.19882933301E+02  0.39102229007E+02 -0.10164805767E+04  0.10250767921E+04  0.12500140561E+03 0.  0.
          5    1    3    3  501    0  0.25223973731E+02 -0.68361801358E+02 -0.72673447152E+03  0.73039350137E+03  0.47000000000E+01 0.  1.
         -5    1    3    3    0  501 -0.45106907032E+02  0.29259572351E+02 -0.29541286285E+03  0.30030252275E+03  0.47000000000E+01 0.  1.
          5    1    4    4  502    0  0.36382364637E+02 -0.17529578135E+02 -0.78832082203E+03  0.78936859008E+03  0.47000000000E+01 0.  1.
         -5    1    4    4    0  502 -0.16499431336E+02  0.56631807142E+02 -0.22815975471E+03  0.23570820198E+03  0.47000000000E+01 0.  1.
<mgrwt>
<rscale>  0 0.26494926E+03</rscale>
<asrwt>0</asrwt>
<pdfrwt beam="1">  1       21 0.13188388E-02 0.26494926E+03</pdfrwt>
<pdfrwt beam="2">  1       21 0.31495391E+00 0.26494926E+03</pdfrwt>
<totfact> 0.63797443E+04</totfact>
</mgrwt>
</event>
<event>
 8    1  0.9123825E-006  0.2566249E+03  0.7546771E-02  0.1109188E+00
         21   -1    0    0  504  503  0.00000000000E+00  0.00000000000E+00  0.28290350925E+02  0.28290350925E+02  0.00000000000E+00 0. -1.
         21   -1    0    0  503  504 -0.00000000000E+00 -0.00000000000E+00 -0.58196837164E+03  0.58196837164E+03  0.00000000000E+00 0. -1.
         25    2    1    2    0    0 -0.49000788530E+01 -0.71436838480E+00 -0.34472417746E+03  0.36671949181E+03  0.12499562415E+03 0.  0.
         25    2    1    2    0    0  0.49000788530E+01  0.71436838480E+00 -0.20895384326E+03  0.24353923075E+03  0.12500050884E+03 0.  0.
          5    1    3    3  501    0  0.39830030310E+02  0.60475198744E+01 -0.30069219218E+03  0.30341537247E+03  0.47000000000E+01 0.  1.
         -5    1    3    3    0  501 -0.44730109163E+02 -0.67618882592E+01 -0.44031985279E+02  0.63304119346E+02  0.47000000000E+01 0.  1.
          5    1    4    4  502    0  0.32662986644E+02 -0.51304369432E+02 -0.13986181823E+03  0.15258580281E+03  0.47000000000E+01 0. -1.
         -5    1    4    4    0  502 -0.27762907791E+02  0.52018737817E+02 -0.69092025021E+02  0.90953427943E+02  0.47000000000E+01 0. -1.
<mgrwt>
<rscale>  0 0.25662494E+03</rscale>
<asrwt>0</asrwt>
<pdfrwt beam="1">  1       21 0.43523620E-02 0.25662494E+03</pdfrwt>
<pdfrwt beam="2">  1       21 0.89533588E-01 0.25662494E+03</pdfrwt>
<totfact> 0.35561150E+05</totfact>
</mgrwt>
</event>
<event>
 8    1  0.9123825E-006  0.3183945E+03  0.7546771E-02  0.1076391E+00
         21   -1    0    0  504  503  0.00000000000E+00  0.00000000000E+00  0.59577383519E+02  0.59577383519E+02  0.00000000000E+00 0. -1.
         21   -1    0    0  503  504 -0.00000000000E+00 -0.00000000000E+00 -0.42539229783E+03  0.42539229783E+03  0.00000000000E+00 0. -1.
         25    2    1    2    0    0  0.41969779244E+02  0.30001896788E+02 -0.31085344754E+03  0.33899270904E+03  0.12499845901E+03 0.  0.
         25    2    1    2    0    0 -0.41969779244E+02 -0.30001896788E+02 -0.54961466768E+02  0.14597697231E+03  0.12500774949E+03 0.  0.
          5    1    3    3  501    0  0.67257850670E+02  0.53316867861E+01 -0.28982511802E+03  0.29761171751E+03  0.47000000000E+01 0.  1.
         -5    1    3    3    0  501 -0.25288071426E+02  0.24670210002E+02 -0.21028329518E+02  0.41380991534E+02  0.47000000000E+01 0.  1.
          5    1    4    4  502    0 -0.73618141183E+02 -0.36182866955E+02 -0.96388457195E-01  0.82164042397E+02  0.47000000000E+01 0. -1.
         -5    1    4    4    0  502  0.31648361939E+02  0.61809701668E+01 -0.54865078310E+02  0.63812929909E+02  0.47000000000E+01 0. -1.
<mgrwt>
<rscale>  0 0.31839447E+03</rscale>
<asrwt>0</asrwt>
<pdfrwt beam="1">  1       21 0.91657513E-02 0.31839447E+03</pdfrwt>
<pdfrwt beam="2">  1       21 0.65444969E-01 0.31839447E+03</pdfrwt>
<totfact> 0.19631700E+05</totfact>
</mgrwt>
</event>
<event>
 8    1  0.9123825E-006  0.7715389E+03  0.7546771E-02  0.9602152E-01
         21   -1    0    0  504  503  0.00000000000E+00  0.00000000000E+00  0.24226536671E+03  0.24226536671E+03  0.00000000000E+00 0. -1.
         21   -1    0    0  503  504 -0.00000000000E+00 -0.00000000000E+00 -0.61427706537E+03  0.61427706537E+03  0.00000000000E+00 0. -1.
         25    2    1    2    0    0  0.21212357191E+03 -0.14374555150E+02  0.14330576820E+03  0.28524595386E+03  0.12500269357E+03 0.  0.
         25    2    1    2    0    0 -0.21212357191E+03  0.14374555150E+02 -0.51531746686E+03  0.57129647821E+03  0.12499814708E+03 0.  0.
          5    1    3    3  501    0  0.21003622064E+03 -0.70829765718E+01  0.85787254446E+02  0.22703948019E+03  0.47000000000E+01 0.  1.
         -5    1    3    3    0  501  0.20873512731E+01 -0.72915785782E+01  0.57518513752E+02  0.58206473676E+02  0.47000000000E+01 0.  1.
          5    1    4    4  502    0 -0.21032338043E+01  0.22860377068E+02 -0.13239681139E+03  0.13445455031E+03  0.47000000000E+01 0.  1.
         -5    1    4    4    0  502 -0.21002033811E+03 -0.84858219179E+01 -0.38292065547E+03  0.43684192790E+03  0.47000000000E+01 0.  1.
<mgrwt>
<rscale>  0 0.77153887E+03</rscale>
<asrwt>0</asrwt>
<pdfrwt beam="1">  1       21 0.37271596E-01 0.77153887E+03</pdfrwt>
<pdfrwt beam="2">  1       21 0.94504162E-01 0.77153887E+03</pdfrwt>
<totfact> 0.53060143E+03</totfact>
</mgrwt>
</event>
<event>
 8    1  0.9123825E-006  0.2946804E+03  0.7546771E-02  0.1087930E+00
         21   -1    0    0  504  503  0.00000000000E+00  0.00000000000E+00  0.36701775326E+02  0.36701775326E+02  0.00000000000E+00 0. -1.
         21   -1    0    0  503  504 -0.00000000000E+00 -0.00000000000E+00 -0.59150088524E+03  0.59150088524E+03  0.00000000000E+00 0. -1.
         25    2    1    2    0    0 -0.18738188429E+02 -0.75687007180E+02 -0.27170962491E+03  0.30908135336E+03  0.12500207983E+03 0.  0.
         25    2    1    2    0    0  0.18738188429E+02  0.75687007180E+02 -0.28308948501E+03  0.31912130721E+03  0.12497643551E+03 0.  0.
          5    1    3    3  501    0 -0.56638563823E+02 -0.89917495116E+02 -0.18910767869E+03  0.21697208802E+03  0.47000000000E+01 0.  1.
         -5    1    3    3    0  501  0.37900375394E+02  0.14230487936E+02 -0.82601946215E+02  0.92109265334E+02  0.47000000000E+01 0.  1.
          5    1    4    4  502    0  0.60279673825E+02 -0.42275813944E+00 -0.11748731732E+03  0.13213318104E+03  0.47000000000E+01 0.  1.
         -5    1    4    4    0  502 -0.41541485396E+02  0.76109765320E+02 -0.16560216769E+03  0.18698812617E+03  0.47000000000E+01 0.  1.
<mgrwt>
<rscale>  0 0.29468039E+03</rscale>
<asrwt>0</asrwt>
<pdfrwt beam="1">  1       21 0.56464274E-02 0.29468039E+03</pdfrwt>
<pdfrwt beam="2">  1       21 0.91000130E-01 0.29468039E+03</pdfrwt>
<totfact> 0.21751271E+05</totfact>
</mgrwt>
</event>
<event>
 8    1  0.9123825E-006  0.2649866E+03  0.7546771E-02  0.1104184E+00
         21   -1    0    0  504  503  0.00000000000E+00  0.00000000000E+00  0.44536737599E+03  0.44536737599E+03  0.00000000000E+00 0. -1.
         21   -1    0    0  503  504 -0.00000000000E+00 -0.00000000000E+00 -0.39415730162E+02  0.39415730162E+02  0.00000000000E+00 0. -1.
         25    2    1    2    0    0 -0.24004904397E+02 -0.35687725563E+02  0.21932803792E+03  0.25608428313E+03  0.12499809061E+03 0.  0.
         25    2    1    2    0    0  0.24004904397E+02  0.35687725563E+02  0.18662360791E+03  0.22869882302E+03  0.12499972573E+03 0.  0.
          5    1    3    3  501    0 -0.71039482695E+01  0.46740834863E+02  0.69632952139E+02  0.84297151484E+02  0.47000000000E+01 0. -1.
         -5    1    3    3    0  501 -0.16900956127E+02 -0.82428560426E+02  0.14969508578E+03  0.17178713164E+03  0.47000000000E+01 0. -1.
          5    1    4    4  502    0  0.41345962415E+02  0.10335843479E+02  0.35681688486E+01  0.43024877657E+02  0.47000000000E+01 0.  1.
         -5    1    4    4    0  502 -0.17341058018E+02  0.25351882085E+02  0.18305543906E+03  0.18567394537E+03  0.47000000000E+01 0.  1.
<mgrwt>
<rscale>  0 0.26498664E+03</rscale>
<asrwt>0</asrwt>
<pdfrwt beam="1">  1       21 0.68518054E-01 0.26498664E+03</pdfrwt>
<pdfrwt beam="2">  1       21 0.60639588E-02 0.26498664E+03</pdfrwt>
<totfact> 0.36966216E+05</totfact>
</mgrwt>
</event>
<event>
 8    1  0.9123825E-006  0.3364608E+03  0.7546771E-02  0.1068313E+00
         21   -1    0    0  504  503  0.00000000000E+00  0.00000000000E+00  0.80016065876E+02  0.80016065876E+02  0.00000000000E+00 0. -1.
         21   -1    0    0  503  504 -0.00000000000E+00 -0.00000000000E+00 -0.35369734865E+03  0.35369734865E+03  0.00000000000E+00 0. -1.
         25    2    1    2    0    0  0.70459209263E+02  0.46744718415E+02 -0.23265670724E+03  0.27731346487E+03  0.12499618197E+03 0.  0.
         25    2    1    2    0    0 -0.70459209263E+02 -0.46744718415E+02 -0.41024575534E+02  0.15639994965E+03  0.12501343762E+03 0.  0.
          5    1    3    3  501    0  0.60664627086E+02 -0.32890880014E+02 -0.12635081752E+03  0.14404383380E+03  0.47000000000E+01 0. -1.
         -5    1    3    3    0  501  0.97945821779E+01  0.79635598428E+02 -0.10630588972E+03  0.13326963107E+03  0.47000000000E+01 0. -1.
          5    1    4    4  502    0 -0.49556369135E+02  0.36704587590E+02 -0.32381008278E+02  0.69811748074E+02  0.47000000000E+01 0.  1.
         -5    1    4    4    0  502 -0.20902840129E+02 -0.83449306004E+02 -0.86435672555E+01  0.86588201581E+02  0.47000000000E+01 0.  1.
<mgrwt>
<rscale>  0 0.33646082E+03</rscale>
<asrwt>0</asrwt>
<pdfrwt beam="1">  1       21 0.12310164E-01 0.33646082E+03</pdfrwt>
<pdfrwt beam="2">  1       21 0.54414977E-01 0.33646082E+03</pdfrwt>
<totfact> 0.17201245E+05</totfact>
</mgrwt>
</event>
<event>
 8    1  0.9123825E-006  0.2640263E+03  0.7546771E-02  0.1104748E+00
         21   -1    0    0  504  503  0.00000000000E+00  0.00000000000E+00  0.18280987353E+04  0.18280987353E+04  0.00000000000E+00 0. -1.
         21   -1    0    0  503  504 -0.00000000000E+00 -0.00000000000E+00 -0.95331141018E+01  0.95331141018E+01  0.00000000000E+00 0. -1.
         25    2    1    2    0    0  0.18469743308E+02  0.37502102417E+02  0.85749989161E+03  0.86756985909E+03  0.12499542871E+03 0.  0.
         25    2    1    2    0    0 -0.18469743308E+02 -0.37502102417E+02  0.96106572960E+03  0.97006199031E+03  0.12500155736E+03 0.  0.
          5    1    3    3  501    0 -0.15904050766E+01 -0.44459895542E+02  0.38286369370E+03  0.38546842886E+03  0.47000000000E+01 0.  1.
         -5    1    3    3    0  501  0.20060148384E+02  0.81961997960E+02  0.47463619791E+03  0.48210143023E+03  0.47000000000E+01 0.  1.
          5    1    4    4  502    0 -0.54607816017E+02  0.56757837219E+01  0.21818029242E+03  0.22503101584E+03  0.47000000000E+01 0.  1.
         -5    1    4    4    0  502  0.36138072709E+02 -0.43177886139E+02  0.74288543718E+03  0.74503097447E+03  0.47000000000E+01 0.  1.
<mgrwt>
<rscale>  0 0.26402632E+03</rscale>
<asrwt>0</asrwt>
<pdfrwt beam="1">  1       21 0.28124568E+00 0.26402632E+03</pdfrwt>
<pdfrwt beam="2">  1       21 0.14666344E-02 0.26402632E+03</pdfrwt>
<totfact> 0.84733337E+04</totfact>
</mgrwt>
</event>
<event>
 8    1  0.9123825E-006  0.4180717E+03  0.7546771E-02  0.1037696E+00
         21   -1    0    0  504  503  0.00000000000E+00  0.00000000000E+00  0.36349903332E+02  0.36349903332E+02  0.00000000000E+00 0.  1.
         21   -1    0    0  503  504 -0.00000000000E+00 -0.00000000000E+00 -0.12020933473E+04  0.12020933473E+04  0.00000000000E+00 0.  1.
         25    2    1    2    0    0 -0.11850220344E+03 -0.11475207235E+03 -0.66978152608E+03  0.70103012103E+03  0.12500051034E+03 0.  0.
         25    2    1    2    0    0  0.11850220344E+03  0.11475207235E+03 -0.49596191792E+03  0.53741312964E+03  0.12499535010E+03 0.  0.
          5    1    3    3  501    0 -0.12761717418E+03 -0.50852636835E+02 -0.52008880882E+03  0.53794664501E+03  0.47000000000E+01 0. -1.
         -5    1    3    3    0  501  0.91149707373E+01 -0.63899435513E+02 -0.14969271727E+03  0.16308347603E+03  0.47000000000E+01 0. -1.
          5    1    4    4  502    0  0.11286133300E+03  0.13813196035E+03 -0.46407106089E+03  0.49719428649E+03  0.47000000000E+01 0.  1.
         -5    1    4    4    0  502  0.56408704357E+01 -0.23379888000E+02 -0.31890857031E+02  0.40218843150E+02  0.47000000000E+01 0.  1.
<mgrwt>
<rscale>  0 0.41807165E+03</rscale>
<asrwt>0</asrwt>
<pdfrwt beam="1">  1       21 0.55922929E-02 0.41807165E+03</pdfrwt>
<pdfrwt beam="2">  1       21 0.18493744E+00 0.41807165E+03</pdfrwt>
<totfact> 0.33820359E+04</totfact>
</mgrwt>
</event>
<event>
 8    1  0.9123825E-006  0.2991427E+03  0.7546771E-02  0.1085670E+00
         21   -1    0    0  504  503  0.00000000000E+00  0.00000000000E+00  0.83055926659E+03  0.83055926659E+03  0.00000000000E+00 0. -1.
         21   -1    0    0  503  504 -0.00000000000E+00 -0.00000000000E+00 -0.26935579786E+02  0.26935579786E+02  0.00000000000E+00 0. -1.
         25    2    1    2    0    0  0.47707113415E+02 -0.47547906745E+02  0.26704271407E+03  0.30244440005E+03  0.12499612747E+03 0.  0.
         25    2    1    2    0    0 -0.47707113415E+02  0.47547906745E+02  0.53658097274E+03  0.55505044632E+03  0.12500034220E+03 0.  0.
          5    1    3    3  501    0 -0.15991285259E+02 -0.14066429226E+02 -0.38235112625E+01  0.22142603139E+02  0.47000000000E+01 0. -1.
         -5    1    3    3    0  501  0.63698398674E+02 -0.33481477519E+02  0.27086622533E+03  0.28030179692E+03  0.47000000000E+01 0. -1.
          5    1    4    4  502    0 -0.22245193053E+02  0.42165431654E+02  0.55799268090E+02  0.73541964618E+02  0.47000000000E+01 0. -1.
         -5    1    4    4    0  502 -0.25461920361E+02  0.53824750913E+01  0.48078170465E+03  0.48150848171E+03  0.47000000000E+01 0. -1.
<mgrwt>
<rscale>  0 0.29914274E+03</rscale>
<asrwt>0</asrwt>
<pdfrwt beam="1">  1       21 0.12777833E+00 0.29914274E+03</pdfrwt>
<pdfrwt beam="2">  1       21 0.41439360E-02 0.29914274E+03</pdfrwt>
<totfact> 0.16072469E+05</totfact>
</mgrwt>
</event>
<event>
 8    1  0.9123825E-006  0.2621315E+03  0.7546771E-02  0.1105869E+00
         21   -1    0    0  504  503  0.00000000000E+00  0.00000000000E+00  0.52898908170E+03  0.52898908170E+03  0.00000000000E+00 0. -1.
         21   -1    0    0  503  504 -0.00000000000E+00 -0.00000000000E+00 -0.32473704005E+02  0.32473704005E+02  0.00000000000E+00 0. -1.
         25    2    1    2    0    0  0.47215677548E+01  0.31765663718E+02  0.29715711237E+03  0.32397309131E+03  0.12499945549E+03 0.  0.
         25    2    1    2    0    0 -0.47215677548E+01 -0.31765663718E+02  0.19935826533E+03  0.23748969439E+03  0.12500514547E+03 0.  0.
          5    1    3    3  501    0 -0.66636357507E+01 -0.44878620013E+02  0.66799401397E+02  0.80887233867E+02  0.47000000000E+01 0. -1.
         -5    1    3    3    0  501  0.11385203505E+02  0.76644283731E+02  0.23035771097E+03  0.24308585745E+03  0.47000000000E+01 0. -1.
          5    1    4    4  502    0 -0.22890190738E+02 -0.47310305778E+02  0.20565852413E+03  0.21231991055E+03  0.47000000000E+01 0.  1.
         -5    1    4    4    0  502  0.18168622983E+02  0.15544642060E+02 -0.63002588050E+01  0.25169783847E+02  0.47000000000E+01 0.  1.
<mgrwt>
<rscale>  0 0.26213153E+03</rscale>
<asrwt>0</asrwt>
<pdfrwt beam="1">  1       21 0.81382929E-01 0.26213153E+03</pdfrwt>
<pdfrwt beam="2">  1       21 0.49959548E-02 0.26213153E+03</pdfrwt>
<totfact> 0.35017419E+05</totfact>
</mgrwt>
</event>
<event>
 8    1  0.9123825E-006  0.2700795E+03  0.7546771E-02  0.1101234E+00
         21   -1    0    0  504  503  0.00000000000E+00  0.00000000000E+00  0.65084141609E+02  0.65084141609E+02  0.00000000000E+00 0.  1.
         21   -1    0    0  503  504 -0.00000000000E+00 -0.00000000000E+00 -0.28018713846E+03  0.28018713846E+03  0.00000000000E+00 0.  1.
         25    2    1    2    0    0  0.44314689573E+02  0.31359065467E+00 -0.75023294843E+02  0.15237194308E+03  0.12499929687E+03 0.  0.
         25    2    1    2    0    0 -0.44314689573E+02 -0.31359065467E+00 -0.14007970201E+03  0.19289933699E+03  0.12499576491E+03 0.  0.
          5    1    3    3  501    0 -0.31044196089E+02  0.11356946161E+02  0.13041571434E+02  0.35845430984E+02  0.47000000000E+01 0. -1.
         -5    1    3    3    0  501  0.75358885663E+02 -0.11043355506E+02 -0.88064866277E+02  0.11652651210E+03  0.47000000000E+01 0. -1.
          5    1    4    4  502    0  0.33674245910E+02  0.24784529077E+02 -0.82630504578E+02  0.92726037368E+02  0.47000000000E+01 0. -1.
         -5    1    4    4    0  502 -0.77988935483E+02 -0.25098119731E+02 -0.57449197435E+02  0.10017329962E+03  0.47000000000E+01 0. -1.
<mgrwt>
<rscale>  0 0.27007954E+03</rscale>
<asrwt>0</asrwt>
<pdfrwt beam="1">  1       21 0.10012945E-01 0.27007954E+03</pdfrwt>
<pdfrwt beam="2">  1       21 0.43105714E-01 0.27007954E+03</pdfrwt>
<totfact> 0.41207895E+05</totfact>
</mgrwt>
</event>
<event>
 8    1  0.9123825E-006  0.3025914E+03  0.7546771E-02  0.1083952E+00
         21   -1    0    0  504  503  0.00000000000E+00  0.00000000000E+00  0.84724700570E+02  0.84724700570E+02  0.00000000000E+00 0. -1.
         21   -1    0    0  503  504 -0.00000000000E+00 -0.00000000000E+00 -0.27017366655E+03  0.27017366655E+03  0.00000000000E+00 0. -1.
         25    2    1    2    0    0  0.59376949964E+02 -0.46380108985E+02 -0.13946243727E+03  0.20187040567E+03  0.12500061032E+03 0.  0.
         25    2    1    2    0    0 -0.59376949964E+02  0.46380108985E+02 -0.45986528705E+02  0.15302796144E+03  0.12500423779E+03 0.  0.
          5    1    3    3  501    0 -0.31674670384E+02  0.11523464142E+02 -0.15321720304E+02  0.37321844580E+02  0.47000000000E+01 0. -1.
         -5    1    3    3    0  501  0.91051620348E+02 -0.57903573127E+02 -0.12414071697E+03  0.16454856109E+03  0.47000000000E+01 0. -1.
          5    1    4    4  502    0 -0.72270704989E+02  0.77665449056E+02 -0.52159392858E+02  0.11831174515E+03  0.47000000000E+01 0. -1.
         -5    1    4    4    0  502  0.12893755025E+02 -0.31285340071E+02  0.61728641529E+01  0.34716216295E+02  0.47000000000E+01 0. -1.
<mgrwt>
<rscale>  0 0.30259136E+03</rscale>
<asrwt>0</asrwt>
<pdfrwt beam="1">  1       21 0.13034569E-01 0.30259136E+03</pdfrwt>
<pdfrwt beam="2">  1       21 0.41565179E-01 0.30259136E+03</pdfrwt>
<totfact> 0.27458991E+05</totfact>
</mgrwt>
</event>
<event>
 8    1  0.9123825E-006  0.6079920E+03  0.7546771E-02  0.9888962E-01
         21   -1    0    0  504  503  0.00000000000E+00  0.00000000000E+00  0.26387101136E+03  0.26387101136E+03  0.00000000000E+00 0. -1.
         21   -1    0    0  503  504 -0.00000000000E+00 -0.00000000000E+00 -0.35022254987E+03  0.35022254987E+03  0.00000000000E+00 0. -1.
         25    2    1    2    0    0 -0.21138239027E+03  0.84460490050E+02  0.11643377311E+03  0.28460414566E+03  0.12500642747E+03 0.  0.
         25    2    1    2    0    0  0.21138239027E+03 -0.84460490050E+02 -0.20278531162E+03  0.32948941557E+03  0.12500121227E+03 0.  0.
          5    1    3    3  501    0 -0.10782209495E+03 -0.20487599745E+02  0.31032892086E+02  0.11415111166E+03  0.47000000000E+01 0. -1.
         -5    1    3    3    0  501 -0.10356029531E+03  0.10494808979E+03  0.85400881024E+02  0.17045303399E+03  0.47000000000E+01 0. -1.
          5    1    4    4  502    0  0.20887785258E+03 -0.42788733690E+02 -0.18986321919E+03  0.28553627620E+03  0.47000000000E+01 0. -1.
         -5    1    4    4    0  502  0.25045376886E+01 -0.41671756360E+02 -0.12922092432E+02  0.43953139364E+02  0.47000000000E+01 0. -1.
<mgrwt>
<rscale>  0 0.60799203E+03</rscale>
<asrwt>0</asrwt>
<pdfrwt beam="1">  1       21 0.40595540E-01 0.60799203E+03</pdfrwt>
<pdfrwt beam="2">  1       21 0.53880392E-01 0.60799203E+03</pdfrwt>
<totfact> 0.16572446E+04</totfact>
</mgrwt>
</event>
<event>
 8    1  0.9123825E-006  0.2522378E+03  0.7546771E-02  0.1111899E+00
         21   -1    0    0  504  503  0.00000000000E+00  0.00000000000E+00  0.63472391284E+02  0.63472391284E+02  0.00000000000E+00 0.  1.
         21   -1    0    0  503  504 -0.00000000000E+00 -0.00000000000E+00 -0.25059671771E+03  0.25059671771E+03  0.00000000000E+00 0.  1.
         25    2    1    2    0    0 -0.14284486858E+02  0.42347341198E+01 -0.84043831313E+02  0.15136215370E+03  0.12500062581E+03 0.  0.
         25    2    1    2    0    0  0.14284486858E+02 -0.42347341198E+01 -0.10308049511E+03  0.16270695529E+03  0.12500394110E+03 0.  0.
          5    1    3    3  501    0  0.54722491895E+02 -0.25160328119E+01 -0.26017614131E+02  0.60826702898E+02  0.47000000000E+01 0. -1.
         -5    1    3    3    0  501 -0.69006978753E+02  0.67507669317E+01 -0.58026217182E+02  0.90535450798E+02  0.47000000000E+01 0. -1.
          5    1    4    4  502    0  0.46395676893E+02  0.43871393157E+02 -0.73820362739E+02  0.97717930426E+02  0.47000000000E+01 0. -1.
         -5    1    4    4    0  502 -0.32111190035E+02 -0.48106127276E+02 -0.29260132370E+02  0.64989024868E+02  0.47000000000E+01 0. -1.
<mgrwt>
<rscale>  0 0.25223777E+03</rscale>
<asrwt>0</asrwt>
<pdfrwt beam="1">  1       21 0.97649833E-02 0.25223777E+03</pdfrwt>
<pdfrwt beam="2">  1       21 0.38553341E-01 0.25223777E+03</pdfrwt>
<totfact> 0.54281450E+05</totfact>
</mgrwt>
</event>
<event>
 8    1  0.9123825E-006  0.3918457E+03  0.7546771E-02  0.1046640E+00
         21   -1    0    0  504  503  0.00000000000E+00  0.00000000000E+00  0.78364297785E+03  0.78364297785E+03  0.00000000000E+00 0. -1.
         21   -1    0    0  503  504 -0.00000000000E+00 -0.00000000000E+00 -0.48983737900E+02  0.48983737900E+02  0.00000000000E+00 0. -1.
         25    2    1    2    0    0 -0.47071795268E+02 -0.10890594176E+03  0.16931902109E+03  0.24160041778E+03  0.12500229161E+03 0.  0.
         25    2    1    2    0    0  0.47071795268E+02  0.10890594176E+03  0.56534021886E+03  0.59102629797E+03  0.12500505499E+03 0.  0.
          5    1    3    3  501    0 -0.68397490235E+02 -0.35262619794E+02  0.30426571248E+02  0.82882659604E+02  0.47000000000E+01 0.  1.
         -5    1    3    3    0  501  0.21325694967E+02 -0.73643321969E+02  0.13889244984E+03  0.15871775818E+03  0.47000000000E+01 0.  1.
          5    1    4    4  502    0 -0.40601131879E+02  0.57516723238E+02  0.23868132382E+03  0.24889252641E+03  0.47000000000E+01 0. -1.
         -5    1    4    4    0  502  0.87672927146E+02  0.51389218525E+02  0.32665889504E+03  0.34213377156E+03  0.47000000000E+01 0. -1.
<mgrwt>
<rscale>  0 0.39184570E+03</rscale>
<asrwt>0</asrwt>
<pdfrwt beam="1">  1       21 0.12056045E+00 0.39184570E+03</pdfrwt>
<pdfrwt beam="2">  1       21 0.75359603E-02 0.39184570E+03</pdfrwt>
<totfact> 0.64701617E+04</totfact>
</mgrwt>
</event>
<event>
 8    1  0.9123825E-006  0.3860408E+03  0.7546771E-02  0.1048723E+00
         21   -1    0    0  504  503  0.00000000000E+00  0.00000000000E+00  0.20659113073E+04  0.20659113073E+04  0.00000000000E+00 0.  1.
         21   -1    0    0  503  504 -0.00000000000E+00 -0.00000000000E+00 -0.18034115831E+02  0.18034115831E+02  0.00000000000E+00 0.  1.
         25    2    1    2    0    0  0.12039600784E+03 -0.75338329334E+02  0.12302916137E+04  0.12447541995E+04  0.12499799933E+03 0.  0.
         25    2    1    2    0    0 -0.12039600784E+03  0.75338329334E+02  0.81758557775E+03  0.83919122362E+03  0.12499868116E+03 0.  0.
          5    1    3    3  501    0  0.44742660005E+02 -0.48615722843E+02  0.97182771419E+03  0.97408243502E+03  0.47000000000E+01 0.  1.
         -5    1    3    3    0  501  0.75653347831E+02 -0.26722606491E+02  0.25846389953E+03  0.27067176450E+03  0.47000000000E+01 0.  1.
          5    1    4    4  502    0 -0.37143195872E+02 -0.28746323899E+02  0.34263430184E+03  0.34587038459E+03  0.47000000000E+01 0.  1.
         -5    1    4    4    0  502 -0.83252811964E+02  0.10408465323E+03  0.47495127590E+03  0.49332083903E+03  0.47000000000E+01 0.  1.
<mgrwt>
<rscale>  0 0.38604085E+03</rscale>
<asrwt>0</asrwt>
<pdfrwt beam="1">  1       21 0.31783232E+00 0.38604085E+03</pdfrwt>
<pdfrwt beam="2">  1       21 0.27744810E-02 0.38604085E+03</pdfrwt>
<totfact> 0.16853162E+04</totfact>
</mgrwt>
</event>
<event>
 8    1  0.9123825E-006  0.8758380E+03  0.7546771E-02  0.9456300E-01
         21   -1    0    0  504  503  0.00000000000E+00  0.00000000000E+00  0.21430334153E+03  0.21430334153E+03  0.00000000000E+00 0.  1.
         21   -1    0    0  503  504 -0.00000000000E+00 -0.00000000000E+00 -0.89486722355E+03  0.89486722355E+03  0.00000000000E+00 0.  1.
         25    2    1    2    0    0 -0.11131214130E+03  0.40464678549E+03 -0.33478949615E+03  0.55121566975E+03  0.12500117614E+03 0.  0.
         25    2    1    2    0    0  0.11131214130E+03 -0.40464678549E+03 -0.34577438587E+03  0.55795489533E+03  0.12499730191E+03 0.  0.
          5    1    3    3  501    0  0.80177027867E+01  0.26074212418E+02 -0.66671201694E+02  0.72189246058E+02  0.47000000000E+01 0.  1.
         -5    1    3    3    0  501 -0.11932984409E+03  0.37857257307E+03 -0.26811829445E+03  0.47902642369E+03  0.47000000000E+01 0.  1.
          5    1    4    4  502    0  0.91466813183E+02 -0.23651037707E+03 -0.27583523826E+03  0.37471389758E+03  0.47000000000E+01 0.  1.
         -5    1    4    4    0  502  0.19845328116E+02 -0.16813640842E+03 -0.69939147610E+02  0.18324099774E+03  0.47000000000E+01 0.  1.
<mgrwt>
<rscale>  0 0.87583797E+03</rscale>
<asrwt>0</asrwt>
<pdfrwt beam="1">  1       21 0.32969746E-01 0.87583797E+03</pdfrwt>
<pdfrwt beam="2">  1       21 0.13767188E+00 0.87583797E+03</pdfrwt>
<totfact> 0.25620630E+03</totfact>
</mgrwt>
</event>
<event>
 8    1  0.9123825E-006  0.3122832E+03  0.7546771E-02  0.1079257E+00
         21   -1    0    0  504  503  0.00000000000E+00  0.00000000000E+00  0.44657557386E+03  0.44657557386E+03  0.00000000000E+00 0. -1.
         21   -1    0    0  503  504 -0.00000000000E+00 -0.00000000000E+00 -0.54593675026E+02  0.54593675026E+02  0.00000000000E+00 0. -1.
         25    2    1    2    0    0 -0.51064013417E+01  0.19843417760E+02  0.34250845413E+03  0.36518202238E+03  0.12500412698E+03 0.  0.
         25    2    1    2    0    0  0.51064013417E+01 -0.19843417760E+02  0.49473444710E+02  0.13598722650E+03  0.12500026991E+03 0.  0.
          5    1    3    3  501    0 -0.31733395043E+01 -0.25179638500E+02  0.30574999534E+03  0.30683747152E+03  0.47000000000E+01 0. -1.
         -5    1    3    3    0  501 -0.19330618375E+01  0.45023056260E+02  0.36758458784E+02  0.58344550862E+02  0.47000000000E+01 0. -1.
          5    1    4    4  502    0 -0.47207201396E+02  0.16842669599E+02 -0.66940081337E+01  0.50784792289E+02  0.47000000000E+01 0.  1.
         -5    1    4    4    0  502  0.52313602738E+02 -0.36686087360E+02  0.56167452844E+02  0.85202434215E+02  0.47000000000E+01 0.  1.
<mgrwt>
<rscale>  0 0.31228322E+03</rscale>
<asrwt>0</asrwt>
<pdfrwt beam="1">  1       21 0.68703932E-01 0.31228322E+03</pdfrwt>
<pdfrwt beam="2">  1       21 0.83990272E-02 0.31228322E+03</pdfrwt>
<totfact> 0.20603208E+05</totfact>
</mgrwt>
</event>
<event>
 8    1  0.9123825E-006  0.2785638E+03  0.7546771E-02  0.1096476E+00
         21   -1    0    0  504  503  0.00000000000E+00  0.00000000000E+00  0.84689662606E+02  0.84689662606E+02  0.00000000000E+00 0.  1.
         21   -1    0    0  503  504 -0.00000000000E+00 -0.00000000000E+00 -0.22906520020E+03  0.22906520020E+03  0.00000000000E+00 0.  1.
         25    2    1    2    0    0  0.12543619554E+02 -0.47336399266E+02 -0.30345102683E+02  0.13762932495E+03  0.12499171469E+03 0.  0.
         25    2    1    2    0    0 -0.12543619554E+02  0.47336399266E+02 -0.11403043491E+03  0.17612553786E+03  0.12497674949E+03 0.  0.
          5    1    3    3  501    0  0.28936635208E+02  0.18231297695E+02 -0.55500060803E+02  0.65360965583E+02  0.47000000000E+01 0. -1.
         -5    1    3    3    0  501 -0.16393015653E+02 -0.65567696960E+02  0.25154958120E+02  0.72268359362E+02  0.47000000000E+01 0. -1.
          5    1    4    4  502    0 -0.68337995066E+02  0.30589554601E+02 -0.54691326561E+02  0.92838750645E+02  0.47000000000E+01 0.  1.
         -5    1    4    4    0  502  0.55794375511E+02  0.16746844665E+02 -0.59339108353E+02  0.83286787218E+02  0.47000000000E+01 0.  1.
<mgrwt>
<rscale>  0 0.27856385E+03</rscale>
<asrwt>0</asrwt>
<pdfrwt beam="1">  1       21 0.13029179E-01 0.27856385E+03</pdfrwt>
<pdfrwt beam="2">  1       21 0.35240800E-01 0.27856385E+03</pdfrwt>
<totfact> 0.38583671E+05</totfact>
</mgrwt>
</event>
<event>
 8    1  0.9123825E-006  0.3086624E+03  0.7546771E-02  0.1080989E+00
         21   -1    0    0  504  503  0.00000000000E+00  0.00000000000E+00  0.17593719676E+02  0.17593719676E+02  0.00000000000E+00 0.  1.
         21   -1    0    0  503  504 -0.00000000000E+00 -0.00000000000E+00 -0.13537850537E+04  0.13537850537E+04  0.00000000000E+00 0.  1.
         25    2    1    2    0    0  0.83135828631E+02 -0.12267689799E+02 -0.81745818194E+03  0.83121902946E+03  0.12500053396E+03 0.  0.
         25    2    1    2    0    0 -0.83135828631E+02  0.12267689799E+02 -0.51873315205E+03  0.54015974389E+03  0.12500561454E+03 0.  0.
          5    1    3    3  501    0  0.89641913149E+02 -0.45611271856E+02 -0.73571097172E+03  0.74256904367E+03  0.47000000000E+01 0.  1.
         -5    1    3    3    0  501 -0.65060845177E+01  0.33343582057E+02 -0.81747210221E+02  0.88649985782E+02  0.47000000000E+01 0.  1.
          5    1    4    4  502    0  0.53949798572E+01 -0.39575407505E+02 -0.79671181725E+02  0.89246321405E+02  0.47000000000E+01 0.  1.
         -5    1    4    4    0  502 -0.88530808488E+02  0.51843097304E+02 -0.43906197033E+03  0.45091342249E+03  0.47000000000E+01 0.  1.
<mgrwt>
<rscale>  0 0.30866237E+03</rscale>
<asrwt>0</asrwt>
<pdfrwt beam="1">  1       21 0.27067270E-02 0.30866237E+03</pdfrwt>
<pdfrwt beam="2">  1       21 0.20827455E+00 0.30866237E+03</pdfrwt>
<totfact> 0.84186547E+04</totfact>
</mgrwt>
</event>
<event>
 8    1  0.9123825E-006  0.2793563E+03  0.7546771E-02  0.1096041E+00
         21   -1    0    0  504  503  0.00000000000E+00  0.00000000000E+00  0.11778554180E+03  0.11778554180E+03  0.00000000000E+00 0.  1.
         21   -1    0    0  503  504 -0.00000000000E+00 -0.00000000000E+00 -0.16563991256E+03  0.16563991256E+03  0.00000000000E+00 0.  1.
         25    2    1    2    0    0 -0.21257870113E+02 -0.49479371155E+02  0.79072526046E+01  0.13633573079E+03  0.12499920654E+03 0.  0.
         25    2    1    2    0    0  0.21257870113E+02  0.49479371155E+02 -0.55761623365E+02  0.14708972357E+03  0.12500369166E+03 0.  0.
          5    1    3    3  501    0  0.28506418147E+02 -0.12448715587E+02 -0.44840143377E+02  0.54775129880E+02  0.47000000000E+01 0. -1.
         -5    1    3    3    0  501 -0.49764288260E+02 -0.37030655568E+02  0.52747395982E+02  0.81560600909E+02  0.47000000000E+01 0. -1.
          5    1    4    4  502    0  0.20782618102E+01  0.24486938936E+02 -0.94028781130E+02  0.97300724722E+02  0.47000000000E+01 0.  1.
         -5    1    4    4    0  502  0.19179608303E+02  0.24992432219E+02  0.38267157765E+02  0.49788998848E+02  0.47000000000E+01 0.  1.
<mgrwt>
<rscale>  0 0.27935631E+03</rscale>
<asrwt>0</asrwt>
<pdfrwt beam="1">  1       21 0.18120853E-01 0.27935631E+03</pdfrwt>
<pdfrwt beam="2">  1       21 0.25483063E-01 0.27935631E+03</pdfrwt>
<totfact> 0.39766621E+05</totfact>
</mgrwt>
</event>
<event>
 8    1  0.9123825E-006  0.2872391E+03  0.7546771E-02  0.1091800E+00
         21   -1    0    0  504  503  0.00000000000E+00  0.00000000000E+00  0.23471625761E+03  0.23471625761E+03  0.00000000000E+00 0. -1.
         21   -1    0    0  503  504 -0.00000000000E+00 -0.00000000000E+00 -0.87878743628E+02  0.87878743628E+02  0.00000000000E+00 0. -1.
         25    2    1    2    0    0 -0.47085882646E+02 -0.14616923727E+02  0.16493854519E+02  0.13538896612E+03  0.12500956006E+03 0.  0.
         25    2    1    2    0    0  0.47085882646E+02  0.14616923727E+02  0.13034365946E+03  0.18720603512E+03  0.12500358082E+03 0.  0.
          5    1    3    3  501    0 -0.78262251831E+02  0.24920261988E+02  0.20110014060E+02  0.84690626309E+02  0.47000000000E+01 0. -1.
         -5    1    3    3    0  501  0.31176369185E+02 -0.39537185714E+02 -0.36161595404E+01  0.50698339811E+02  0.47000000000E+01 0. -1.
          5    1    4    4  502    0  0.74009703561E+02  0.25121353937E+01  0.25935714181E+02  0.78603424325E+02  0.47000000000E+01 0. -1.
         -5    1    4    4    0  502 -0.26923820915E+02  0.12104788333E+02  0.10440794528E+03  0.10860261079E+03  0.47000000000E+01 0. -1.
<mgrwt>
<rscale>  0 0.28723906E+03</rscale>
<asrwt>0</asrwt>
<pdfrwt beam="1">  1       21 0.36110193E-01 0.28723906E+03</pdfrwt>
<pdfrwt beam="2">  1       21 0.13519807E-01 0.28723906E+03</pdfrwt>
<totfact> 0.34295081E+05</totfact>
</mgrwt>
</event>
<event>
 8    1  0.9123825E-006  0.2955171E+03  0.7546771E-02  0.1087503E+00
         21   -1    0    0  504  503  0.00000000000E+00  0.00000000000E+00  0.22045727542E+03  0.22045727542E+03  0.00000000000E+00 0. -1.
         21   -1    0    0  503  504 -0.00000000000E+00 -0.00000000000E+00 -0.99033229645E+02  0.99033229645E+02  0.00000000000E+00 0. -1.
         25    2    1    2    0    0 -0.31836352346E+02 -0.32126887458E+02 -0.90312412373E+01  0.13324116872E+03  0.12500382192E+03 0.  0.
         25    2    1    2    0    0  0.31836352346E+02  0.32126887458E+02  0.13045528702E+03  0.18624933635E+03  0.12499817259E+03 0.  0.
          5    1    3    3  501    0  0.39674226950E+01 -0.75091783758E+02  0.46043450444E+01  0.75483815644E+02  0.47000000000E+01 0. -1.
         -5    1    3    3    0  501 -0.35803775041E+02  0.42964896300E+02 -0.13635586282E+02  0.57757353078E+02  0.47000000000E+01 0. -1.
          5    1    4    4  502    0 -0.16912897557E+01 -0.45792816929E+02  0.61451253708E+02  0.76799668786E+02  0.47000000000E+01 0. -1.
         -5    1    4    4    0  502  0.33527642102E+02  0.77919704387E+02  0.69004033309E+02  0.10944966756E+03  0.47000000000E+01 0. -1.
<mgrwt>
<rscale>  0 0.29551715E+03</rscale>
<asrwt>0</asrwt>
<pdfrwt beam="1">  1       21 0.33916504E-01 0.29551715E+03</pdfrwt>
<pdfrwt beam="2">  1       21 0.15235882E-01 0.29551715E+03</pdfrwt>
<totfact> 0.31191434E+05</totfact>
</mgrwt>
</event>
<event>
 8    1  0.9123825E-006  0.2718189E+03  0.7546771E-02  0.1100243E+00
         21   -1    0    0  504  503  0.00000000000E+00  0.00000000000E+00  0.99245148337E+02  0.99245148337E+02  0.00000000000E+00 0.  1.
         21   -1    0    0  503  504 -0.00000000000E+00 -0.00000000000E+00 -0.18611876827E+03  0.18611876827E+03  0.00000000000E+00 0.  1.
         25    2    1    2    0    0 -0.31465590003E+02  0.32807311444E+02 -0.72803534989E+02  0.15162461282E+03  0.12499306168E+03 0.  0.
         25    2    1    2    0    0  0.31465590003E+02 -0.32807311444E+02 -0.14070084946E+02  0.13373930379E+03  0.12498732355E+03 0.  0.
          5    1    3    3  501    0 -0.36356024733E+02 -0.42437872892E+02 -0.20377500575E+02  0.59666289643E+02  0.47000000000E+01 0.  1.
         -5    1    3    3    0  501  0.48904347306E+01  0.75245184336E+02 -0.52426034414E+02  0.91958323179E+02  0.47000000000E+01 0.  1.
          5    1    4    4  502    0  0.64513018940E+02  0.17060027543E+02  0.12598728645E+02  0.68071962775E+02  0.47000000000E+01 0. -1.
         -5    1    4    4    0  502 -0.33047428938E+02 -0.49867338987E+02 -0.26668813591E+02  0.65667341011E+02  0.47000000000E+01 0. -1.
<mgrwt>
<rscale>  0 0.27181895E+03</rscale>
<asrwt>0</asrwt>
<pdfrwt beam="1">  1       21 0.15268484E-01 0.27181895E+03</pdfrwt>
<pdfrwt beam="2">  1       21 0.28633657E-01 0.27181895E+03</pdfrwt>
<totfact> 0.43604341E+05</totfact>
</mgrwt>
</event>
<event>
 8    1  0.9123825E-006  0.2715587E+03  0.7546771E-02  0.1100391E+00
         21   -1    0    0  504  503  0.00000000000E+00  0.00000000000E+00  0.46253208128E+03  0.46253208128E+03  0.00000000000E+00 0. -1.
         21   -1    0    0  503  504 -0.00000000000E+00 -0.00000000000E+00 -0.39858929720E+02  0.39858929720E+02  0.00000000000E+00 0. -1.
         25    2    1    2    0    0  0.12936892115E+02 -0.10917228690E+02  0.11836764312E+03  0.17298262883E+03  0.12500216750E+03 0.  0.
         25    2    1    2    0    0 -0.12936892115E+02  0.10917228690E+02  0.30430550844E+03  0.32940838217E+03  0.12498596209E+03 0.  0.
          5    1    3    3  501    0  0.24728362713E+02  0.38732555426E+02  0.24682203636E+01  0.46258889784E+02  0.47000000000E+01 0.  1.
         -5    1    3    3    0  501 -0.11791470599E+02 -0.49649784116E+02  0.11589942276E+03  0.12672373905E+03  0.47000000000E+01 0.  1.
          5    1    4    4  502    0  0.26586202652E+02 -0.20396335708E+02  0.17363850608E+02  0.38031960109E+02  0.47000000000E+01 0. -1.
         -5    1    4    4    0  502 -0.39523094767E+02  0.31313564398E+02  0.28694165783E+03  0.29137642206E+03  0.47000000000E+01 0. -1.
<mgrwt>
<rscale>  0 0.27155871E+03</rscale>
<asrwt>0</asrwt>
<pdfrwt beam="1">  1       21 0.71158778E-01 0.27155871E+03</pdfrwt>
<pdfrwt beam="2">  1       21 0.61321433E-02 0.27155871E+03</pdfrwt>
<totfact> 0.33289774E+05</totfact>
</mgrwt>
</event>
<event>
 8    1  0.9123825E-006  0.3765261E+03  0.7546771E-02  0.1052225E+00
         21   -1    0    0  504  503  0.00000000000E+00  0.00000000000E+00  0.15328177754E+04  0.15328177754E+04  0.00000000000E+00 0. -1.
         21   -1    0    0  503  504 -0.00000000000E+00 -0.00000000000E+00 -0.23122763039E+02  0.23122763039E+02  0.00000000000E+00 0. -1.
         25    2    1    2    0    0 -0.23620521833E+02  0.13598726003E+03  0.86936203899E+03  0.88908187837E+03  0.12500307063E+03 0.  0.
         25    2    1    2    0    0  0.23620521833E+02 -0.13598726003E+03  0.64033297337E+03  0.66685866006E+03  0.12499476701E+03 0.  0.
          5    1    3    3  501    0  0.44938951690E+02  0.96831858599E+02  0.47582362566E+03  0.48767420575E+03  0.47000000000E+01 0. -1.
         -5    1    3    3    0  501 -0.68559473523E+02  0.39155401432E+02  0.39353841334E+03  0.40140767262E+03  0.47000000000E+01 0. -1.
          5    1    4    4  502    0 -0.82713681290E+01 -0.11952314522E+03  0.27842243772E+03  0.30314244440E+03  0.47000000000E+01 0. -1.
         -5    1    4    4    0  502  0.31891889962E+02 -0.16464114813E+02  0.36191053565E+03  0.36371621566E+03  0.47000000000E+01 0. -1.
<mgrwt>
<rscale>  0 0.37652613E+03</rscale>
<asrwt>0</asrwt>
<pdfrwt beam="1">  1       21 0.23581804E+00 0.37652613E+03</pdfrwt>
<pdfrwt beam="2">  1       21 0.35573494E-02 0.37652613E+03</pdfrwt>
<totfact> 0.34742440E+04</totfact>
</mgrwt>
</event>
<event>
 8    1  0.9123825E-006  0.2931265E+03  0.7546771E-02  0.1088728E+00
         21   -1    0    0  504  503  0.00000000000E+00  0.00000000000E+00  0.17506164832E+03  0.17506164832E+03  0.00000000000E+00 0.  1.
         21   -1    0    0  503  504 -0.00000000000E+00 -0.00000000000E+00 -0.12270416004E+03  0.12270416004E+03  0.00000000000E+00 0.  1.
         25    2    1    2    0    0  0.32518157449E+02 -0.29797049614E+02 -0.37314272666E+02  0.13773074151E+03  0.12502842670E+03 0.  0.
         25    2    1    2    0    0 -0.32518157449E+02  0.29797049614E+02  0.89671760946E+02  0.16003506685E+03  0.12499961272E+03 0.  0.
          5    1    3    3  501    0  0.29775300181E+02  0.16285836871E+02 -0.72040219559E+02  0.79772678391E+02  0.47000000000E+01 0. -1.
         -5    1    3    3    0  501  0.27428572680E+01 -0.46082886485E+02  0.34725946893E+02  0.57958063118E+02  0.47000000000E+01 0. -1.
          5    1    4    4  502    0 -0.72384909795E+02  0.18059014752E+02  0.91522862210E+02  0.11817033252E+03  0.47000000000E+01 0. -1.
         -5    1    4    4    0  502  0.39866752346E+02  0.11738034861E+02 -0.18511012647E+01  0.41864734334E+02  0.47000000000E+01 0. -1.
<mgrwt>
<rscale>  0 0.29312654E+03</rscale>
<asrwt>0</asrwt>
<pdfrwt beam="1">  1       21 0.26932561E-01 0.29312654E+03</pdfrwt>
<pdfrwt beam="2">  1       21 0.18877563E-01 0.29312654E+03</pdfrwt>
<totfact> 0.33009935E+05</totfact>
</mgrwt>
</event>
<event>
 8    1  0.9123825E-006  0.3079178E+03  0.7546771E-02  0.1081348E+00
         21   -1    0    0  504  503  0.00000000000E+00  0.00000000000E+00  0.32782685107E+02  0.32782685107E+02  0.00000000000E+00 0.  1.
         21   -1    0    0  503  504 -0.00000000000E+00 -0.00000000000E+00 -0.72304442086E+03  0.72304442086E+03  0.00000000000E+00 0.  1.
         25    2    1    2    0    0  0.28752390356E+02 -0.19619135059E+02 -0.54853934125E+03  0.56367646426E+03  0.12499654817E+03 0.  0.
         25    2    1    2    0    0 -0.28752390356E+02  0.19619135059E+02 -0.14172239451E+03  0.19215064171E+03  0.12500008637E+03 0.  0.
          5    1    3    3  501    0  0.92095818573E+01  0.48980931689E+02 -0.13455229459E+03  0.14356308037E+03  0.47000000000E+01 0. -1.
         -5    1    3    3    0  501  0.19542808499E+02 -0.68600066748E+02 -0.41398704666E+03  0.42011338389E+03  0.47000000000E+01 0. -1.
          5    1    4    4  502    0  0.81869721411E+01  0.60172916056E+02 -0.11677580599E+03  0.13170605606E+03  0.47000000000E+01 0. -1.
         -5    1    4    4    0  502 -0.36939362497E+02 -0.40553780997E+02 -0.24946588519E+02  0.60444585643E+02  0.47000000000E+01 0. -1.
<mgrwt>
<rscale>  0 0.30791777E+03</rscale>
<asrwt>0</asrwt>
<pdfrwt beam="1">  1       21 0.50434904E-02 0.30791777E+03</pdfrwt>
<pdfrwt beam="2">  1       21 0.11123760E+00 0.30791777E+03</pdfrwt>
<totfact> 0.16234292E+05</totfact>
</mgrwt>
</event>
<event>
 8    1  0.9123825E-006  0.6981425E+03  0.7546771E-02  0.9720414E-01
         21   -1    0    0  504  503  0.00000000000E+00  0.00000000000E+00  0.75286294724E+03  0.75286294724E+03  0.00000000000E+00 0.  1.
         21   -1    0    0  503  504 -0.00000000000E+00 -0.00000000000E+00 -0.16184984687E+03  0.16184984687E+03  0.00000000000E+00 0.  1.
         25    2    1    2    0    0 -0.24189524280E+03 -0.46016590521E+02  0.57527514287E+03  0.63812037484E+03  0.12500115074E+03 0.  0.
         25    2    1    2    0    0  0.24189524280E+03  0.46016590521E+02  0.15737957495E+02  0.27659241927E+03  0.12499939201E+03 0.  0.
          5    1    3    3  501    0 -0.29513620601E+02  0.27151322546E+02  0.36722971735E+02  0.54579435413E+02  0.47000000000E+01 0.  1.
         -5    1    3    3    0  501 -0.21238162220E+03 -0.73167913067E+02  0.53855217114E+03  0.58354093943E+03  0.47000000000E+01 0.  1.
          5    1    4    4  502    0  0.32655326131E+02  0.40281600740E+01 -0.43798985466E+02  0.54982156434E+02  0.47000000000E+01 0.  1.
         -5    1    4    4    0  502  0.20923991667E+03  0.41988430447E+02  0.59536942961E+02  0.22161026284E+03  0.47000000000E+01 0.  1.
<mgrwt>
<rscale>  0 0.69814254E+03</rscale>
<asrwt>0</asrwt>
<pdfrwt beam="1">  1       21 0.11582507E+00 0.69814254E+03</pdfrwt>
<pdfrwt beam="2">  1       21 0.24899977E-01 0.69814254E+03</pdfrwt>
<totfact> 0.73029198E+03</totfact>
</mgrwt>
</event>
<event>
 8    1  0.9123825E-006  0.2725945E+03  0.7546771E-02  0.1099804E+00
         21   -1    0    0  504  503  0.00000000000E+00  0.00000000000E+00  0.10150510534E+04  0.10150510534E+04  0.00000000000E+00 0. -1.
         21   -1    0    0  503  504 -0.00000000000E+00 -0.00000000000E+00 -0.18301485545E+02  0.18301485545E+02  0.00000000000E+00 0. -1.
         25    2    1    2    0    0 -0.27274450356E+02 -0.44919660627E+01  0.32098010048E+03  0.34556379747E+03  0.12498815872E+03 0.  0.
         25    2    1    2    0    0  0.27274450356E+02  0.44919660627E+01  0.67576946742E+03  0.68778874151E+03  0.12499962582E+03 0.  0.
          5    1    3    3  501    0 -0.74925089854E+02  0.13307450256E+02  0.20933468094E+03  0.22278679486E+03  0.47000000000E+01 0. -1.
         -5    1    3    3    0  501  0.47650639498E+02 -0.17799416318E+02  0.11164541954E+03  0.12277700261E+03  0.47000000000E+01 0. -1.
          5    1    4    4  502    0  0.40450333303E+02 -0.12932987949E+02  0.65760523924E+03  0.65899183024E+03  0.47000000000E+01 0. -1.
         -5    1    4    4    0  502 -0.13175882947E+02  0.17424954011E+02  0.18164228177E+02  0.28796911275E+02  0.47000000000E+01 0. -1.
<mgrwt>
<rscale>  0 0.27259451E+03</rscale>
<asrwt>0</asrwt>
<pdfrwt beam="1">  1       21 0.15616166E+00 0.27259451E+03</pdfrwt>
<pdfrwt beam="2">  1       21 0.28156140E-02 0.27259451E+03</pdfrwt>
<totfact> 0.18309206E+05</totfact>
</mgrwt>
</event>
<event>
 8    1  0.9123825E-006  0.4658075E+03  0.7546771E-02  0.1023110E+00
         21   -1    0    0  504  503  0.00000000000E+00  0.00000000000E+00  0.38891815031E+03  0.38891815031E+03  0.00000000000E+00 0.  1.
         21   -1    0    0  503  504 -0.00000000000E+00 -0.00000000000E+00 -0.13947448557E+03  0.13947448557E+03  0.00000000000E+00 0.  1.
         25    2    1    2    0    0 -0.18310272014E+03  0.16172550565E+02  0.45875445931E+02  0.22697501777E+03  0.12499977856E+03 0.  0.
         25    2    1    2    0    0  0.18310272014E+03 -0.16172550565E+02  0.20356821881E+03  0.30141761810E+03  0.12499761310E+03 0.  0.
          5    1    3    3  501    0 -0.19007356236E+03 -0.67247036412E+01  0.59113016325E+02  0.19922253750E+03  0.47000000000E+01 0. -1.
         -5    1    3    3    0  501  0.69708422251E+01  0.22897254206E+02 -0.13237570395E+02  0.27752480276E+02  0.47000000000E+01 0. -1.
          5    1    4    4  502    0  0.47931443256E+02 -0.23461642866E+02 -0.38281394618E+01  0.53708626778E+02  0.47000000000E+01 0. -1.
         -5    1    4    4    0  502  0.13517127688E+03  0.72890923015E+01  0.20739635827E+03  0.24770899133E+03  0.47000000000E+01 0. -1.
<mgrwt>
<rscale>  0 0.46580751E+03</rscale>
<asrwt>0</asrwt>
<pdfrwt beam="1">  1       21 0.59833561E-01 0.46580751E+03</pdfrwt>
<pdfrwt beam="2">  1       21 0.21457613E-01 0.46580751E+03</pdfrwt>
<totfact> 0.48349725E+04</totfact>
</mgrwt>
</event>
<event>
 8    1  0.9123825E-006  0.2765632E+03  0.7546771E-02  0.1097581E+00
         21   -1    0    0  504  503  0.00000000000E+00  0.00000000000E+00  0.58254892431E+03  0.58254892431E+03  0.00000000000E+00 0. -1.
         21   -1    0    0  503  504 -0.00000000000E+00 -0.00000000000E+00 -0.32824379394E+02  0.32824379394E+02  0.00000000000E+00 0. -1.
         25    2    1    2    0    0 -0.20590072670E+01 -0.15666182372E+02  0.40165441207E+03  0.42095278373E+03  0.12500124242E+03 0.  0.
         25    2    1    2    0    0  0.20590072670E+01  0.15666182372E+02  0.14807013284E+03  0.19442051998E+03  0.12499962227E+03 0.  0.
          5    1    3    3  501    0  0.49127866110E+02  0.88855840918E+01  0.30226304985E+03  0.30639442250E+03  0.47000000000E+01 0.  1.
         -5    1    3    3    0  501 -0.51186873377E+02 -0.24551766464E+02  0.99391362222E+02  0.11455836123E+03  0.47000000000E+01 0.  1.
          5    1    4    4  502    0 -0.15224965811E+02 -0.37006301395E+02  0.46141614598E+01  0.40554240381E+02  0.47000000000E+01 0. -1.
         -5    1    4    4    0  502  0.17283973078E+02  0.52672483767E+02  0.14345597138E+03  0.15386627960E+03  0.47000000000E+01 0. -1.
<mgrwt>
<rscale>  0 0.27656324E+03</rscale>
<asrwt>0</asrwt>
<pdfrwt beam="1">  1       21 0.89622904E-01 0.27656324E+03</pdfrwt>
<pdfrwt beam="2">  1       21 0.50499050E-02 0.27656324E+03</pdfrwt>
<totfact> 0.27419635E+05</totfact>
</mgrwt>
</event>
<event>
 8    1  0.9123825E-006  0.4769188E+03  0.7546771E-02  0.1019985E+00
         21   -1    0    0  504  503  0.00000000000E+00  0.00000000000E+00  0.67487152689E+03  0.67487152689E+03  0.00000000000E+00 0.  1.
         21   -1    0    0  503  504 -0.00000000000E+00 -0.00000000000E+00 -0.84257360804E+02  0.84257360804E+02  0.00000000000E+00 0.  1.
         25    2    1    2    0    0  0.19248405178E+03  0.63246706227E+01  0.19280252698E+03  0.29981575561E+03  0.12500624485E+03 0.  0.
         25    2    1    2    0    0 -0.19248405178E+03 -0.63246706227E+01  0.39781163910E+03  0.45931313208E+03  0.12499736577E+03 0.  0.
          5    1    3    3  501    0  0.30822511163E+02  0.50100403654E+02  0.72864037149E+02  0.93762122151E+02  0.47000000000E+01 0. -1.
         -5    1    3    3    0  501  0.16166154062E+03 -0.43775733032E+02  0.11993848983E+03  0.20605363346E+03  0.47000000000E+01 0. -1.
          5    1    4    4  502    0 -0.41561355951E+02  0.42347391205E+02  0.52762676214E+02  0.79540165021E+02  0.47000000000E+01 0.  1.
         -5    1    4    4    0  502 -0.15092269583E+03 -0.48672061828E+02  0.34504896289E+03  0.37977296706E+03  0.47000000000E+01 0.  1.
<mgrwt>
<rscale>  0 0.47691883E+03</rscale>
<asrwt>0</asrwt>
<pdfrwt beam="1">  1       21 0.10382639E+00 0.47691883E+03</pdfrwt>
<pdfrwt beam="2">  1       21 0.12962671E-01 0.47691883E+03</pdfrwt>
<totfact> 0.34691356E+04</totfact>
</mgrwt>
</event>
<event>
 8    1  0.9123825E-006  0.2791023E+03  0.7546771E-02  0.1096180E+00
         21   -1    0    0  504  503  0.00000000000E+00  0.00000000000E+00  0.35556178774E+03  0.35556178774E+03  0.00000000000E+00 0.  1.
         21   -1    0    0  503  504 -0.00000000000E+00 -0.00000000000E+00 -0.54771119592E+02  0.54771119592E+02  0.00000000000E+00 0.  1.
         25    2    1    2    0    0 -0.54459145831E+02  0.28989129514E+02  0.14076825897E+03  0.19811198135E+03  0.12500594477E+03 0.  0.
         25    2    1    2    0    0  0.54459145831E+02 -0.28989129514E+02  0.16002240918E+03  0.21222092598E+03  0.12499752714E+03 0.  0.
          5    1    3    3  501    0 -0.64058654081E+02  0.42754061213E+02  0.15659384508E+03  0.17457131273E+03  0.47000000000E+01 0. -1.
         -5    1    3    3    0  501  0.95995082504E+01 -0.13764931699E+02 -0.15825586109E+02  0.23540668619E+02  0.47000000000E+01 0. -1.
          5    1    4    4  502    0  0.63282367335E+02 -0.28233079592E+02  0.20608466159E+02  0.72446971477E+02  0.47000000000E+01 0. -1.
         -5    1    4    4    0  502 -0.88232215041E+01 -0.75604992139E+00  0.13941394302E+03  0.13977395450E+03  0.47000000000E+01 0. -1.
<mgrwt>
<rscale>  0 0.27910226E+03</rscale>
<asrwt>0</asrwt>
<pdfrwt beam="1">  1       21 0.54701812E-01 0.27910226E+03</pdfrwt>
<pdfrwt beam="2">  1       21 0.84263263E-02 0.27910226E+03</pdfrwt>
<totfact> 0.33894797E+05</totfact>
</mgrwt>
</event>
<event>
 8    1  0.9123825E-006  0.3128096E+03  0.7546771E-02  0.1079007E+00
         21   -1    0    0  504  503  0.00000000000E+00  0.00000000000E+00  0.16698840871E+03  0.16698840871E+03  0.00000000000E+00 0.  1.
         21   -1    0    0  503  504 -0.00000000000E+00 -0.00000000000E+00 -0.14649200199E+03  0.14649200199E+03  0.00000000000E+00 0.  1.
         25    2    1    2    0    0 -0.55315516238E+02  0.76003534012E+02  0.11493080719E+02  0.15682177582E+03  0.12499853978E+03 0.  0.
         25    2    1    2    0    0  0.55315516238E+02 -0.76003534012E+02  0.90033259980E+01  0.15665863488E+03  0.12499809793E+03 0.  0.
          5    1    3    3  501    0  0.25630660370E+02  0.63156733797E+02  0.26659916695E+02  0.73338563752E+02  0.47000000000E+01 0. -1.
         -5    1    3    3    0  501 -0.80946176608E+02  0.12846800215E+02 -0.15166835976E+02  0.83483212065E+02  0.47000000000E+01 0. -1.
          5    1    4    4  502    0 -0.38114145069E+02 -0.74017154960E+01  0.11028732319E+02  0.40634915814E+02  0.47000000000E+01 0. -1.
         -5    1    4    4    0  502  0.93429661306E+02 -0.68601818516E+02 -0.20254063213E+01  0.11602371907E+03  0.47000000000E+01 0. -1.
<mgrwt>
<rscale>  0 0.31280963E+03</rscale>
<asrwt>0</asrwt>
<pdfrwt beam="1">  1       21 0.25690525E-01 0.31280963E+03</pdfrwt>
<pdfrwt beam="2">  1       21 0.22537231E-01 0.31280963E+03</pdfrwt>
<totfact> 0.25768212E+05</totfact>
</mgrwt>
</event>
<event>
 8    1  0.9123825E-006  0.2702297E+03  0.7546771E-02  0.1101148E+00
         21   -1    0    0  504  503  0.00000000000E+00  0.00000000000E+00  0.14676419628E+03  0.14676419628E+03  0.00000000000E+00 0.  1.
         21   -1    0    0  503  504 -0.00000000000E+00 -0.00000000000E+00 -0.12439013617E+03  0.12439013617E+03  0.00000000000E+00 0.  1.
         25    2    1    2    0    0  0.30633535555E+02 -0.40963321728E+02  0.14965812780E+02  0.13588678313E+03  0.12499934019E+03 0.  0.
         25    2    1    2    0    0 -0.30633535555E+02  0.40963321728E+02  0.74082473315E+01  0.13526754932E+03  0.12500408211E+03 0.  0.
          5    1    3    3  501    0  0.37119988801E+02 -0.78505610965E+02 -0.13618546026E+02  0.88026015004E+02  0.47000000000E+01 0. -1.
         -5    1    3    3    0  501 -0.64864532454E+01  0.37542289237E+02  0.28584358807E+02  0.47860768122E+02  0.47000000000E+01 0. -1.
          5    1    4    4  502    0 -0.25537069405E+02  0.18960101871E+02  0.65388969702E+02  0.72865868110E+02  0.47000000000E+01 0.  1.
         -5    1    4    4    0  502 -0.50964661500E+01  0.22003219858E+02 -0.57980722370E+02  0.62401681211E+02  0.47000000000E+01 0.  1.
<mgrwt>
<rscale>  0 0.27022967E+03</rscale>
<asrwt>0</asrwt>
<pdfrwt beam="1">  1       21 0.22579107E-01 0.27022967E+03</pdfrwt>
<pdfrwt beam="2">  1       21 0.19136944E-01 0.27022967E+03</pdfrwt>
<totfact> 0.45356143E+05</totfact>
</mgrwt>
</event>
<event>
 8    1  0.9123825E-006  0.3615777E+03  0.7546771E-02  0.1057961E+00
         21   -1    0    0  504  503  0.00000000000E+00  0.00000000000E+00  0.62865464658E+02  0.62865464658E+02  0.00000000000E+00 0. -1.
         21   -1    0    0  503  504 -0.00000000000E+00 -0.00000000000E+00 -0.51991356678E+03  0.51991356678E+03  0.00000000000E+00 0. -1.
         25    2    1    2    0    0 -0.16695621911E+02  0.61464123274E+02 -0.41232437270E+03  0.43553679064E+03  0.12499730173E+03 0.  0.
         25    2    1    2    0    0  0.16695621911E+02 -0.61464123274E+02 -0.44723729422E+02  0.14724224080E+03  0.12499393289E+03 0.  0.
          5    1    3    3  501    0  0.27397381187E+02 -0.27321879120E+02 -0.85257877819E+02  0.93744852151E+02  0.47000000000E+01 0. -1.
         -5    1    3    3    0  501 -0.44093003098E+02  0.88786002394E+02 -0.32706649488E+03  0.34179193849E+03  0.47000000000E+01 0. -1.
          5    1    4    4  502    0 -0.46984822723E+02 -0.85618436760E+00 -0.34765438096E+02  0.58643263074E+02  0.47000000000E+01 0.  1.
         -5    1    4    4    0  502  0.63680444633E+02 -0.60607938906E+02 -0.99582913255E+01  0.88598977721E+02  0.47000000000E+01 0.  1.
<mgrwt>
<rscale>  0 0.36157770E+03</rscale>
<asrwt>0</asrwt>
<pdfrwt beam="1">  1       21 0.96716101E-02 0.36157770E+03</pdfrwt>
<pdfrwt beam="2">  1       21 0.79986701E-01 0.36157770E+03</pdfrwt>
<totfact> 0.11245996E+05</totfact>
</mgrwt>
</event>
<event>
 8    1  0.9123825E-006  0.3330613E+03  0.7546771E-02  0.1069790E+00
         21   -1    0    0  504  503  0.00000000000E+00  0.00000000000E+00  0.47365889315E+02  0.47365889315E+02  0.00000000000E+00 0. -1.
         21   -1    0    0  503  504 -0.00000000000E+00 -0.00000000000E+00 -0.58549443280E+03  0.58549443280E+03  0.00000000000E+00 0. -1.
         25    2    1    2    0    0  0.10811535195E+03 -0.67738079058E+01 -0.23240724951E+03  0.28525997329E+03  0.12500123574E+03 0.  0.
         25    2    1    2    0    0 -0.10811535195E+03  0.67738079058E+01 -0.30572129397E+03  0.34760034882E+03  0.12500271642E+03 0.  0.
          5    1    3    3  501    0  0.12034022879E+03 -0.15646068120E+02 -0.23902863841E+03  0.26811070492E+03  0.47000000000E+01 0.  1.
         -5    1    3    3    0  501 -0.12224876838E+02  0.88722602141E+01  0.66213888928E+01  0.17149268378E+02  0.47000000000E+01 0.  1.
          5    1    4    4  502    0 -0.74988500322E+02 -0.51829501362E+02 -0.22224486807E+03  0.24025911799E+03  0.47000000000E+01 0. -1.
         -5    1    4    4    0  502 -0.33126851627E+02  0.58603309268E+02 -0.83476425901E+02  0.10734123083E+03  0.47000000000E+01 0. -1.
<mgrwt>
<rscale>  0 0.33306134E+03</rscale>
<asrwt>0</asrwt>
<pdfrwt beam="1">  1       21 0.72870596E-02 0.33306134E+03</pdfrwt>
<pdfrwt beam="2">  1       21 0.90076071E-01 0.33306134E+03</pdfrwt>
<totfact> 0.14174028E+05</totfact>
</mgrwt>
</event>
<event>
 8    1  0.9123825E-006  0.2818875E+03  0.7546771E-02  0.1094662E+00
         21   -1    0    0  504  503  0.00000000000E+00  0.00000000000E+00  0.73032209920E+03  0.73032209920E+03  0.00000000000E+00 0.  1.
         21   -1    0    0  503  504 -0.00000000000E+00 -0.00000000000E+00 -0.27200528071E+02  0.27200528071E+02  0.00000000000E+00 0.  1.
         25    2    1    2    0    0 -0.60811626339E+02  0.23104649027E+02  0.34383898476E+03  0.37159362380E+03  0.12499878040E+03 0.  0.
         25    2    1    2    0    0  0.60811626339E+02 -0.23104649027E+02  0.35928258637E+03  0.38592900347E+03  0.12500136059E+03 0.  0.
          5    1    3    3  501    0 -0.12484865144E+02  0.13308059847E+02 -0.48068906320E+01  0.19446658121E+02  0.47000000000E+01 0. -1.
         -5    1    3    3    0  501 -0.48326761195E+02  0.97965891797E+01  0.34864587539E+03  0.35214696567E+03  0.47000000000E+01 0. -1.
          5    1    4    4  502    0  0.66367448218E+01 -0.48661249397E+02  0.29023824265E+03  0.29440158130E+03  0.47000000000E+01 0.  1.
         -5    1    4    4    0  502  0.54174881517E+02  0.25556600370E+02  0.69044343713E+02  0.91527422167E+02  0.47000000000E+01 0.  1.
<mgrwt>
<rscale>  0 0.28188754E+03</rscale>
<asrwt>0</asrwt>
<pdfrwt beam="1">  1       21 0.11235723E+00 0.28188754E+03</pdfrwt>
<pdfrwt beam="2">  1       21 0.41846972E-02 0.28188754E+03</pdfrwt>
<totfact> 0.21918968E+05</totfact>
</mgrwt>
</event>
<event>
 8    1  0.9123825E-006  0.3958411E+03  0.7546771E-02  0.1045229E+00
         21   -1    0    0  504  503  0.00000000000E+00  0.00000000000E+00  0.72211769868E+03  0.72211769868E+03  0.00000000000E+00 0.  1.
         21   -1    0    0  503  504 -0.00000000000E+00 -0.00000000000E+00 -0.54246747696E+02  0.54246747696E+02  0.00000000000E+00 0.  1.
         25    2    1    2    0    0  0.19155880297E+02 -0.73617277015E+02  0.59531711863E+03  0.61303656543E+03  0.12499963035E+03 0.  0.
         25    2    1    2    0    0 -0.19155880297E+02  0.73617277015E+02  0.72553832352E+02  0.16332788095E+03  0.12500194751E+03 0.  0.
          5    1    3    3  501    0 -0.17954946241E+02  0.29639892751E+02  0.18498121224E+03  0.18825791410E+03  0.47000000000E+01 0.  1.
         -5    1    3    3    0  501  0.37110826538E+02 -0.10325716977E+03  0.41033590639E+03  0.42477865133E+03  0.47000000000E+01 0.  1.
          5    1    4    4  502    0  0.53183991067E+02  0.27221870389E+02  0.35203839953E+02  0.69505161541E+02  0.47000000000E+01 0. -1.
         -5    1    4    4    0  502 -0.72339871365E+02  0.46395406626E+02  0.37349992399E+02  0.93822719409E+02  0.47000000000E+01 0. -1.
<mgrwt>
<rscale>  0 0.39584106E+03</rscale>
<asrwt>0</asrwt>
<pdfrwt beam="1">  1       21 0.11109502E+00 0.39584106E+03</pdfrwt>
<pdfrwt beam="2">  1       21 0.83456540E-02 0.39584106E+03</pdfrwt>
<totfact> 0.66214543E+04</totfact>
</mgrwt>
</event>
<event>
 8    1  0.9123825E-006  0.3638359E+03  0.7546771E-02  0.1057075E+00
         21   -1    0    0  504  503  0.00000000000E+00  0.00000000000E+00  0.33033403208E+02  0.33033403208E+02  0.00000000000E+00 0. -1.
         21   -1    0    0  503  504 -0.00000000000E+00 -0.00000000000E+00 -0.10018384113E+04  0.10018384113E+04  0.00000000000E+00 0. -1.
         25    2    1    2    0    0 -0.35317208954E+02 -0.63218927685E+02 -0.79886990917E+03  0.81182536471E+03  0.12499341162E+03 0.  0.
         25    2    1    2    0    0  0.35317208954E+02  0.63218927685E+02 -0.16993509890E+03  0.22304644977E+03  0.12501137089E+03 0.  0.
          5    1    3    3  501    0  0.39622085119E+02 -0.53636565511E+02 -0.44096413546E+03  0.44600252191E+03  0.47000000000E+01 0.  1.
         -5    1    3    3    0  501 -0.74939294073E+02 -0.95823621739E+01 -0.35790577370E+03  0.36582284280E+03  0.47000000000E+01 0.  1.
          5    1    4    4  502    0 -0.15472673536E+02 -0.25849862514E+02 -0.83420364027E+01  0.31611684385E+02  0.47000000000E+01 0. -1.
         -5    1    4    4    0  502  0.50789882490E+02  0.89068790199E+02 -0.16159306249E+03  0.19143476538E+03  0.47000000000E+01 0. -1.
<mgrwt>
<rscale>  0 0.36383585E+03</rscale>
<asrwt>0</asrwt>
<pdfrwt beam="1">  1       21 0.50820628E-02 0.36383585E+03</pdfrwt>
<pdfrwt beam="2">  1       21 0.15412896E+00 0.36383585E+03</pdfrwt>
<totfact> 0.67954544E+04</totfact>
</mgrwt>
</event>
<event>
 8    1  0.9123825E-006  0.3121342E+03  0.7546771E-02  0.1079327E+00
         21   -1    0    0  504  503  0.00000000000E+00  0.00000000000E+00  0.18825413304E+03  0.18825413304E+03  0.00000000000E+00 0. -1.
         21   -1    0    0  503  504 -0.00000000000E+00 -0.00000000000E+00 -0.12938329644E+03  0.12938329644E+03  0.00000000000E+00 0. -1.
         25    2    1    2    0    0  0.65039072073E+02  0.66883938141E+02  0.24042439272E+02  0.15782051092E+03  0.12500293078E+03 0.  0.
         25    2    1    2    0    0 -0.65039072073E+02 -0.66883938141E+02  0.34828397332E+02  0.15981691857E+03  0.12499955249E+03 0.  0.
          5    1    3    3  501    0  0.20493319340E+02 -0.37161312275E+02  0.70752746507E+01  0.43279195683E+02  0.47000000000E+01 0. -1.
         -5    1    3    3    0  501  0.44545752733E+02  0.10404525042E+03  0.16967164622E+02  0.11454131524E+03  0.47000000000E+01 0. -1.
          5    1    4    4  502    0 -0.16949332390E+02  0.25249292616E+02  0.45829763749E+02  0.55202027964E+02  0.47000000000E+01 0. -1.
         -5    1    4    4    0  502 -0.48089739683E+02 -0.92133230757E+02 -0.11001366417E+02  0.10461489060E+03  0.47000000000E+01 0. -1.
<mgrwt>
<rscale>  0 0.31213420E+03</rscale>
<asrwt>0</asrwt>
<pdfrwt beam="1">  1       21 0.28962174E-01 0.31213420E+03</pdfrwt>
<pdfrwt beam="2">  1       21 0.19905123E-01 0.31213420E+03</pdfrwt>
<totfact> 0.25827467E+05</totfact>
</mgrwt>
</event>
<event>
 8    1  0.9123825E-006  0.3427664E+03  0.7546771E-02  0.1065624E+00
         21   -1    0    0  504  503  0.00000000000E+00  0.00000000000E+00  0.90665302837E+03  0.90665302837E+03  0.00000000000E+00 0.  1.
         21   -1    0    0  503  504 -0.00000000000E+00 -0.00000000000E+00 -0.32396305804E+02  0.32396305804E+02  0.00000000000E+00 0.  1.
         25    2    1    2    0    0 -0.37312675496E+02  0.66864421778E+02  0.19387283272E+03  0.24305446005E+03  0.12500283450E+03 0.  0.
         25    2    1    2    0    0  0.37312675496E+02 -0.66864421778E+02  0.68038388985E+03  0.69599487412E+03  0.12499416220E+03 0.  0.
          5    1    3    3  501    0 -0.79201197070E+02  0.26989189164E+02  0.83188491876E+02  0.11808328048E+03  0.47000000000E+01 0. -1.
         -5    1    3    3    0  501  0.41888521575E+02  0.39875232614E+02  0.11068434084E+03  0.12497117957E+03  0.47000000000E+01 0. -1.
          5    1    4    4  502    0 -0.16081008698E+02 -0.33353252971E+02  0.54824382504E+03  0.54951289341E+03  0.47000000000E+01 0. -1.
         -5    1    4    4    0  502  0.53393684194E+02 -0.33511168807E+02  0.13214006481E+03  0.14648198072E+03  0.47000000000E+01 0. -1.
<mgrwt>
<rscale>  0 0.34276644E+03</rscale>
<asrwt>0</asrwt>
<pdfrwt beam="1">  1       21 0.13948506E+00 0.34276644E+03</pdfrwt>
<pdfrwt beam="2">  1       21 0.49840477E-02 0.34276644E+03</pdfrwt>
<totfact> 0.92344866E+04</totfact>
</mgrwt>
</event>
<event>
 8    1  0.9123825E-006  0.3175817E+03  0.7546771E-02  0.1076768E+00
         21   -1    0    0  504  503  0.00000000000E+00  0.00000000000E+00  0.64613986580E+02  0.64613986580E+02  0.00000000000E+00 0. -1.
         21   -1    0    0  503  504 -0.00000000000E+00 -0.00000000000E+00 -0.39023331232E+03  0.39023331232E+03  0.00000000000E+00 0. -1.
         25    2    1    2    0    0  0.87907792852E+02 -0.28103600957E+02 -0.20967484833E+03  0.26097623228E+03  0.12500983706E+03 0.  0.
         25    2    1    2    0    0 -0.87907792852E+02  0.28103600957E+02 -0.11594447740E+03  0.19387106661E+03  0.12500110479E+03 0.  0.
          5    1    3    3  501    0  0.10827295847E+03 -0.48625627340E+02 -0.13003830064E+03  0.17612363500E+03  0.47000000000E+01 0. -1.
         -5    1    3    3    0  501 -0.20365165623E+02  0.20522026383E+02 -0.79636547693E+02  0.84852597286E+02  0.47000000000E+01 0. -1.
          5    1    4    4  502    0 -0.38380617261E+02  0.73343825722E+02 -0.38825482897E+02  0.91552698895E+02  0.47000000000E+01 0.  1.
         -5    1    4    4    0  502 -0.49527175591E+02 -0.45240224766E+02 -0.77118994507E+02  0.10231836772E+03  0.47000000000E+01 0.  1.
<mgrwt>
<rscale>  0 0.31758167E+03</rscale>
<asrwt>0</asrwt>
<pdfrwt beam="1">  1       21 0.99406135E-02 0.31758167E+03</pdfrwt>
<pdfrwt beam="2">  1       21 0.60035893E-01 0.31758167E+03</pdfrwt>
<totfact> 0.20527442E+05</totfact>
</mgrwt>
</event>
<event>
 8    1  0.9123825E-006  0.3539069E+03  0.7546771E-02  0.1061023E+00
         21   -1    0    0  504  503  0.00000000000E+00  0.00000000000E+00  0.44537328171E+02  0.44537328171E+02  0.00000000000E+00 0.  1.
         21   -1    0    0  503  504 -0.00000000000E+00 -0.00000000000E+00 -0.70306260407E+03  0.70306260407E+03  0.00000000000E+00 0.  1.
         25    2    1    2    0    0  0.17479809013E+02  0.30508213748E+02 -0.58320048201E+03  0.59748197637E+03  0.12500246016E+03 0.  0.
         25    2    1    2    0    0 -0.17479809013E+02 -0.30508213748E+02 -0.75324793888E+02  0.15011795587E+03  0.12500112507E+03 0.  0.
          5    1    3    3  501    0  0.17829081680E+02  0.65065080963E+02 -0.52712408435E+03  0.53144447614E+03  0.47000000000E+01 0. -1.
         -5    1    3    3    0  501 -0.34927266770E+00 -0.34556867215E+02 -0.56076397657E+02  0.66037500235E+02  0.47000000000E+01 0. -1.
          5    1    4    4  502    0  0.10128530017E+02 -0.10740178932E+02  0.33023030665E+02  0.36476692806E+02  0.47000000000E+01 0. -1.
         -5    1    4    4    0  502 -0.27608339030E+02 -0.19768034816E+02 -0.10834782455E+03  0.11364126306E+03  0.47000000000E+01 0. -1.
<mgrwt>
<rscale>  0 0.35390694E+03</rscale>
<asrwt>0</asrwt>
<pdfrwt beam="1">  1       21 0.68518964E-02 0.35390694E+03</pdfrwt>
<pdfrwt beam="2">  1       21 0.10816348E+00 0.35390694E+03</pdfrwt>
<totfact> 0.10114751E+05</totfact>
</mgrwt>
</event>
<event>
 8    1  0.9123825E-006  0.2702959E+03  0.7546771E-02  0.1101110E+00
         21   -1    0    0  504  503  0.00000000000E+00  0.00000000000E+00  0.14951214626E+03  0.14951214626E+03  0.00000000000E+00 0. -1.
         21   -1    0    0  503  504 -0.00000000000E+00 -0.00000000000E+00 -0.12216374636E+03  0.12216374636E+03  0.00000000000E+00 0. -1.
         25    2    1    2    0    0 -0.29056979469E+02 -0.39862912965E+02  0.28188985961E+02  0.13730565899E+03  0.12499946070E+03 0.  0.
         25    2    1    2    0    0  0.29056979469E+02  0.39862912965E+02 -0.84058605478E+00  0.13437023362E+03  0.12498517197E+03 0.  0.
          5    1    3    3  501    0  0.11101702263E+02 -0.53113818705E+02  0.62315082934E+02  0.82762220195E+02  0.47000000000E+01 0.  1.
         -5    1    3    3    0  501 -0.40158681732E+02  0.13250905740E+02 -0.34126096973E+02  0.54543438798E+02  0.47000000000E+01 0.  1.
          5    1    4    4  502    0  0.11653177471E+02  0.14775922076E+02  0.61667033600E+02  0.64645475104E+02  0.47000000000E+01 0. -1.
         -5    1    4    4    0  502  0.17403801998E+02  0.25086990889E+02 -0.62507619655E+02  0.69724758520E+02  0.47000000000E+01 0. -1.
<mgrwt>
<rscale>  0 0.27029587E+03</rscale>
<asrwt>0</asrwt>
<pdfrwt beam="1">  1       21 0.23001869E-01 0.27029587E+03</pdfrwt>
<pdfrwt beam="2">  1       21 0.18794422E-01 0.27029587E+03</pdfrwt>
<totfact> 0.45286299E+05</totfact>
</mgrwt>
</event>
<event>
 8    1  0.9123825E-006  0.2629338E+03  0.7546771E-02  0.1105393E+00
         21   -1    0    0  504  503  0.00000000000E+00  0.00000000000E+00  0.43540538473E+02  0.43540538473E+02  0.00000000000E+00 0. -1.
         21   -1    0    0  503  504 -0.00000000000E+00 -0.00000000000E+00 -0.39695310975E+03  0.39695310975E+03  0.00000000000E+00 0. -1.
         25    2    1    2    0    0 -0.16750693196E+01  0.38484426021E+02 -0.19898250826E+03  0.23812609361E+03  0.12500456376E+03 0.  0.
         25    2    1    2    0    0  0.16750693196E+01 -0.38484426021E+02 -0.15443006302E+03  0.20236755461E+03  0.12498050206E+03 0.  0.
          5    1    3    3  501    0  0.76419759232E+01  0.55867986098E+02 -0.20827381533E+03  0.21582331620E+03  0.47000000000E+01 0. -1.
         -5    1    3    3    0  501 -0.93170452427E+01 -0.17383560077E+02  0.92913070659E+01  0.22302777405E+02  0.47000000000E+01 0. -1.
          5    1    4    4  502    0 -0.29032527381E+02 -0.75252249314E+02 -0.79792603656E+02  0.11355500108E+03  0.47000000000E+01 0.  1.
         -5    1    4    4    0  502  0.30707596700E+02  0.36767823293E+02 -0.74637459361E+02  0.88812553531E+02  0.47000000000E+01 0.  1.
<mgrwt>
<rscale>  0 0.26293385E+03</rscale>
<asrwt>0</asrwt>
<pdfrwt beam="1">  1       21 0.66985444E-02 0.26293385E+03</pdfrwt>
<pdfrwt beam="2">  1       21 0.61069709E-01 0.26293385E+03</pdfrwt>
<totfact> 0.40067089E+05</totfact>
</mgrwt>
</event>
<event>
 8    1  0.9123825E-006  0.4754890E+03  0.7546771E-02  0.1020382E+00
         21   -1    0    0  504  503  0.00000000000E+00  0.00000000000E+00  0.40751527618E+03  0.40751527618E+03  0.00000000000E+00 0. -1.
         21   -1    0    0  503  504 -0.00000000000E+00 -0.00000000000E+00 -0.13870018340E+03  0.13870018340E+03  0.00000000000E+00 0. -1.
         25    2    1    2    0    0  0.13156809798E+03 -0.63584867738E+02 -0.26187362550E+02  0.19407235651E+03  0.12500040717E+03 0.  0.
         25    2    1    2    0    0 -0.13156809798E+03  0.63584867738E+02  0.29500245532E+03  0.35214310307E+03  0.12500046633E+03 0.  0.
          5    1    3    3  501    0  0.11431754247E+03  0.78413784884E+01  0.33679965084E+01  0.11473195341E+03  0.47000000000E+01 0. -1.
         -5    1    3    3    0  501  0.17250555510E+02 -0.71426246226E+02 -0.29555359058E+02  0.79340403102E+02  0.47000000000E+01 0. -1.
          5    1    4    4  502    0 -0.66468092668E+02  0.48864130147E+02  0.26720500429E+03  0.27968967603E+03  0.47000000000E+01 0.  1.
         -5    1    4    4    0  502 -0.65100005310E+02  0.14720737591E+02  0.27797451032E+02  0.72453427044E+02  0.47000000000E+01 0.  1.
<mgrwt>
<rscale>  0 0.47548898E+03</rscale>
<asrwt>0</asrwt>
<pdfrwt beam="1">  1       21 0.62694657E-01 0.47548898E+03</pdfrwt>
<pdfrwt beam="2">  1       21 0.21338490E-01 0.47548898E+03</pdfrwt>
<totfact> 0.44001976E+04</totfact>
</mgrwt>
</event>
<event>
 8    1  0.9123825E-006  0.3424297E+03  0.7546771E-02  0.1065766E+00
         21   -1    0    0  504  503  0.00000000000E+00  0.00000000000E+00  0.23406899593E+02  0.23406899593E+02  0.00000000000E+00 0.  1.
         21   -1    0    0  503  504 -0.00000000000E+00 -0.00000000000E+00 -0.12523881095E+04  0.12523881095E+04  0.00000000000E+00 0.  1.
         25    2    1    2    0    0 -0.58142646355E+02 -0.99354334906E+02 -0.69231180535E+03  0.71286435386E+03  0.12501239931E+03 0.  0.
         25    2    1    2    0    0  0.58142646355E+02  0.99354334906E+02 -0.53666940454E+03  0.56293065522E+03  0.12500008651E+03 0.  0.
          5    1    3    3  501    0  0.15098566696E+02 -0.11175183062E+02 -0.11641703441E+02  0.22593598468E+02  0.47000000000E+01 0. -1.
         -5    1    3    3    0  501 -0.73241213052E+02 -0.88179151844E+02 -0.68067010191E+03  0.69027075539E+03  0.47000000000E+01 0. -1.
          5    1    4    4  502    0  0.60843783787E+02  0.12598911733E+03 -0.48136411548E+03  0.50130701709E+03  0.47000000000E+01 0.  1.
         -5    1    4    4    0  502 -0.27011374319E+01 -0.26634782428E+02 -0.55305289056E+02  0.61623638127E+02  0.47000000000E+01 0.  1.
<mgrwt>
<rscale>  0 0.34242969E+03</rscale>
<asrwt>0</asrwt>
<pdfrwt beam="1">  1       21 0.36010615E-02 0.34242969E+03</pdfrwt>
<pdfrwt beam="2">  1       21 0.19267509E+00 0.34242969E+03</pdfrwt>
<totfact> 0.65219877E+04</totfact>
</mgrwt>
</event>
<event>
 8    1  0.9123825E-006  0.2688582E+03  0.7546771E-02  0.1101935E+00
         21   -1    0    0  504  503  0.00000000000E+00  0.00000000000E+00  0.43568849744E+02  0.43568849744E+02  0.00000000000E+00 0. -1.
         21   -1    0    0  503  504 -0.00000000000E+00 -0.00000000000E+00 -0.41477297669E+03  0.41477297669E+03  0.00000000000E+00 0. -1.
         25    2    1    2    0    0 -0.38377251009E+02  0.43219619418E+01 -0.13290941961E+03  0.18649543195E+03  0.12499655823E+03 0.  0.
         25    2    1    2    0    0  0.38377251009E+02 -0.43219619418E+01 -0.23829470734E+03  0.27184639448E+03  0.12499840758E+03 0.  0.
          5    1    3    3  501    0 -0.55319631968E+01  0.58477348583E+02 -0.31441273520E+02  0.66789569505E+02  0.47000000000E+01 0.  1.
         -5    1    3    3    0  501 -0.32845287812E+02 -0.54155386641E+02 -0.10146814609E+03  0.11970586245E+03  0.47000000000E+01 0.  1.
          5    1    4    4  502    0 -0.44148214784E+02  0.88391580260E+01 -0.62819472807E+02  0.77431077398E+02  0.47000000000E+01 0. -1.
         -5    1    4    4    0  502  0.82525465793E+02 -0.13161119968E+02 -0.17547523453E+03  0.19441531709E+03  0.47000000000E+01 0. -1.
<mgrwt>
<rscale>  0 0.26885819E+03</rscale>
<asrwt>0</asrwt>
<pdfrwt beam="1">  1       21 0.67029004E-02 0.26885819E+03</pdfrwt>
<pdfrwt beam="2">  1       21 0.63811223E-01 0.26885819E+03</pdfrwt>
<totfact> 0.36325419E+05</totfact>
</mgrwt>
</event>
<event>
 8    1  0.9123825E-006  0.2570738E+03  0.7546771E-02  0.1108914E+00
         21   -1    0    0  504  503  0.00000000000E+00  0.00000000000E+00  0.12627376015E+04  0.12627376015E+04  0.00000000000E+00 0. -1.
         21   -1    0    0  503  504 -0.00000000000E+00 -0.00000000000E+00 -0.13084058234E+02  0.13084058234E+02  0.00000000000E+00 0. -1.
         25    2    1    2    0    0  0.11921521009E+02  0.26789575843E+02  0.65488060338E+03  0.66734843192E+03  0.12500208348E+03 0.  0.
         25    2    1    2    0    0 -0.11921521009E+02 -0.26789575843E+02  0.59477293991E+03  0.60847322783E+03  0.12500005961E+03 0.  0.
          5    1    3    3  501    0 -0.14837207068E+02  0.53004507359E+02  0.13182316585E+03  0.14293025421E+03  0.47000000000E+01 0.  1.
         -5    1    3    3    0  501  0.26758728077E+02 -0.26214931516E+02  0.52305743753E+03  0.52441817771E+03  0.47000000000E+01 0.  1.
          5    1    4    4  502    0  0.52680074150E+02  0.10025173197E+02  0.24045707542E+03  0.24640898813E+03  0.47000000000E+01 0.  1.
         -5    1    4    4    0  502 -0.64601595159E+02 -0.36814749040E+02  0.35431586448E+03  0.36206423970E+03  0.47000000000E+01 0.  1.
<mgrwt>
<rscale>  0 0.25707378E+03</rscale>
<asrwt>0</asrwt>
<pdfrwt beam="1">  1       21 0.19426723E+00 0.25707378E+03</pdfrwt>
<pdfrwt beam="2">  1       21 0.20129330E-02 0.25707378E+03</pdfrwt>
<totfact> 0.17292766E+05</totfact>
</mgrwt>
</event>
<event>
 8    1  0.9123825E-006  0.3328504E+03  0.7546771E-02  0.1069883E+00
         21   -1    0    0  504  503  0.00000000000E+00  0.00000000000E+00  0.22704067163E+03  0.22704067163E+03  0.00000000000E+00 0.  1.
         21   -1    0    0  503  504 -0.00000000000E+00 -0.00000000000E+00 -0.12199291814E+03  0.12199291814E+03  0.00000000000E+00 0.  1.
         25    2    1    2    0    0  0.67583308134E+02 -0.74900962984E+02  0.68643883387E+01  0.16078108873E+03  0.12500312345E+03 0.  0.
         25    2    1    2    0    0 -0.67583308134E+02  0.74900962984E+02  0.98183365145E+02  0.18825250103E+03  0.12498549180E+03 0.  0.
          5    1    3    3  501    0  0.25448939224E+02 -0.36715559081E+02  0.65203408784E+02  0.79178629082E+02  0.47000000000E+01 0.  1.
         -5    1    3    3    0  501  0.42134368910E+02 -0.38185403903E+02 -0.58339020445E+02  0.81602459652E+02  0.47000000000E+01 0.  1.
          5    1    4    4  502    0 -0.22191290280E+02 -0.27793237521E+02 -0.43384621466E+01  0.36136265302E+02  0.47000000000E+01 0. -1.
         -5    1    4    4    0  502 -0.45392017854E+02  0.10269420050E+03  0.10252182729E+03  0.15211623573E+03  0.47000000000E+01 0. -1.
<mgrwt>
<rscale>  0 0.33285044E+03</rscale>
<asrwt>0</asrwt>
<pdfrwt beam="1">  1       21 0.34929334E-01 0.33285044E+03</pdfrwt>
<pdfrwt beam="2">  1       21 0.18768141E-01 0.33285044E+03</pdfrwt>
<totfact> 0.19806933E+05</totfact>
</mgrwt>
</event>
<event>
 8    1  0.9123825E-006  0.2770942E+03  0.7546771E-02  0.1097287E+00
         21   -1    0    0  504  503  0.00000000000E+00  0.00000000000E+00  0.75092205852E+02  0.75092205852E+02  0.00000000000E+00 0. -1.
         21   -1    0    0  503  504 -0.00000000000E+00 -0.00000000000E+00 -0.25562297072E+03  0.25562297072E+03  0.00000000000E+00 0. -1.
         25    2    1    2    0    0 -0.77343437393E+01 -0.37322772476E+01 -0.19619093886E+02  0.12677444196E+03  0.12495239223E+03 0.  0.
         25    2    1    2    0    0  0.77343437393E+01  0.37322772476E+01 -0.16091167099E+03  0.20394073461E+03  0.12500202962E+03 0.  0.
          5    1    3    3  501    0 -0.52007382190E+02 -0.10987127170E+01 -0.50401246625E+02  0.72583404668E+02  0.47000000000E+01 0.  1.
         -5    1    3    3    0  501  0.44273038451E+02 -0.26335645306E+01  0.30782152739E+02  0.54191037294E+02  0.47000000000E+01 0.  1.
          5    1    4    4  502    0  0.76707604568E+01  0.63491895616E+02 -0.68890459325E+02  0.94117196946E+02  0.47000000000E+01 0. -1.
         -5    1    4    4    0  502  0.63583282502E-01 -0.59759618369E+02 -0.92021211661E+02  0.10982353767E+03  0.47000000000E+01 0. -1.
<mgrwt>
<rscale>  0 0.27709416E+03</rscale>
<asrwt>0</asrwt>
<pdfrwt beam="1">  1       21 0.11552647E-01 0.27709416E+03</pdfrwt>
<pdfrwt beam="2">  1       21 0.39326611E-01 0.27709416E+03</pdfrwt>
<totfact> 0.38439214E+05</totfact>
</mgrwt>
</event>
<event>
 8    1  0.9123825E-006  0.2905854E+03  0.7546771E-02  0.1090044E+00
         21   -1    0    0  504  503  0.00000000000E+00  0.00000000000E+00  0.53127088838E+02  0.53127088838E+02  0.00000000000E+00 0.  1.
         21   -1    0    0  503  504 -0.00000000000E+00 -0.00000000000E+00 -0.39734842020E+03  0.39734842020E+03  0.00000000000E+00 0.  1.
         25    2    1    2    0    0 -0.42055375473E+02 -0.18945257239E+02 -0.26192804800E+03  0.29387408286E+03  0.12501238685E+03 0.  0.
         25    2    1    2    0    0  0.42055375473E+02  0.18945257239E+02 -0.82293283363E+02  0.15660142618E+03  0.12499697924E+03 0.  0.
          5    1    3    3  501    0  0.28499749787E+01 -0.63582091386E+02 -0.17465768985E+03  0.18595215333E+03  0.47000000000E+01 0. -1.
         -5    1    3    3    0  501 -0.44905350452E+02  0.44636834148E+02 -0.87270358148E+02  0.10792192953E+03  0.47000000000E+01 0. -1.
          5    1    4    4  502    0 -0.13612064290E+02 -0.43177949408E+02 -0.48401281115E+02  0.66440933338E+02  0.47000000000E+01 0.  1.
         -5    1    4    4    0  502  0.55667439762E+02  0.62123206646E+02 -0.33892002248E+02  0.90160492845E+02  0.47000000000E+01 0.  1.
<mgrwt>
<rscale>  0 0.29058537E+03</rscale>
<asrwt>0</asrwt>
<pdfrwt beam="1">  1       21 0.81733987E-02 0.29058537E+03</pdfrwt>
<pdfrwt beam="2">  1       21 0.61130523E-01 0.29058537E+03</pdfrwt>
<totfact> 0.28081160E+05</totfact>
</mgrwt>
</event>
<event>
 8    1  0.9123825E-006  0.2962573E+03  0.7546771E-02  0.1087127E+00
         21   -1    0    0  504  503  0.00000000000E+00  0.00000000000E+00  0.61128259706E+03  0.61128259706E+03  0.00000000000E+00 0.  1.
         21   -1    0    0  503  504 -0.00000000000E+00 -0.00000000000E+00 -0.35895171772E+02  0.35895171772E+02  0.00000000000E+00 0.  1.
         25    2    1    2    0    0 -0.74050257755E+02 -0.28496740354E+02  0.27812466272E+03  0.31507692778E+03  0.12499855007E+03 0.  0.
         25    2    1    2    0    0  0.74050257755E+02  0.28496740354E+02  0.29726276256E+03  0.33210084105E+03  0.12502125314E+03 0.  0.
          5    1    3    3  501    0 -0.17918826172E+02  0.45744079358E+02  0.58747027254E+02  0.76726190697E+02  0.47000000000E+01 0.  1.
         -5    1    3    3    0  501 -0.56131431583E+02 -0.74240819712E+02  0.21937763547E+03  0.23835073708E+03  0.47000000000E+01 0.  1.
          5    1    4    4  502    0  0.96307003803E+02 -0.13512404758E+02  0.16641279383E+03  0.19280283196E+03  0.47000000000E+01 0. -1.
         -5    1    4    4    0  502 -0.22256746048E+02  0.42009145112E+02  0.13084996874E+03  0.13929800909E+03  0.47000000000E+01 0. -1.
<mgrwt>
<rscale>  0 0.29625728E+03</rscale>
<asrwt>0</asrwt>
<pdfrwt beam="1">  1       21 0.94043469E-01 0.29625728E+03</pdfrwt>
<pdfrwt beam="2">  1       21 0.55223346E-02 0.29625728E+03</pdfrwt>
<totfact> 0.20905642E+05</totfact>
</mgrwt>
</event>
<event>
 8    1  0.9123825E-006  0.2937881E+03  0.7546771E-02  0.1088388E+00
         21   -1    0    0  504  503  0.00000000000E+00  0.00000000000E+00  0.83163962112E+02  0.83163962112E+02  0.00000000000E+00 0.  1.
         21   -1    0    0  503  504 -0.00000000000E+00 -0.00000000000E+00 -0.25946160743E+03  0.25946160743E+03  0.00000000000E+00 0.  1.
         25    2    1    2    0    0 -0.57760112768E+02 -0.51036603361E+02 -0.92430781122E+02  0.17351942483E+03  0.12499830393E+03 0.  0.
         25    2    1    2    0    0  0.57760112768E+02  0.51036603361E+02 -0.83866864200E+02  0.16910614471E+03  0.12498908656E+03 0.  0.
          5    1    3    3  501    0  0.98681372182E+01 -0.65103786059E+02 -0.11491251551E+02  0.67007626085E+02  0.47000000000E+01 0.  1.
         -5    1    3    3    0  501 -0.67628249986E+02  0.14067182697E+02 -0.80939529571E+02  0.10651179875E+03  0.47000000000E+01 0.  1.
          5    1    4    4  502    0  0.74029058341E+02  0.79706459672E+02 -0.44708062780E+02  0.11770438424E+03  0.47000000000E+01 0.  1.
         -5    1    4    4    0  502 -0.16268945573E+02 -0.28669856310E+02 -0.39158801420E+02  0.51401760472E+02  0.47000000000E+01 0.  1.
<mgrwt>
<rscale>  0 0.29378805E+03</rscale>
<asrwt>0</asrwt>
<pdfrwt beam="1">  1       21 0.12794456E-01 0.29378805E+03</pdfrwt>
<pdfrwt beam="2">  1       21 0.39917169E-01 0.29378805E+03</pdfrwt>
<totfact> 0.30908676E+05</totfact>
</mgrwt>
</event>
<event>
 8    1  0.9123825E-006  0.3180468E+03  0.7546771E-02  0.1076552E+00
         21   -1    0    0  504  503  0.00000000000E+00  0.00000000000E+00  0.71646796038E+02  0.71646796038E+02  0.00000000000E+00 0.  1.
         21   -1    0    0  503  504 -0.00000000000E+00 -0.00000000000E+00 -0.35295973949E+03  0.35295973949E+03  0.00000000000E+00 0.  1.
         25    2    1    2    0    0  0.15102114025E+02  0.18876018687E+02 -0.13448703280E+02  0.12802438820E+03  0.12499999370E+03 0.  0.
         25    2    1    2    0    0 -0.15102114025E+02 -0.18876018687E+02 -0.26786424017E+03  0.29658214733E+03  0.12500136408E+03 0.  0.
          5    1    3    3  501    0  0.32679078099E+02  0.43954317827E+02 -0.53955181519E+02  0.77026981077E+02  0.47000000000E+01 0. -1.
         -5    1    3    3    0  501 -0.17576964074E+02 -0.25078299139E+02  0.40506478239E+02  0.50997407122E+02  0.47000000000E+01 0. -1.
          5    1    4    4  502    0  0.27874759900E+02 -0.51403849036E+02 -0.69384887836E+02  0.90860940977E+02  0.47000000000E+01 0. -1.
         -5    1    4    4    0  502 -0.42976873925E+02  0.32527830349E+02 -0.19847935233E+03  0.20572120635E+03  0.47000000000E+01 0. -1.
<mgrwt>
<rscale>  0 0.31804675E+03</rscale>
<asrwt>0</asrwt>
<pdfrwt beam="1">  1       21 0.11022584E-01 0.31804675E+03</pdfrwt>
<pdfrwt beam="2">  1       21 0.54301499E-01 0.31804675E+03</pdfrwt>
<totfact> 0.21177309E+05</totfact>
</mgrwt>
</event>
<event>
 8    1  0.9123825E-006  0.4767216E+03  0.7546771E-02  0.1020040E+00
         21   -1    0    0  504  503  0.00000000000E+00  0.00000000000E+00  0.25627212475E+03  0.25627212475E+03  0.00000000000E+00 0. -1.
         21   -1    0    0  503  504 -0.00000000000E+00 -0.00000000000E+00 -0.22170134644E+03  0.22170134644E+03  0.00000000000E+00 0. -1.
         25    2    1    2    0    0  0.28796996453E+02 -0.56607205331E+02  0.21056915587E+03  0.25297146351E+03  0.12498619624E+03 0.  0.
         25    2    1    2    0    0 -0.28796996453E+02  0.56607205331E+02 -0.17599837756E+03  0.22500200767E+03  0.12496732314E+03 0.  0.
          5    1    3    3  501    0  0.37162590947E+02 -0.94187401732E+02  0.15523326825E+03  0.18539628470E+03  0.47000000000E+01 0.  1.
         -5    1    3    3    0  501 -0.83655944938E+01  0.37580196401E+02  0.55335887620E+02  0.67575178812E+02  0.47000000000E+01 0.  1.
          5    1    4    4  502    0  0.25985993462E+02 -0.18571400088E+02 -0.85566667103E+01  0.33398732051E+02  0.47000000000E+01 0. -1.
         -5    1    4    4    0  502 -0.54782989915E+02  0.75178605419E+02 -0.16744171085E+03  0.19160327562E+03  0.47000000000E+01 0. -1.
<mgrwt>
<rscale>  0 0.47672162E+03</rscale>
<asrwt>0</asrwt>
<pdfrwt beam="1">  1       21 0.39426480E-01 0.47672162E+03</pdfrwt>
<pdfrwt beam="2">  1       21 0.34107900E-01 0.47672162E+03</pdfrwt>
<totfact> 0.46994926E+04</totfact>
</mgrwt>
</event>
<event>
 8    1  0.9123825E-006  0.2719845E+03  0.7546771E-02  0.1100149E+00
         21   -1    0    0  504  503  0.00000000000E+00  0.00000000000E+00  0.14886134074E+03  0.14886134074E+03  0.00000000000E+00 0. -1.
         21   -1    0    0  503  504 -0.00000000000E+00 -0.00000000000E+00 -0.12423567619E+03  0.12423567619E+03  0.00000000000E+00 0. -1.
         25    2    1    2    0    0 -0.36679503679E+02  0.15959677060E+01 -0.26839432031E+02  0.13301906197E+03  0.12500313049E+03 0.  0.
         25    2    1    2    0    0  0.36679503679E+02 -0.15959677060E+01  0.51465096587E+02  0.14007795496E+03  0.12500097678E+03 0.  0.
          5    1    3    3  501    0  0.20068409795E+02  0.38590611334E+02  0.22390287882E+02  0.49146631077E+02  0.47000000000E+01 0.  1.
         -5    1    3    3    0  501 -0.56747913474E+02 -0.36994643628E+02 -0.49229719913E+02  0.83872430891E+02  0.47000000000E+01 0.  1.
          5    1    4    4  502    0 -0.40989746746E+02 -0.25811559787E+02  0.16325667812E+02  0.51332381461E+02  0.47000000000E+01 0. -1.
         -5    1    4    4    0  502  0.77669250425E+02  0.24215592081E+02  0.35139428775E+02  0.88745573501E+02  0.47000000000E+01 0. -1.
<mgrwt>
<rscale>  0 0.27198448E+03</rscale>
<asrwt>0</asrwt>
<pdfrwt beam="1">  1       21 0.22901745E-01 0.27198448E+03</pdfrwt>
<pdfrwt beam="2">  1       21 0.19113181E-01 0.27198448E+03</pdfrwt>
<totfact> 0.44235328E+05</totfact>
</mgrwt>
</event>
<event>
 8    1  0.9123825E-006  0.3229402E+03  0.7546771E-02  0.1074304E+00
         21   -1    0    0  504  503  0.00000000000E+00  0.00000000000E+00  0.57157116704E+03  0.57157116704E+03  0.00000000000E+00 0.  1.
         21   -1    0    0  503  504 -0.00000000000E+00 -0.00000000000E+00 -0.45615652159E+02  0.45615652159E+02  0.00000000000E+00 0.  1.
         25    2    1    2    0    0 -0.80910979655E+02  0.38266848587E+01  0.38210494542E+03  0.41010970776E+03  0.12499821173E+03 0.  0.
         25    2    1    2    0    0  0.80910979655E+02 -0.38266848587E+01  0.14385056946E+03  0.20707711144E+03  0.12500685423E+03 0.  0.
          5    1    3    3  501    0 -0.33851683677E+02 -0.60228606694E+02  0.18432075760E+03  0.19690010978E+03  0.47000000000E+01 0. -1.
         -5    1    3    3    0  501 -0.47059295978E+02  0.64055291553E+02  0.19778418783E+03  0.21320959797E+03  0.47000000000E+01 0. -1.
          5    1    4    4  502    0 -0.10667098695E+02 -0.10639917628E+02 -0.16121789081E+02  0.22560960194E+02  0.47000000000E+01 0.  1.
         -5    1    4    4    0  502  0.91578078350E+02  0.68132327691E+01  0.15997235854E+03  0.18451615125E+03  0.47000000000E+01 0.  1.
<mgrwt>
<rscale>  0 0.32294019E+03</rscale>
<asrwt>0</asrwt>
<pdfrwt beam="1">  1       21 0.87934021E-01 0.32294019E+03</pdfrwt>
<pdfrwt beam="2">  1       21 0.70177930E-02 0.32294019E+03</pdfrwt>
<totfact> 0.16056472E+05</totfact>
</mgrwt>
</event>
<event>
 8    1  0.9123825E-006  0.2745474E+03  0.7546771E-02  0.1098705E+00
         21   -1    0    0  504  503  0.00000000000E+00  0.00000000000E+00  0.11258453201E+04  0.11258453201E+04  0.00000000000E+00 0.  1.
         21   -1    0    0  503  504 -0.00000000000E+00 -0.00000000000E+00 -0.16737710453E+02  0.16737710453E+02  0.00000000000E+00 0.  1.
         25    2    1    2    0    0  0.37142612450E+02 -0.38087475173E+02  0.63656990663E+03  0.65090405897E+03  0.12499847409E+03 0.  0.
         25    2    1    2    0    0 -0.37142612450E+02  0.38087475173E+02  0.47253770304E+03  0.49167897161E+03  0.12500440354E+03 0.  0.
          5    1    3    3  501    0  0.27090190990E+02  0.44486446325E+01  0.24021586346E+02  0.36780368371E+02  0.47000000000E+01 0.  1.
         -5    1    3    3    0  501  0.10052421460E+02 -0.42536119805E+02  0.61254832029E+03  0.61412369060E+03  0.47000000000E+01 0.  1.
          5    1    4    4  502    0  0.42654374024E+02  0.46686919679E+01  0.95304145866E+02  0.10462390992E+03  0.47000000000E+01 0. -1.
         -5    1    4    4    0  502 -0.79796986474E+02  0.33418783205E+02  0.37723355717E+03  0.38705506168E+03  0.47000000000E+01 0. -1.
<mgrwt>
<rscale>  0 0.27454743E+03</rscale>
<asrwt>0</asrwt>
<pdfrwt beam="1">  1       21 0.17320691E+00 0.27454743E+03</pdfrwt>
<pdfrwt beam="2">  1       21 0.25750333E-02 0.27454743E+03</pdfrwt>
<totfact> 0.15940651E+05</totfact>
</mgrwt>
</event>
<event>
 8    1  0.9123825E-006  0.6520665E+03  0.7546771E-02  0.9802909E-01
         21   -1    0    0  504  503  0.00000000000E+00  0.00000000000E+00  0.14774425397E+03  0.14774425397E+03  0.00000000000E+00 0. -1.
         21   -1    0    0  503  504 -0.00000000000E+00 -0.00000000000E+00 -0.71947078962E+03  0.71947078962E+03  0.00000000000E+00 0. -1.
         25    2    1    2    0    0 -0.23221556362E+01 -0.25378565026E+03 -0.50138230339E+03  0.57569282746E+03  0.12500187500E+03 0.  0.
         25    2    1    2    0    0  0.23221556362E+01  0.25378565026E+03 -0.70344232264E+02  0.29152221612E+03  0.12499737115E+03 0.  0.
          5    1    3    3  501    0  0.23150817189E+02 -0.62861946302E+02 -0.25060129267E+03  0.25944302364E+03  0.47000000000E+01 0. -1.
         -5    1    3    3    0  501 -0.25472972825E+02 -0.19092370396E+03 -0.25078101072E+03  0.31624980382E+03  0.47000000000E+01 0. -1.
          5    1    4    4  502    0 -0.22171430022E+02 -0.15979746882E+01  0.65575833972E+01  0.23647784935E+02  0.47000000000E+01 0. -1.
         -5    1    4    4    0  502  0.24493585658E+02  0.25538362495E+03 -0.76901815662E+02  0.26787443119E+03  0.47000000000E+01 0. -1.
<mgrwt>
<rscale>  0 0.65206648E+03</rscale>
<asrwt>0</asrwt>
<pdfrwt beam="1">  1       21 0.22729885E-01 0.65206648E+03</pdfrwt>
<pdfrwt beam="2">  1       21 0.11068781E+00 0.65206648E+03</pdfrwt>
<totfact> 0.98753523E+03</totfact>
</mgrwt>
</event>
<event>
 8    1  0.9123825E-006  0.2611106E+03  0.7546771E-02  0.1106478E+00
         21   -1    0    0  504  503  0.00000000000E+00  0.00000000000E+00  0.38275043626E+03  0.38275043626E+03  0.00000000000E+00 0.  1.
         21   -1    0    0  503  504 -0.00000000000E+00 -0.00000000000E+00 -0.44532126751E+02  0.44532126751E+02  0.00000000000E+00 0.  1.
         25    2    1    2    0    0  0.65168522648E+01  0.23636543439E+02  0.12242910548E+03  0.17670230613E+03  0.12503464949E+03 0.  0.
         25    2    1    2    0    0 -0.65168522648E+01 -0.23636543439E+02  0.21578920403E+03  0.25058025689E+03  0.12499731604E+03 0.  0.
          5    1    3    3  501    0 -0.91781492539E+01 -0.50344741882E+01 -0.23996671545E+02  0.26599146590E+02  0.47000000000E+01 0. -1.
         -5    1    3    3    0  501  0.15695001519E+02  0.28671017628E+02  0.14642577703E+03  0.15010315954E+03  0.47000000000E+01 0. -1.
          5    1    4    4  502    0 -0.61996218400E+02 -0.27269680280E+02  0.14765076180E+03  0.16251155042E+03  0.47000000000E+01 0. -1.
         -5    1    4    4    0  502  0.55479366135E+02  0.36331368403E+01  0.68138442226E+02  0.88068706469E+02  0.47000000000E+01 0. -1.
<mgrwt>
<rscale>  0 0.26111064E+03</rscale>
<asrwt>0</asrwt>
<pdfrwt beam="1">  1       21 0.58884680E-01 0.26111064E+03</pdfrwt>
<pdfrwt beam="2">  1       21 0.68510967E-02 0.26111064E+03</pdfrwt>
<totfact> 0.41707229E+05</totfact>
</mgrwt>
</event>
<event>
 8    1  0.9123825E-006  0.2582350E+03  0.7546771E-02  0.1108208E+00
         21   -1    0    0  504  503  0.00000000000E+00  0.00000000000E+00  0.10687007199E+02  0.10687007199E+02  0.00000000000E+00 0. -1.
         21   -1    0    0  503  504 -0.00000000000E+00 -0.00000000000E+00 -0.15599619442E+04  0.15599619442E+04  0.00000000000E+00 0. -1.
         25    2    1    2    0    0 -0.48396476518E+01  0.70013929040E+01 -0.58485983959E+03  0.59812933473E+03  0.12500090959E+03 0.  0.
         25    2    1    2    0    0  0.48396476518E+01 -0.70013929040E+01 -0.96441509741E+03  0.97251961668E+03  0.12500193204E+03 0.  0.
          5    1    3    3  501    0 -0.12800094381E+02  0.64973862418E+02 -0.29364015716E+03  0.30105161868E+03  0.47000000000E+01 0.  1.
         -5    1    3    3    0  501  0.79604467289E+01 -0.57972469514E+02 -0.29121968244E+03  0.29707771605E+03  0.47000000000E+01 0.  1.
          5    1    4    4  502    0  0.15187653120E+02 -0.57900236049E+02 -0.29339490800E+03  0.29947581569E+03  0.47000000000E+01 0. -1.
         -5    1    4    4    0  502 -0.10348005468E+02  0.50898843145E+02 -0.67102018941E+03  0.67304380098E+03  0.47000000000E+01 0. -1.
<mgrwt>
<rscale>  0 0.25823497E+03</rscale>
<asrwt>0</asrwt>
<pdfrwt beam="1">  1       21 0.16441538E-02 0.25823497E+03</pdfrwt>
<pdfrwt beam="2">  1       21 0.23999431E+00 0.25823497E+03</pdfrwt>
<totfact> 0.12407865E+05</totfact>
</mgrwt>
</event>
<event>
 8    1  0.9123825E-006  0.2851160E+03  0.7546771E-02  0.1092927E+00
         21   -1    0    0  504  503  0.00000000000E+00  0.00000000000E+00  0.47405640971E+03  0.47405640971E+03  0.00000000000E+00 0.  1.
         21   -1    0    0  503  504 -0.00000000000E+00 -0.00000000000E+00 -0.42869971714E+02  0.42869971714E+02  0.00000000000E+00 0.  1.
         25    2    1    2    0    0  0.43460616533E+02  0.13662270192E+02  0.12275067948E+03  0.18102509918E+03  0.12500749740E+03 0.  0.
         25    2    1    2    0    0 -0.43460616533E+02 -0.13662270192E+02  0.30843575852E+03  0.33590128224E+03  0.12498628509E+03 0.  0.
          5    1    3    3  501    0  0.79030227996E+02  0.28145087320E+02  0.11354536038E+03  0.14125353709E+03  0.47000000000E+01 0. -1.
         -5    1    3    3    0  501 -0.35569611463E+02 -0.14482817127E+02  0.92053190990E+01  0.39771562092E+02  0.47000000000E+01 0. -1.
          5    1    4    4  502    0 -0.20534494137E+02 -0.29604779585E+02  0.30525069943E+03  0.30740557563E+03  0.47000000000E+01 0.  1.
         -5    1    4    4    0  502 -0.22926122396E+02  0.15942509393E+02  0.31850590865E+01  0.28495706611E+02  0.47000000000E+01 0.  1.
<mgrwt>
<rscale>  0 0.28511601E+03</rscale>
<asrwt>0</asrwt>
<pdfrwt beam="1">  1       21 0.72931752E-01 0.28511601E+03</pdfrwt>
<pdfrwt beam="2">  1       21 0.65953806E-02 0.28511601E+03</pdfrwt>
<totfact> 0.27691104E+05</totfact>
</mgrwt>
</event>
<event>
 8    1  0.9123825E-006  0.2790441E+03  0.7546771E-02  0.1096212E+00
         21   -1    0    0  504  503  0.00000000000E+00  0.00000000000E+00  0.37337755877E+03  0.37337755877E+03  0.00000000000E+00 0. -1.
         21   -1    0    0  503  504 -0.00000000000E+00 -0.00000000000E+00 -0.52135972182E+02  0.52135972182E+02  0.00000000000E+00 0. -1.
         25    2    1    2    0    0  0.46856524045E+02  0.12725570030E+02  0.21937524200E+03  0.25711515370E+03  0.12500092592E+03 0.  0.
         25    2    1    2    0    0 -0.46856524045E+02 -0.12725570030E+02  0.10186634458E+03  0.16839837725E+03  0.12499514920E+03 0.  0.
          5    1    3    3  501    0  0.25946699806E+02 -0.55626650419E+02  0.86626018963E+02  0.10627188071E+03  0.47000000000E+01 0.  1.
         -5    1    3    3    0  501  0.20909824239E+02  0.68352220449E+02  0.13274922304E+03  0.15084327299E+03  0.47000000000E+01 0.  1.
          5    1    4    4  502    0  0.20461518351E+02  0.28649407394E+02  0.78026234144E+02  0.85730073440E+02  0.47000000000E+01 0.  1.
         -5    1    4    4    0  502 -0.67318042396E+02 -0.41374977424E+02  0.23840110439E+02  0.82668303808E+02  0.47000000000E+01 0.  1.
<mgrwt>
<rscale>  0 0.27904410E+03</rscale>
<asrwt>0</asrwt>
<pdfrwt beam="1">  1       21 0.57442700E-01 0.27904410E+03</pdfrwt>
<pdfrwt beam="2">  1       21 0.80209190E-02 0.27904410E+03</pdfrwt>
<totfact> 0.33289658E+05</totfact>
</mgrwt>
</event>
<event>
 8    1  0.9123825E-006  0.3050873E+03  0.7546771E-02  0.1082725E+00
         21   -1    0    0  504  503  0.00000000000E+00  0.00000000000E+00  0.16546922822E+04  0.16546922822E+04  0.00000000000E+00 0.  1.
         21   -1    0    0  503  504 -0.00000000000E+00 -0.00000000000E+00 -0.14062774280E+02  0.14062774280E+02  0.00000000000E+00 0.  1.
         25    2    1    2    0    0  0.86268530077E+02 -0.14073267696E+02  0.83301260412E+03  0.84686112699E+03  0.12499381441E+03 0.  0.
         25    2    1    2    0    0 -0.86268530077E+02  0.14073267696E+02  0.80761690383E+03  0.82189392952E+03  0.12499700750E+03 0.  0.
          5    1    3    3  501    0  0.94141350590E+02 -0.49479774469E+02  0.72617123403E+03  0.73393296227E+03  0.47000000000E+01 0.  1.
         -5    1    3    3    0  501 -0.78728205127E+01  0.35406506773E+02  0.10684137008E+03  0.11292816471E+03  0.47000000000E+01 0.  1.
          5    1    4    4  502    0  0.13291530794E+02  0.36390819812E+02  0.39085582468E+03  0.39279934094E+03  0.47000000000E+01 0.  1.
         -5    1    4    4    0  502 -0.99560060871E+02 -0.22317552116E+02  0.41676107916E+03  0.42909458858E+03  0.47000000000E+01 0.  1.
<mgrwt>
<rscale>  0 0.30508729E+03</rscale>
<asrwt>0</asrwt>
<pdfrwt beam="1">  1       21 0.25456789E+00 0.30508729E+03</pdfrwt>
<pdfrwt beam="2">  1       21 0.21635050E-02 0.30508729E+03</pdfrwt>
<totfact> 0.63205726E+04</totfact>
</mgrwt>
</event>
<event>
 8    1  0.9123825E-006  0.5213411E+03  0.7546771E-02  0.1008354E+00
         21   -1    0    0  504  503  0.00000000000E+00  0.00000000000E+00  0.27284960060E+03  0.27284960060E+03  0.00000000000E+00 0.  1.
         21   -1    0    0  503  504 -0.00000000000E+00 -0.00000000000E+00 -0.24903510456E+03  0.24903510456E+03  0.00000000000E+00 0.  1.
         25    2    1    2    0    0  0.17285952203E+02  0.47635515587E+02 -0.21138394672E+03  0.25075260224E+03  0.12500299240E+03 0.  0.
         25    2    1    2    0    0 -0.17285952203E+02 -0.47635515587E+02  0.23519844276E+03  0.27113210292E+03  0.12500545296E+03 0.  0.
          5    1    3    3  501    0  0.11403757791E+02 -0.12744631843E+02 -0.18256620025E+03  0.18342567652E+03  0.47000000000E+01 0. -1.
         -5    1    3    3    0  501  0.58821944117E+01  0.60380147430E+02 -0.28817746469E+02  0.67326925716E+02  0.47000000000E+01 0. -1.
          5    1    4    4  502    0  0.15443889031E+01 -0.48432846885E+02  0.24470861580E+03  0.24950455395E+03  0.47000000000E+01 0.  1.
         -5    1    4    4    0  502 -0.18830341106E+02  0.79733129812E+00 -0.95101730396E+01  0.21627548974E+02  0.47000000000E+01 0.  1.
<mgrwt>
<rscale>  0 0.52134107E+03</rscale>
<asrwt>0</asrwt>
<pdfrwt beam="1">  1       21 0.41976862E-01 0.52134107E+03</pdfrwt>
<pdfrwt beam="2">  1       21 0.38313093E-01 0.52134107E+03</pdfrwt>
<totfact> 0.32278287E+04</totfact>
</mgrwt>
</event>
<event>
 8    1  0.9123825E-006  0.2773371E+03  0.7546771E-02  0.1097152E+00
         21   -1    0    0  504  503  0.00000000000E+00  0.00000000000E+00  0.40894848728E+02  0.40894848728E+02  0.00000000000E+00 0.  1.
         21   -1    0    0  503  504 -0.00000000000E+00 -0.00000000000E+00 -0.47020499045E+03  0.47020499045E+03  0.00000000000E+00 0.  1.
         25    2    1    2    0    0  0.36179013385E+02  0.14397416473E+02 -0.13075876457E+03  0.18510267154E+03  0.12509571492E+03 0.  0.
         25    2    1    2    0    0 -0.36179013385E+02 -0.14397416473E+02 -0.29855137716E+03  0.32599716764E+03  0.12500008758E+03 0.  0.
          5    1    3    3  501    0 -0.37206895794E+02 -0.68353897390E+01 -0.57907406841E+01  0.38557727178E+02  0.47000000000E+01 0. -1.
         -5    1    3    3    0  501  0.73385909178E+02  0.21232806211E+02 -0.12496802388E+03  0.14654494436E+03  0.47000000000E+01 0. -1.
          5    1    4    4  502    0 -0.20399316530E+02  0.55217019569E+02 -0.12343718005E+03  0.13683522494E+03  0.47000000000E+01 0.  1.
         -5    1    4    4    0  502 -0.15779696855E+02 -0.69614436041E+02 -0.17511419711E+03  0.18916194270E+03  0.47000000000E+01 0.  1.
<mgrwt>
<rscale>  0 0.27733707E+03</rscale>
<asrwt>0</asrwt>
<pdfrwt beam="1">  1       21 0.62915153E-02 0.27733707E+03</pdfrwt>
<pdfrwt beam="2">  1       21 0.72339228E-01 0.27733707E+03</pdfrwt>
<totfact> 0.30657072E+05</totfact>
</mgrwt>
</event>
<event>
 8    1  0.9123825E-006  0.3277173E+03  0.7546771E-02  0.1072151E+00
         21   -1    0    0  504  503  0.00000000000E+00  0.00000000000E+00  0.15388608213E+03  0.15388608213E+03  0.00000000000E+00 0.  1.
         21   -1    0    0  503  504 -0.00000000000E+00 -0.00000000000E+00 -0.17447750935E+03  0.17447750935E+03  0.00000000000E+00 0.  1.
         25    2    1    2    0    0 -0.42548453236E+02 -0.92378141701E+02 -0.39993132085E+02  0.16605155686E+03  0.12501830659E+03 0.  0.
         25    2    1    2    0    0  0.42548453236E+02  0.92378141701E+02  0.19401704859E+02  0.16231203463E+03  0.12499871398E+03 0.  0.
          5    1    3    3  501    0 -0.75664673816E+02 -0.17565857039E+02 -0.85901155284E+01  0.78291648865E+02  0.47000000000E+01 0.  1.
         -5    1    3    3    0  501  0.33116220580E+02 -0.74812284662E+02 -0.31403016556E+02  0.87759907991E+02  0.47000000000E+01 0.  1.
          5    1    4    4  502    0  0.23429243389E+02  0.12251856664E+03  0.10772008109E+02  0.12529108020E+03  0.47000000000E+01 0. -1.
         -5    1    4    4    0  502  0.19119209847E+02 -0.30140424943E+02  0.86296967496E+01  0.37020954430E+02  0.47000000000E+01 0. -1.
<mgrwt>
<rscale>  0 0.32771732E+03</rscale>
<asrwt>0</asrwt>
<pdfrwt beam="1">  1       21 0.23674782E-01 0.32771732E+03</pdfrwt>
<pdfrwt beam="2">  1       21 0.26842694E-01 0.32771732E+03</pdfrwt>
<totfact> 0.21469952E+05</totfact>
</mgrwt>
</event>
<event>
 8    1  0.9123825E-006  0.3339067E+03  0.7546771E-02  0.1069421E+00
         21   -1    0    0  504  503  0.00000000000E+00  0.00000000000E+00  0.74515391467E+02  0.74515391467E+02  0.00000000000E+00 0. -1.
         21   -1    0    0  503  504 -0.00000000000E+00 -0.00000000000E+00 -0.37406266854E+03  0.37406266854E+03  0.00000000000E+00 0. -1.
         25    2    1    2    0    0  0.41622880930E+02  0.10122576743E+03 -0.12770225097E+03  0.20954948171E+03  0.12499600063E+03 0.  0.
         25    2    1    2    0    0 -0.41622880930E+02 -0.10122576743E+03 -0.17184502610E+03  0.23902857829E+03  0.12499931215E+03 0.  0.
          5    1    3    3  501    0 -0.15242077955E+02  0.84957588861E+02 -0.23401384485E+02  0.89553490391E+02  0.47000000000E+01 0. -1.
         -5    1    3    3    0  501  0.56864958886E+02  0.16268178570E+02 -0.10430086649E+03  0.11999599132E+03  0.47000000000E+01 0. -1.
          5    1    4    4  502    0 -0.32946025956E+02 -0.12954407666E+03 -0.15463250479E+03  0.20445148559E+03  0.47000000000E+01 0. -1.
         -5    1    4    4    0  502 -0.86768549744E+01  0.28318309229E+02 -0.17212521309E+02  0.34577092701E+02  0.47000000000E+01 0. -1.
<mgrwt>
<rscale>  0 0.33390673E+03</rscale>
<asrwt>0</asrwt>
<pdfrwt beam="1">  1       21 0.11463906E-01 0.33390673E+03</pdfrwt>
<pdfrwt beam="2">  1       21 0.57548103E-01 0.33390673E+03</pdfrwt>
<totfact> 0.17357857E+05</totfact>
</mgrwt>
</event>
<event>
 8    1  0.9123825E-006  0.2712544E+03  0.7546771E-02  0.1100564E+00
         21   -1    0    0  504  503  0.00000000000E+00  0.00000000000E+00  0.10567013303E+03  0.10567013303E+03  0.00000000000E+00 0.  1.
         21   -1    0    0  503  504 -0.00000000000E+00 -0.00000000000E+00 -0.17407700410E+03  0.17407700410E+03  0.00000000000E+00 0.  1.
         25    2    1    2    0    0 -0.45627489975E+02  0.20390843823E+02 -0.17162716990E+02  0.13570654480E+03  0.12499621232E+03 0.  0.
         25    2    1    2    0    0  0.45627489975E+02 -0.20390843823E+02 -0.51244154082E+02  0.14404059233E+03  0.12499629818E+03 0.  0.
          5    1    3    3  501    0 -0.78355679769E+02 -0.89737389660E+01  0.15774381647E+02  0.80567125178E+02  0.47000000000E+01 0.  1.
         -5    1    3    3    0  501  0.32728189795E+02  0.29364582789E+02 -0.32937098636E+02  0.55139419622E+02  0.47000000000E+01 0.  1.
          5    1    4    4  502    0 -0.36410370279E+02 -0.29878381567E+02 -0.37057166017E+02  0.60114526549E+02  0.47000000000E+01 0.  1.
         -5    1    4    4    0  502  0.82037860254E+02  0.94875377438E+01 -0.14186988065E+02  0.83926065783E+02  0.47000000000E+01 0.  1.
<mgrwt>
<rscale>  0 0.27125442E+03</rscale>
<asrwt>0</asrwt>
<pdfrwt beam="1">  1       21 0.16256944E-01 0.27125442E+03</pdfrwt>
<pdfrwt beam="2">  1       21 0.26781077E-01 0.27125442E+03</pdfrwt>
<totfact> 0.44251788E+05</totfact>
</mgrwt>
</event>
<event>
 8    1  0.9123825E-006  0.2756743E+03  0.7546771E-02  0.1098075E+00
         21   -1    0    0  504  503  0.00000000000E+00  0.00000000000E+00  0.15679471777E+03  0.15679471777E+03  0.00000000000E+00 0.  1.
         21   -1    0    0  503  504 -0.00000000000E+00 -0.00000000000E+00 -0.12117171681E+03  0.12117171681E+03  0.00000000000E+00 0.  1.
         25    2    1    2    0    0  0.42704629714E+02 -0.38837236990E+02  0.24442352076E+02  0.13983367166E+03  0.12499604305E+03 0.  0.
         25    2    1    2    0    0 -0.42704629714E+02  0.38837236990E+02  0.11180648888E+02  0.13813276292E+03  0.12499454750E+03 0.  0.
          5    1    3    3  501    0  0.14325157064E+02 -0.34668873261E+01 -0.50111343642E+02  0.52444887207E+02  0.47000000000E+01 0. -1.
         -5    1    3    3    0  501  0.28379472650E+02 -0.35370349664E+02  0.74553695718E+02  0.87388784454E+02  0.47000000000E+01 0. -1.
          5    1    4    4  502    0 -0.77919157371E+02  0.40888803026E+02  0.35529129689E+02  0.95014200805E+02  0.47000000000E+01 0.  1.
         -5    1    4    4    0  502  0.35214527657E+02 -0.20515660358E+01 -0.24348480801E+02  0.43118562112E+02  0.47000000000E+01 0.  1.
<mgrwt>
<rscale>  0 0.27567434E+03</rscale>
<asrwt>0</asrwt>
<pdfrwt beam="1">  1       21 0.24122264E-01 0.27567434E+03</pdfrwt>
<pdfrwt beam="2">  1       21 0.18641802E-01 0.27567434E+03</pdfrwt>
<totfact> 0.41943443E+05</totfact>
</mgrwt>
</event>
<event>
 8    1  0.9123825E-006  0.4007373E+03  0.7546771E-02  0.1043525E+00
         21   -1    0    0  504  503  0.00000000000E+00  0.00000000000E+00  0.36502211097E+02  0.36502211097E+02  0.00000000000E+00 0.  1.
         21   -1    0    0  503  504 -0.00000000000E+00 -0.00000000000E+00 -0.10998677628E+04  0.10998677628E+04  0.00000000000E+00 0.  1.
         25    2    1    2    0    0 -0.10149966826E+03  0.82147729915E+02 -0.77693555239E+03  0.79768714628E+03  0.12500199434E+03 0.  0.
         25    2    1    2    0    0  0.10149966826E+03 -0.82147729915E+02 -0.28642999935E+03  0.33868282765E+03  0.12495391563E+03 0.  0.
          5    1    3    3  501    0 -0.98628615113E+02  0.58961903121E+01 -0.33931339335E+03  0.35343745937E+03  0.47000000000E+01 0. -1.
         -5    1    3    3    0  501 -0.28710531457E+01  0.76251539603E+02 -0.43762215904E+03  0.44424968691E+03  0.47000000000E+01 0. -1.
          5    1    4    4  502    0  0.79944863247E+02 -0.11467762694E+03 -0.20380755102E+03  0.24718767594E+03  0.47000000000E+01 0.  1.
         -5    1    4    4    0  502  0.21554805012E+02  0.32529897029E+02 -0.82622448326E+02  0.91495151715E+02  0.47000000000E+01 0.  1.
<mgrwt>
<rscale>  0 0.40073735E+03</rscale>
<asrwt>0</asrwt>
<pdfrwt beam="1">  1       21 0.56157245E-02 0.40073735E+03</pdfrwt>
<pdfrwt beam="2">  1       21 0.16921043E+00 0.40073735E+03</pdfrwt>
<totfact> 0.43639036E+04</totfact>
</mgrwt>
</event>
<event>
 8    1  0.9123825E-006  0.3372429E+03  0.7546771E-02  0.1067976E+00
         21   -1    0    0  504  503  0.00000000000E+00  0.00000000000E+00  0.13479635095E+03  0.13479635095E+03  0.00000000000E+00 0.  1.
         21   -1    0    0  503  504 -0.00000000000E+00 -0.00000000000E+00 -0.21093445112E+03  0.21093445112E+03  0.00000000000E+00 0.  1.
         25    2    1    2    0    0 -0.35192082926E+01 -0.11308075489E+03 -0.35111924136E+02  0.17221455373E+03  0.12500145339E+03 0.  0.
         25    2    1    2    0    0  0.35192082926E+01  0.11308075489E+03 -0.41026176039E+02  0.17351624834E+03  0.12500039746E+03 0.  0.
          5    1    3    3  501    0 -0.26441732088E+02  0.10752699303E+02  0.19477339274E+02  0.34874668218E+02  0.47000000000E+01 0.  1.
         -5    1    3    3    0  501  0.22922523795E+02 -0.12383345419E+03 -0.54589263410E+02  0.13733988552E+03  0.47000000000E+01 0.  1.
          5    1    4    4  502    0 -0.56848285717E+02  0.63786173421E+02 -0.42237916544E+02  0.95428167239E+02  0.47000000000E+01 0.  1.
         -5    1    4    4    0  502  0.60367494010E+02  0.49294581467E+02  0.12117405050E+01  0.78088081101E+02  0.47000000000E+01 0.  1.
<mgrwt>
<rscale>  0 0.33724291E+03</rscale>
<asrwt>0</asrwt>
<pdfrwt beam="1">  1       21 0.20737900E-01 0.33724291E+03</pdfrwt>
<pdfrwt beam="2">  1       21 0.32451454E-01 0.33724291E+03</pdfrwt>
<totfact> 0.18988741E+05</totfact>
</mgrwt>
</event>
<event>
 8    1  0.9123825E-006  0.3192988E+03  0.7546771E-02  0.1075972E+00
         21   -1    0    0  504  503  0.00000000000E+00  0.00000000000E+00  0.37050547473E+03  0.37050547473E+03  0.00000000000E+00 0.  1.
         21   -1    0    0  503  504 -0.00000000000E+00 -0.00000000000E+00 -0.68792311347E+02  0.68792311347E+02  0.00000000000E+00 0.  1.
         25    2    1    2    0    0 -0.89035873921E+01  0.95639567862E+02  0.11614172939E+03  0.19580680632E+03  0.12500081314E+03 0.  0.
         25    2    1    2    0    0  0.89035873921E+01 -0.95639567862E+02  0.18557143400E+03  0.24349097976E+03  0.12499959720E+03 0.  0.
          5    1    3    3  501    0 -0.27327494481E+02  0.10587263841E+03  0.39776774292E+02  0.11644779642E+03  0.47000000000E+01 0. -1.
         -5    1    3    3    0  501  0.18423907089E+02 -0.10233070545E+02  0.76364955095E+02  0.79359009897E+02  0.47000000000E+01 0. -1.
          5    1    4    4  502    0  0.12061716355E+02  0.13800064810E+02 -0.84015339155E+01  0.20702718718E+02  0.47000000000E+01 0.  1.
         -5    1    4    4    0  502 -0.31581289629E+01 -0.10943963267E+03  0.19397296791E+03  0.22278826105E+03  0.47000000000E+01 0.  1.
<mgrwt>
<rscale>  0 0.31929878E+03</rscale>
<asrwt>0</asrwt>
<pdfrwt beam="1">  1       21 0.57000841E-01 0.31929878E+03</pdfrwt>
<pdfrwt beam="2">  1       21 0.10583433E-01 0.31929878E+03</pdfrwt>
<totfact> 0.20523679E+05</totfact>
</mgrwt>
</event>
<event>
 8    1  0.9123825E-006  0.2767972E+03  0.7546771E-02  0.1097451E+00
         21   -1    0    0  504  503  0.00000000000E+00  0.00000000000E+00  0.27031686767E+03  0.27031686767E+03  0.00000000000E+00 0. -1.
         21   -1    0    0  503  504 -0.00000000000E+00 -0.00000000000E+00 -0.70858238106E+02  0.70858238106E+02  0.00000000000E+00 0. -1.
         25    2    1    2    0    0 -0.40096979751E+02 -0.42952584782E+02  0.11001361513E+03  0.17658245733E+03  0.12500270557E+03 0.  0.
         25    2    1    2    0    0  0.40096979751E+02  0.42952584782E+02  0.89445014430E+02  0.16459264844E+03  0.12505053774E+03 0.  0.
          5    1    3    3  501    0 -0.37141774259E+01 -0.16923636025E+02  0.12717712329E+03  0.12843798215E+03  0.47000000000E+01 0.  1.
         -5    1    3    3    0  501 -0.36382802326E+02 -0.26028948757E+02 -0.17163508161E+02  0.48144475185E+02  0.47000000000E+01 0.  1.
          5    1    4    4  502    0 -0.31498169143E+02  0.10872677187E+02  0.78283077053E+02  0.85209623409E+02  0.47000000000E+01 0.  1.
         -5    1    4    4    0  502  0.71595148894E+02  0.32079907595E+02  0.11161937377E+02  0.79383025027E+02  0.47000000000E+01 0.  1.
<mgrwt>
<rscale>  0 0.27679723E+03</rscale>
<asrwt>0</asrwt>
<pdfrwt beam="1">  1       21 0.41587210E-01 0.27679723E+03</pdfrwt>
<pdfrwt beam="2">  1       21 0.10901268E-01 0.27679723E+03</pdfrwt>
<totfact> 0.38062161E+05</totfact>
</mgrwt>
</event>
<event>
 8    1  0.9123825E-006  0.5898073E+03  0.7546771E-02  0.9926781E-01
         21   -1    0    0  504  503  0.00000000000E+00  0.00000000000E+00  0.64369488480E+03  0.64369488480E+03  0.00000000000E+00 0. -1.
         21   -1    0    0  503  504 -0.00000000000E+00 -0.00000000000E+00 -0.13510776322E+03  0.13510776322E+03  0.00000000000E+00 0. -1.
         25    2    1    2    0    0 -0.98431674571E+02  0.90180556188E+02  0.55977649703E+03  0.58889299049E+03  0.12499560132E+03 0.  0.
         25    2    1    2    0    0  0.98431674571E+02 -0.90180556188E+02 -0.51189375458E+02  0.18990965753E+03  0.12499599429E+03 0.  0.
          5    1    3    3  501    0 -0.64672918684E+02  0.11440202234E+03  0.49187175730E+03  0.50914666330E+03  0.47000000000E+01 0.  1.
         -5    1    3    3    0  501 -0.33758755887E+02 -0.24221466155E+02  0.67904739737E+02  0.79746327192E+02  0.47000000000E+01 0.  1.
          5    1    4    4  502    0  0.41242359245E+02 -0.93934927044E+02 -0.75513576239E+02  0.12747192990E+03  0.47000000000E+01 0. -1.
         -5    1    4    4    0  502  0.57189315327E+02  0.37543708555E+01  0.24324200781E+02  0.62437727631E+02  0.47000000000E+01 0. -1.
<mgrwt>
<rscale>  0 0.58980735E+03</rscale>
<asrwt>0</asrwt>
<pdfrwt beam="1">  1       21 0.99029981E-01 0.58980735E+03</pdfrwt>
<pdfrwt beam="2">  1       21 0.20785810E-01 0.58980735E+03</pdfrwt>
<totfact> 0.15666505E+04</totfact>
</mgrwt>
</event>
<event>
 8    1  0.9123825E-006  0.2744783E+03  0.7546771E-02  0.1098744E+00
         21   -1    0    0  504  503  0.00000000000E+00  0.00000000000E+00  0.44545514832E+02  0.44545514832E+02  0.00000000000E+00 0. -1.
         21   -1    0    0  503  504 -0.00000000000E+00 -0.00000000000E+00 -0.42281657376E+03  0.42281657376E+03  0.00000000000E+00 0. -1.
         25    2    1    2    0    0  0.55048211322E+02  0.11486154111E+02 -0.17759493472E+03  0.22434029919E+03  0.12500548667E+03 0.  0.
         25    2    1    2    0    0 -0.55048211322E+02 -0.11486154111E+02 -0.20067612421E+03  0.24302178940E+03  0.12500578382E+03 0.  0.
          5    1    3    3  501    0 -0.49979700875E+01 -0.46303998370E+02 -0.32624717436E+02  0.57057007965E+02  0.47000000000E+01 0. -1.
         -5    1    3    3    0  501  0.60046181409E+02  0.57790152482E+02 -0.14497021728E+03  0.16728329123E+03  0.47000000000E+01 0. -1.
          5    1    4    4  502    0  0.17753472535E+02 -0.27895970158E+02 -0.52889462805E+01  0.33814699331E+02  0.47000000000E+01 0.  1.
         -5    1    4    4    0  502 -0.72801683856E+02  0.16409816047E+02 -0.19538717793E+03  0.20920709007E+03  0.47000000000E+01 0.  1.
<mgrwt>
<rscale>  0 0.27447828E+03</rscale>
<asrwt>0</asrwt>
<pdfrwt beam="1">  1       21 0.68531563E-02 0.27447828E+03</pdfrwt>
<pdfrwt beam="2">  1       21 0.65048702E-01 0.27447828E+03</pdfrwt>
<totfact> 0.33472708E+05</totfact>
</mgrwt>
</event>
<event>
 8    1  0.9123825E-006  0.2847152E+03  0.7546771E-02  0.1093141E+00
         21   -1    0    0  504  503  0.00000000000E+00  0.00000000000E+00  0.17090458102E+02  0.17090458102E+02  0.00000000000E+00 0.  1.
         21   -1    0    0  503  504 -0.00000000000E+00 -0.00000000000E+00 -0.11857892723E+04  0.11857892723E+04  0.00000000000E+00 0.  1.
         25    2    1    2    0    0 -0.35129358752E+02 -0.10026576294E+02 -0.34152959610E+03  0.36552206829E+03  0.12501725209E+03 0.  0.
         25    2    1    2    0    0  0.35129358752E+02  0.10026576294E+02 -0.82716921812E+03  0.83735766213E+03  0.12499733935E+03 0.  0.
          5    1    3    3  501    0 -0.50555149416E+02  0.35447647677E+02 -0.88987750941E+02  0.10841249317E+03  0.47000000000E+01 0.  1.
         -5    1    3    3    0  501  0.15425790664E+02 -0.45474223970E+02 -0.25254184516E+03  0.25710957512E+03  0.47000000000E+01 0.  1.
          5    1    4    4  502    0  0.41866400749E+02  0.57685385634E+01 -0.82701135415E+03  0.82810382286E+03  0.47000000000E+01 0. -1.
         -5    1    4    4    0  502 -0.67370419972E+01  0.42580377303E+01 -0.15786397297E+00  0.92538392691E+01  0.47000000000E+01 0. -1.
<mgrwt>
<rscale>  0 0.28471517E+03</rscale>
<asrwt>0</asrwt>
<pdfrwt beam="1">  1       21 0.26293007E-02 0.28471517E+03</pdfrwt>
<pdfrwt beam="2">  1       21 0.18242916E+00 0.28471517E+03</pdfrwt>
<totfact> 0.13231670E+05</totfact>
</mgrwt>
</event>
<event>
 8    1  0.9123825E-006  0.3277699E+03  0.7546771E-02  0.1072128E+00
         21   -1    0    0  504  503  0.00000000000E+00  0.00000000000E+00  0.24735305338E+03  0.24735305338E+03  0.00000000000E+00 0. -1.
         21   -1    0    0  503  504 -0.00000000000E+00 -0.00000000000E+00 -0.10858275663E+03  0.10858275663E+03  0.00000000000E+00 0. -1.
         25    2    1    2    0    0  0.50148962463E+02 -0.78289624485E+00 -0.31989057843E+02  0.13845008105E+03  0.12501837369E+03 0.  0.
         25    2    1    2    0    0 -0.50148962463E+02  0.78289624485E+00  0.17075935459E+03  0.21748572896E+03  0.12500301500E+03 0.  0.
          5    1    3    3  501    0  0.42577689069E+02 -0.55211123388E+02  0.79842248687E+01  0.70334668543E+02  0.47000000000E+01 0. -1.
         -5    1    3    3    0  501  0.75712733940E+01  0.54428227144E+02 -0.39973282711E+02  0.68115412511E+02  0.47000000000E+01 0. -1.
          5    1    4    4  502    0 -0.20887059309E+02 -0.38162203772E+02  0.16195307401E+03  0.16776027904E+03  0.47000000000E+01 0.  1.
         -5    1    4    4    0  502 -0.29261903155E+02  0.38945100017E+02  0.88062805763E+01  0.49725449914E+02  0.47000000000E+01 0.  1.
<mgrwt>
<rscale>  0 0.32776990E+03</rscale>
<asrwt>0</asrwt>
<pdfrwt beam="1">  1       21 0.38054316E-01 0.32776990E+03</pdfrwt>
<pdfrwt beam="2">  1       21 0.16705039E-01 0.32776990E+03</pdfrwt>
<totfact> 0.20729955E+05</totfact>
</mgrwt>
</event>
<event>
 8    1  0.9123825E-006  0.2983955E+03  0.7546771E-02  0.1086045E+00
         21   -1    0    0  504  503  0.00000000000E+00  0.00000000000E+00  0.50877485905E+02  0.50877485905E+02  0.00000000000E+00 0.  1.
         21   -1    0    0  503  504 -0.00000000000E+00 -0.00000000000E+00 -0.43752090527E+03  0.43752090527E+03  0.00000000000E+00 0.  1.
         25    2    1    2    0    0 -0.33306654710E+02  0.41244990352E+02 -0.29455100453E+03  0.32433897689E+03  0.12499998074E+03 0.  0.
         25    2    1    2    0    0  0.33306654710E+02 -0.41244990352E+02 -0.92092414840E+02  0.16405941429E+03  0.12499598421E+03 0.  0.
          5    1    3    3  501    0 -0.79451611478E+02  0.27598737627E+02 -0.21898445499E+03  0.23462849446E+03  0.47000000000E+01 0.  1.
         -5    1    3    3    0  501  0.46144956768E+02  0.13646252724E+02 -0.75566549531E+02  0.89710482423E+02  0.47000000000E+01 0.  1.
          5    1    4    4  502    0 -0.27602111714E+02 -0.51477263777E+02 -0.72993804854E+01  0.59052148247E+02  0.47000000000E+01 0. -1.
         -5    1    4    4    0  502  0.60908766424E+02  0.10232273426E+02 -0.84793034355E+02  0.10500726604E+03  0.47000000000E+01 0. -1.
<mgrwt>
<rscale>  0 0.29839547E+03</rscale>
<asrwt>0</asrwt>
<pdfrwt beam="1">  1       21 0.78273056E-02 0.29839547E+03</pdfrwt>
<pdfrwt beam="2">  1       21 0.67310908E-01 0.29839547E+03</pdfrwt>
<totfact> 0.24484312E+05</totfact>
</mgrwt>
</event>
<event>
 8    1  0.9123825E-006  0.3428627E+03  0.7546771E-02  0.1065583E+00
         21   -1    0    0  504  503  0.00000000000E+00  0.00000000000E+00  0.15946948287E+03  0.15946948287E+03  0.00000000000E+00 0.  1.
         21   -1    0    0  503  504 -0.00000000000E+00 -0.00000000000E+00 -0.18429043689E+03  0.18429043689E+03  0.00000000000E+00 0.  1.
         25    2    1    2    0    0  0.11589555125E+03  0.10347065014E+02  0.26362270736E+01  0.17079348585E+03  0.12499849824E+03 0.  0.
         25    2    1    2    0    0 -0.11589555125E+03 -0.10347065014E+02 -0.27457181101E+02  0.17296643391E+03  0.12499859964E+03 0.  0.
          5    1    3    3  501    0 -0.12333144448E+02  0.27891878524E+02 -0.23359310916E+02  0.38701559995E+02  0.47000000000E+01 0.  1.
         -5    1    3    3    0  501  0.12822869570E+03 -0.17544813510E+02  0.25995537989E+02  0.13209192586E+03  0.47000000000E+01 0.  1.
          5    1    4    4  502    0 -0.87396309828E+02 -0.16278990352E+02  0.41311904702E+02  0.98142162033E+02  0.47000000000E+01 0. -1.
         -5    1    4    4    0  502 -0.28499241420E+02  0.59319253375E+01 -0.68769085803E+02  0.74824271877E+02  0.47000000000E+01 0. -1.
<mgrwt>
<rscale>  0 0.34286266E+03</rscale>
<asrwt>0</asrwt>
<pdfrwt beam="1">  1       21 0.24533767E-01 0.34286266E+03</pdfrwt>
<pdfrwt beam="2">  1       21 0.28352375E-01 0.34286266E+03</pdfrwt>
<totfact> 0.17956633E+05</totfact>
</mgrwt>
</event>
<event>
 8    1  0.9123825E-006  0.4023150E+03  0.7546771E-02  0.1042981E+00
         21   -1    0    0  504  503  0.00000000000E+00  0.00000000000E+00  0.59054663632E+03  0.59054663632E+03  0.00000000000E+00 0.  1.
         21   -1    0    0  503  504 -0.00000000000E+00 -0.00000000000E+00 -0.68520149408E+02  0.68520149408E+02  0.00000000000E+00 0.  1.
         25    2    1    2    0    0 -0.98146281954E+00 -0.63747328801E+02  0.49713461498E+03  0.51655907952E+03  0.12500308806E+03 0.  0.
         25    2    1    2    0    0  0.98146281954E+00  0.63747328801E+02  0.24891871928E+02  0.14250770620E+03  0.12499662332E+03 0.  0.
          5    1    3    3  501    0 -0.60675511422E+02 -0.28022721420E+02  0.30195880893E+03  0.30930244566E+03  0.47000000000E+01 0.  1.
         -5    1    3    3    0  501  0.59694048603E+02 -0.35724607381E+02  0.19517580605E+03  0.20725663386E+03  0.47000000000E+01 0.  1.
          5    1    4    4  502    0  0.29365018190E+02  0.48323248657E+02  0.67917310747E+02  0.88500235893E+02  0.47000000000E+01 0.  1.
         -5    1    4    4    0  502 -0.28383555370E+02  0.15424080145E+02 -0.43025438819E+02  0.54007470311E+02  0.47000000000E+01 0.  1.
<mgrwt>
<rscale>  0 0.40231502E+03</rscale>
<asrwt>0</asrwt>
<pdfrwt beam="1">  1       21 0.90853325E-01 0.40231502E+03</pdfrwt>
<pdfrwt beam="2">  1       21 0.10541562E-01 0.40231502E+03</pdfrwt>
<totfact> 0.70917371E+04</totfact>
</mgrwt>
</event>
<event>
 8    1  0.9123825E-006  0.2872319E+03  0.7546771E-02  0.1091803E+00
         21   -1    0    0  504  503  0.00000000000E+00  0.00000000000E+00  0.84325263666E+03  0.84325263666E+03  0.00000000000E+00 0. -1.
         21   -1    0    0  503  504 -0.00000000000E+00 -0.00000000000E+00 -0.24459497886E+02  0.24459497886E+02  0.00000000000E+00 0. -1.
         25    2    1    2    0    0  0.24797771044E+02  0.63621953766E+02  0.35411104581E+03  0.38168768075E+03  0.12501268105E+03 0.  0.
         25    2    1    2    0    0 -0.24797771044E+02 -0.63621953766E+02  0.46468209297E+03  0.48602445380E+03  0.12501055842E+03 0.  0.
          5    1    3    3  501    0  0.23410036638E+02  0.96419426190E+02  0.31561900168E+03  0.33088091481E+03  0.47000000000E+01 0. -1.
         -5    1    3    3    0  501  0.13877344053E+01 -0.32797472424E+02  0.38492044121E+02  0.50806765935E+02  0.47000000000E+01 0. -1.
          5    1    4    4  502    0  0.41482884560E+02 -0.38125833125E+01  0.72191107748E+02  0.83480605777E+02  0.47000000000E+01 0.  1.
         -5    1    4    4    0  502 -0.66280655604E+02 -0.59809370454E+02  0.39249098522E+03  0.40254384803E+03  0.47000000000E+01 0.  1.
<mgrwt>
<rscale>  0 0.28723187E+03</rscale>
<asrwt>0</asrwt>
<pdfrwt beam="1">  1       21 0.12973115E+00 0.28723187E+03</pdfrwt>
<pdfrwt beam="2">  1       21 0.37630003E-02 0.28723187E+03</pdfrwt>
<totfact> 0.18260470E+05</totfact>
</mgrwt>
</event>
<event>
 8    1  0.9123825E-006  0.3164322E+03  0.7546771E-02  0.1077303E+00
         21   -1    0    0  504  503  0.00000000000E+00  0.00000000000E+00  0.13587904011E+03  0.13587904011E+03  0.00000000000E+00 0. -1.
         21   -1    0    0  503  504 -0.00000000000E+00 -0.00000000000E+00 -0.18422512467E+03  0.18422512467E+03  0.00000000000E+00 0. -1.
         25    2    1    2    0    0  0.16936660818E+01  0.83531085295E+02 -0.73947646517E+02  0.16755431150E+03  0.12500352860E+03 0.  0.
         25    2    1    2    0    0 -0.16936660818E+01 -0.83531085295E+02  0.25601561960E+02  0.15254985328E+03  0.12504282085E+03 0.  0.
          5    1    3    3  501    0 -0.34402256737E+02  0.10046167927E+03 -0.69874173120E+02  0.12720280791E+03  0.47000000000E+01 0. -1.
         -5    1    3    3    0  501  0.36095922819E+02 -0.16930593978E+02 -0.40734733972E+01  0.40351503592E+02  0.47000000000E+01 0. -1.
          5    1    4    4  502    0 -0.33291243708E+02 -0.96425778649E+02  0.46552742006E+02  0.11222961055E+03  0.47000000000E+01 0. -1.
         -5    1    4    4    0  502  0.31597577627E+02  0.12894693354E+02 -0.20951180046E+02  0.40320242731E+02  0.47000000000E+01 0. -1.
<mgrwt>
<rscale>  0 0.31643219E+03</rscale>
<asrwt>0</asrwt>
<pdfrwt beam="1">  1       21 0.20904468E-01 0.31643219E+03</pdfrwt>
<pdfrwt beam="2">  1       21 0.28342327E-01 0.31643219E+03</pdfrwt>
<totfact> 0.24540251E+05</totfact>
</mgrwt>
</event>
<event>
 8    1  0.9123825E-006  0.3219667E+03  0.7546771E-02  0.1074748E+00
         21   -1    0    0  504  503  0.00000000000E+00  0.00000000000E+00  0.12864557323E+03  0.12864557323E+03  0.00000000000E+00 0.  1.
         21   -1    0    0  503  504 -0.00000000000E+00 -0.00000000000E+00 -0.20144993859E+03  0.20144993859E+03  0.00000000000E+00 0.  1.
         25    2    1    2    0    0 -0.81481522243E+02  0.13100431167E+02  0.24095008708E+02  0.15169709562E+03  0.12498231720E+03 0.  0.
         25    2    1    2    0    0  0.81481522243E+02 -0.13100431167E+02 -0.96899374071E+02  0.17839841620E+03  0.12500258574E+03 0.  0.
          5    1    3    3  501    0  0.18390707121E+02 -0.24454170219E+02  0.32099138877E+02  0.44594498160E+02  0.47000000000E+01 0.  1.
         -5    1    3    3    0  501 -0.99872229364E+02  0.37554601386E+02 -0.80041301688E+01  0.10710259746E+03  0.47000000000E+01 0.  1.
          5    1    4    4  502    0  0.53658074623E+02  0.54391201656E+02 -0.52580927586E+02  0.92867840158E+02  0.47000000000E+01 0. -1.
         -5    1    4    4    0  502  0.27823447621E+02 -0.67491632823E+02 -0.44318446486E+02  0.85530576039E+02  0.47000000000E+01 0. -1.
<mgrwt>
<rscale>  0 0.32196672E+03</rscale>
<asrwt>0</asrwt>
<pdfrwt beam="1">  1       21 0.19791627E-01 0.32196672E+03</pdfrwt>
<pdfrwt beam="2">  1       21 0.30992298E-01 0.32196672E+03</pdfrwt>
<totfact> 0.22799113E+05</totfact>
</mgrwt>
</event>
<event>
 8    1  0.9123825E-006  0.2920043E+03  0.7546771E-02  0.1089307E+00
         21   -1    0    0  504  503  0.00000000000E+00  0.00000000000E+00  0.37861604067E+02  0.37861604067E+02  0.00000000000E+00 0.  1.
         21   -1    0    0  503  504 -0.00000000000E+00 -0.00000000000E+00 -0.56301427223E+03  0.56301427223E+03  0.00000000000E+00 0.  1.
         25    2    1    2    0    0  0.51291680711E+02 -0.19347257942E+01 -0.14871449880E+03  0.20092090229E+03  0.12497450600E+03 0.  0.
         25    2    1    2    0    0 -0.51291680711E+02  0.19347257942E+01 -0.37643816936E+03  0.39995497400E+03  0.12499482471E+03 0.  0.
          5    1    3    3  501    0  0.81420952569E+02 -0.21597437054E+02 -0.55741735171E+02  0.10111899843E+03  0.47000000000E+01 0. -1.
         -5    1    3    3    0  501 -0.30129271857E+02  0.19662711259E+02 -0.92972763629E+02  0.99801903857E+02  0.47000000000E+01 0. -1.
          5    1    4    4  502    0 -0.68655483715E+02 -0.46745215298E+02 -0.23620775981E+03  0.25042940401E+03  0.47000000000E+01 0. -1.
         -5    1    4    4    0  502  0.17363803004E+02  0.48679941092E+02 -0.14023040955E+03  0.14952556999E+03  0.47000000000E+01 0. -1.
<mgrwt>
<rscale>  0 0.29200427E+03</rscale>
<asrwt>0</asrwt>
<pdfrwt beam="1">  1       21 0.58248626E-02 0.29200427E+03</pdfrwt>
<pdfrwt beam="2">  1       21 0.86617573E-01 0.29200427E+03</pdfrwt>
<totfact> 0.23149364E+05</totfact>
</mgrwt>
</event>
<event>
 8    1  0.9123825E-006  0.3458568E+03  0.7546771E-02  0.1064329E+00
         21   -1    0    0  504  503  0.00000000000E+00  0.00000000000E+00  0.35066624006E+03  0.35066624006E+03  0.00000000000E+00 0. -1.
         21   -1    0    0  503  504 -0.00000000000E+00 -0.00000000000E+00 -0.85278330308E+02  0.85278330308E+02  0.00000000000E+00 0. -1.
         25    2    1    2    0    0 -0.11933155381E+03  0.59331855880E+01  0.13469651929E+03  0.21919476585E+03  0.12501188200E+03 0.  0.
         25    2    1    2    0    0  0.11933155381E+03 -0.59331855880E+01  0.13069139046E+03  0.21674980452E+03  0.12500006318E+03 0.  0.
          5    1    3    3  501    0 -0.60778385505E+02  0.23008875294E+02 -0.63377707589E+01  0.65465088597E+02  0.47000000000E+01 0.  1.
         -5    1    3    3    0  501 -0.58553168301E+02 -0.17075689706E+02  0.14103429005E+03  0.15372967725E+03  0.47000000000E+01 0.  1.
          5    1    4    4  502    0  0.16401774162E+02  0.51887792227E+02  0.45468078670E+02  0.71068961972E+02  0.47000000000E+01 0.  1.
         -5    1    4    4    0  502  0.10292977964E+03 -0.57820977815E+02  0.85223311788E+02  0.14568084255E+03  0.47000000000E+01 0.  1.
<mgrwt>
<rscale>  0 0.34585680E+03</rscale>
<asrwt>0</asrwt>
<pdfrwt beam="1">  1       21 0.53948652E-01 0.34585680E+03</pdfrwt>
<pdfrwt beam="2">  1       21 0.13119743E-01 0.34585680E+03</pdfrwt>
<totfact> 0.15572122E+05</totfact>
</mgrwt>
</event>
<event>
 8    1  0.9123825E-006  0.4169813E+03  0.7546771E-02  0.1038053E+00
         21   -1    0    0  504  503  0.00000000000E+00  0.00000000000E+00  0.10323092025E+03  0.10323092025E+03  0.00000000000E+00 0. -1.
         21   -1    0    0  503  504 -0.00000000000E+00 -0.00000000000E+00 -0.42107888860E+03  0.42107888860E+03  0.00000000000E+00 0. -1.
         25    2    1    2    0    0 -0.12460026663E+03 -0.10787374124E+03 -0.19175426992E+03  0.28205691593E+03  0.12499773316E+03 0.  0.
         25    2    1    2    0    0  0.12460026663E+03  0.10787374124E+03 -0.12609369843E+03  0.24225289292E+03  0.12499949141E+03 0.  0.
          5    1    3    3  501    0  0.72936395276E+01  0.66598402640E+00 -0.74060628414E+02  0.74570150820E+02  0.47000000000E+01 0. -1.
         -5    1    3    3    0  501 -0.13189390616E+03 -0.10853972527E+03 -0.11769364151E+03  0.20748676511E+03  0.47000000000E+01 0. -1.
          5    1    4    4  502    0  0.14637648542E+03  0.81529350495E+02 -0.82972979186E+02  0.18702864955E+03  0.47000000000E+01 0. -1.
         -5    1    4    4    0  502 -0.21776218789E+02  0.26344390750E+02 -0.43120719242E+02  0.55224243378E+02  0.47000000000E+01 0. -1.
<mgrwt>
<rscale>  0 0.41698135E+03</rscale>
<asrwt>0</asrwt>
<pdfrwt beam="1">  1       21 0.15881680E-01 0.41698135E+03</pdfrwt>
<pdfrwt beam="2">  1       21 0.64781367E-01 0.41698135E+03</pdfrwt>
<totfact> 0.72387019E+04</totfact>
</mgrwt>
</event>
<event>
 8    1  0.9123825E-006  0.3386245E+03  0.7546771E-02  0.1067383E+00
         21   -1    0    0  504  503  0.00000000000E+00  0.00000000000E+00  0.12214254343E+03  0.12214254343E+03  0.00000000000E+00 0.  1.
         21   -1    0    0  503  504 -0.00000000000E+00 -0.00000000000E+00 -0.23469816590E+03  0.23469816590E+03  0.00000000000E+00 0.  1.
         25    2    1    2    0    0 -0.17607447972E+02  0.91983609783E+02  0.12588095629E+02  0.15670017085E+03  0.12500190678E+03 0.  0.
         25    2    1    2    0    0  0.17607447972E+02 -0.91983609783E+02 -0.12514371809E+03  0.20014053848E+03  0.12499711306E+03 0.  0.
          5    1    3    3  501    0  0.26184395824E+02  0.10585071034E+03  0.12321056808E+01  0.10914945510E+03  0.47000000000E+01 0.  1.
         -5    1    3    3    0  501 -0.43791843796E+02 -0.13867100554E+02  0.11355989948E+02  0.47550715752E+02  0.47000000000E+01 0.  1.
          5    1    4    4  502    0  0.28086449020E+02 -0.56561931867E+01 -0.10741075648E+03  0.11126545622E+03  0.47000000000E+01 0. -1.
         -5    1    4    4    0  502 -0.10479001048E+02 -0.86327416597E+02 -0.17732961612E+02  0.88875082260E+02  0.47000000000E+01 0. -1.
<mgrwt>
<rscale>  0 0.33862446E+03</rscale>
<asrwt>0</asrwt>
<pdfrwt beam="1">  1       21 0.18791161E-01 0.33862446E+03</pdfrwt>
<pdfrwt beam="2">  1       21 0.36107410E-01 0.33862446E+03</pdfrwt>
<totfact> 0.18462294E+05</totfact>
</mgrwt>
</event>
<event>
 8    1  0.9123825E-006  0.2679945E+03  0.7546771E-02  0.1102433E+00
         21   -1    0    0  504  503  0.00000000000E+00  0.00000000000E+00  0.21014129925E+03  0.21014129925E+03  0.00000000000E+00 0. -1.
         21   -1    0    0  503  504 -0.00000000000E+00 -0.00000000000E+00 -0.85443730306E+02  0.85443730306E+02  0.00000000000E+00 0. -1.
         25    2    1    2    0    0  0.42484629317E+00 -0.22936728555E+02  0.10914199400E+03  0.16754776695E+03  0.12503601619E+03 0.  0.
         25    2    1    2    0    0 -0.42484629317E+00  0.22936728555E+02  0.15555574945E+02  0.12803726260E+03  0.12500116276E+03 0.  0.
          5    1    3    3  501    0  0.44477278116E+02  0.26282343933E+02  0.18043968101E+02  0.54924171874E+02  0.47000000000E+01 0. -1.
         -5    1    3    3    0  501 -0.44052431823E+02 -0.49219072487E+02  0.91098025896E+02  0.11262359508E+03  0.47000000000E+01 0. -1.
          5    1    4    4  502    0 -0.32324234616E+02  0.14847785885E+00 -0.45085656772E+02  0.55674811501E+02  0.47000000000E+01 0. -1.
         -5    1    4    4    0  502  0.31899388323E+02  0.22788250696E+02  0.60641231716E+02  0.72362451100E+02  0.47000000000E+01 0. -1.
<mgrwt>
<rscale>  0 0.26799445E+03</rscale>
<asrwt>0</asrwt>
<pdfrwt beam="1">  1       21 0.32329430E-01 0.26799445E+03</pdfrwt>
<pdfrwt beam="2">  1       21 0.13145189E-01 0.26799445E+03</pdfrwt>
<totfact> 0.45171742E+05</totfact>
</mgrwt>
</event>
<event>
 8    1  0.9123825E-006  0.3388479E+03  0.7546771E-02  0.1067288E+00
         21   -1    0    0  504  503  0.00000000000E+00  0.00000000000E+00  0.22268301333E+04  0.22268301333E+04  0.00000000000E+00 0. -1.
         21   -1    0    0  503  504 -0.00000000000E+00 -0.00000000000E+00 -0.12890285868E+02  0.12890285868E+02  0.00000000000E+00 0. -1.
         25    2    1    2    0    0 -0.51494762835E+02 -0.71956488457E+02  0.62800014073E+03  0.64640361039E+03  0.12499601568E+03 0.  0.
         25    2    1    2    0    0  0.51494762835E+02  0.71956488457E+02  0.15859397067E+04  0.15933168088E+04  0.12499701203E+03 0.  0.
          5    1    3    3  501    0 -0.89560263884E+01 -0.97739181487E+02  0.48696460103E+03  0.49677939839E+03  0.47000000000E+01 0.  1.
         -5    1    3    3    0  501 -0.42538736447E+02  0.25782693030E+02  0.14103553969E+03  0.14962421199E+03  0.47000000000E+01 0.  1.
          5    1    4    4  502    0  0.44273528921E+02  0.97485069352E+02  0.14843833942E+04  0.14882471687E+04  0.47000000000E+01 0. -1.
         -5    1    4    4    0  502  0.72212339143E+01 -0.25528580895E+02  0.10155631253E+03  0.10506964013E+03  0.47000000000E+01 0. -1.
<mgrwt>
<rscale>  0 0.33884791E+03</rscale>
<asrwt>0</asrwt>
<pdfrwt beam="1">  1       21 0.34258895E+00 0.33884791E+03</pdfrwt>
<pdfrwt beam="2">  1       21 0.19831227E-02 0.33884791E+03</pdfrwt>
<totfact> 0.21437169E+04</totfact>
</mgrwt>
</event>
<event>
 8    1  0.9123825E-006  0.3664552E+03  0.7546771E-02  0.1056057E+00
         21   -1    0    0  504  503  0.00000000000E+00  0.00000000000E+00  0.72497736900E+03  0.72497736900E+03  0.00000000000E+00 0.  1.
         21   -1    0    0  503  504 -0.00000000000E+00 -0.00000000000E+00 -0.46308144298E+02  0.46308144298E+02  0.00000000000E+00 0.  1.
         25    2    1    2    0    0 -0.32365761483E+02  0.15982941030E+02  0.67913990151E+02  0.14682565479E+03  0.12506984419E+03 0.  0.
         25    2    1    2    0    0  0.32365761483E+02 -0.15982941030E+02  0.61075523455E+03  0.62445985851E+03  0.12500064574E+03 0.  0.
          5    1    3    3  501    0 -0.56264482983E+02  0.42119539847E+02  0.82284990367E+02  0.10831739160E+03  0.47000000000E+01 0.  1.
         -5    1    3    3    0  501  0.23898721499E+02 -0.26136598817E+02 -0.14371000216E+02  0.38508263195E+02  0.47000000000E+01 0.  1.
          5    1    4    4  502    0 -0.27004856773E+02  0.34157882233E+02  0.12375651248E+03  0.13127752126E+03  0.47000000000E+01 0. -1.
         -5    1    4    4    0  502  0.59370618256E+02 -0.50140823264E+02  0.48699872207E+03  0.49318233724E+03  0.47000000000E+01 0. -1.
<mgrwt>
<rscale>  0 0.36645522E+03</rscale>
<asrwt>0</asrwt>
<pdfrwt beam="1">  1       21 0.11153497E+00 0.36645522E+03</pdfrwt>
<pdfrwt beam="2">  1       21 0.71243304E-02 0.36645522E+03</pdfrwt>
<totfact> 0.87310239E+04</totfact>
</mgrwt>
</event>
<event>
 8    1  0.9123825E-006  0.3293435E+03  0.7546771E-02  0.1071428E+00
         21   -1    0    0  504  503  0.00000000000E+00  0.00000000000E+00  0.73788775248E+03  0.73788775248E+03  0.00000000000E+00 0. -1.
         21   -1    0    0  503  504 -0.00000000000E+00 -0.00000000000E+00 -0.36749191506E+02  0.36749191506E+02  0.00000000000E+00 0. -1.
         25    2    1    2    0    0 -0.42076323867E+02  0.50767595663E+02  0.15177207903E+03  0.20738358333E+03  0.12500168344E+03 0.  0.
         25    2    1    2    0    0  0.42076323867E+02 -0.50767595663E+02  0.54936648195E+03  0.56725336066E+03  0.12500031155E+03 0.  0.
          5    1    3    3  501    0  0.42050484954E+02 -0.11918304511E+01  0.44548417159E+02  0.61451730781E+02  0.47000000000E+01 0.  1.
         -5    1    3    3    0  501 -0.84126808821E+02  0.51959426114E+02  0.10722366187E+03  0.14593185255E+03  0.47000000000E+01 0.  1.
          5    1    4    4  502    0 -0.35214265499E+01 -0.46103964126E+02  0.60850285493E+02  0.76569074682E+02  0.47000000000E+01 0.  1.
         -5    1    4    4    0  502  0.45597750417E+02 -0.46636315371E+01  0.48851619645E+03  0.49068428597E+03  0.47000000000E+01 0.  1.
<mgrwt>
<rscale>  0 0.32934346E+03</rscale>
<asrwt>0</asrwt>
<pdfrwt beam="1">  1       21 0.11352118E+00 0.32934346E+03</pdfrwt>
<pdfrwt beam="2">  1       21 0.56537223E-02 0.32934346E+03</pdfrwt>
<totfact> 0.12616066E+05</totfact>
</mgrwt>
</event>
<event>
 8    1  0.9123825E-006  0.4222180E+03  0.7546771E-02  0.1036347E+00
         21   -1    0    0  504  503  0.00000000000E+00  0.00000000000E+00  0.39970301918E+03  0.39970301918E+03  0.00000000000E+00 0.  1.
         21   -1    0    0  503  504 -0.00000000000E+00 -0.00000000000E+00 -0.11150028502E+03  0.11150028502E+03  0.00000000000E+00 0.  1.
         25    2    1    2    0    0 -0.50148989402E+01 -0.53791349126E+02 -0.51218102748E+02  0.14548636318E+03  0.12499731745E+03 0.  0.
         25    2    1    2    0    0  0.50148989402E+01  0.53791349126E+02  0.33942083691E+03  0.36571694102E+03  0.12499487178E+03 0.  0.
          5    1    3    3  501    0  0.16004509104E+02 -0.51003176551E+02 -0.87825290284E+02  0.10292152323E+03  0.47000000000E+01 0.  1.
         -5    1    3    3    0  501 -0.21019408044E+02 -0.27881725748E+01  0.36607187536E+02  0.42564839952E+02  0.47000000000E+01 0.  1.
          5    1    4    4  502    0 -0.44153414207E+02  0.59629393311E+02  0.27173914798E+03  0.28172582962E+03  0.47000000000E+01 0. -1.
         -5    1    4    4    0  502  0.49168313147E+02 -0.58380441852E+01  0.67681688931E+02  0.83991111400E+02  0.47000000000E+01 0. -1.
<mgrwt>
<rscale>  0 0.42221796E+03</rscale>
<asrwt>0</asrwt>
<pdfrwt beam="1">  1       21 0.61492771E-01 0.42221796E+03</pdfrwt>
<pdfrwt beam="2">  1       21 0.17153890E-01 0.42221796E+03</pdfrwt>
<totfact> 0.70246751E+04</totfact>
</mgrwt>
</event>
<event>
 8    1  0.9123825E-006  0.3277880E+03  0.7546771E-02  0.1072120E+00
         21   -1    0    0  504  503  0.00000000000E+00  0.00000000000E+00  0.26617530279E+02  0.26617530279E+02  0.00000000000E+00 0. -1.
         21   -1    0    0  503  504 -0.00000000000E+00 -0.00000000000E+00 -0.10091561811E+04  0.10091561811E+04  0.00000000000E+00 0. -1.
         25    2    1    2    0    0  0.18251524276E+02 -0.10257187123E+03 -0.42949904095E+03  0.45929199026E+03  0.12500239693E+03 0.  0.
         25    2    1    2    0    0 -0.18251524276E+02  0.10257187123E+03 -0.55303960983E+03  0.57648172107E+03  0.12499703111E+03 0.  0.
          5    1    3    3  501    0  0.44442145512E+02 -0.12177674432E+03 -0.33351692185E+03  0.35785514795E+03  0.47000000000E+01 0. -1.
         -5    1    3    3    0  501 -0.26190621236E+02  0.19204873096E+02 -0.95982119101E+02  0.10143684231E+03  0.47000000000E+01 0. -1.
          5    1    4    4  502    0 -0.25460332807E+02  0.12954804146E+03 -0.41325039309E+03  0.43385354785E+03  0.47000000000E+01 0.  1.
         -5    1    4    4    0  502  0.72088085307E+01 -0.26976170231E+02 -0.13978921674E+03  0.14262817322E+03  0.47000000000E+01 0.  1.
<mgrwt>
<rscale>  0 0.32778801E+03</rscale>
<asrwt>0</asrwt>
<pdfrwt beam="1">  1       21 0.40950046E-02 0.32778801E+03</pdfrwt>
<pdfrwt beam="2">  1       21 0.15525480E+00 0.32778801E+03</pdfrwt>
<totfact> 0.97417580E+04</totfact>
</mgrwt>
</event>
<event>
 8    1  0.9123825E-006  0.2763597E+03  0.7546771E-02  0.1097694E+00
         21   -1    0    0  504  503  0.00000000000E+00  0.00000000000E+00  0.42168918044E+02  0.42168918044E+02  0.00000000000E+00 0.  1.
         21   -1    0    0  503  504 -0.00000000000E+00 -0.00000000000E+00 -0.45279019873E+03  0.45279019873E+03  0.00000000000E+00 0.  1.
         25    2    1    2    0    0  0.42810374351E+02  0.13641776869E+02 -0.13708681465E+03  0.19087869923E+03  0.12499222712E+03 0.  0.
         25    2    1    2    0    0 -0.42810374351E+02 -0.13641776869E+02 -0.27353446604E+03  0.30408041754E+03  0.12499987998E+03 0.  0.
          5    1    3    3  501    0  0.20053290939E+02  0.60704266412E+02 -0.28260273393E+02  0.70056230918E+02  0.47000000000E+01 0.  1.
         -5    1    3    3    0  501  0.22757083412E+02 -0.47062489543E+02 -0.10882654125E+03  0.12082246831E+03  0.47000000000E+01 0.  1.
          5    1    4    4  502    0  0.69624786700E+01 -0.32600765404E+02 -0.99179948453E+01  0.35096191188E+02  0.47000000000E+01 0.  1.
         -5    1    4    4    0  502 -0.49772853021E+02  0.18958988535E+02 -0.26361647119E+03  0.26898422635E+03  0.47000000000E+01 0.  1.
<mgrwt>
<rscale>  0 0.27635971E+03</rscale>
<asrwt>0</asrwt>
<pdfrwt beam="1">  1       21 0.64875259E-02 0.27635971E+03</pdfrwt>
<pdfrwt beam="2">  1       21 0.69660031E-01 0.27635971E+03</pdfrwt>
<totfact> 0.31631403E+05</totfact>
</mgrwt>
</event>
<event>
 8    1  0.9123825E-006  0.3208805E+03  0.7546771E-02  0.1075245E+00
         21   -1    0    0  504  503  0.00000000000E+00  0.00000000000E+00  0.69104253835E+02  0.69104253835E+02  0.00000000000E+00 0.  1.
         21   -1    0    0  503  504 -0.00000000000E+00 -0.00000000000E+00 -0.37249612895E+03  0.37249612895E+03  0.00000000000E+00 0.  1.
         25    2    1    2    0    0  0.41249330828E+02  0.89724725645E+02 -0.12545262264E+03  0.20276901554E+03  0.12499951781E+03 0.  0.
         25    2    1    2    0    0 -0.41249330828E+02 -0.89724725645E+02 -0.17793925248E+03  0.23883136724E+03  0.12500404281E+03 0.  0.
          5    1    3    3  501    0 -0.13235810633E+01  0.68415348282E+02 -0.91031472367E-01  0.68589430921E+02  0.47000000000E+01 0.  1.
         -5    1    3    3    0  501  0.42572911892E+02  0.21309377364E+02 -0.12536159116E+03  0.13417958462E+03  0.47000000000E+01 0.  1.
          5    1    4    4  502    0 -0.55087955721E+02 -0.17417489513E+02 -0.14856936855E+02  0.59840374156E+02  0.47000000000E+01 0.  1.
         -5    1    4    4    0  502  0.13838624893E+02 -0.72307236133E+02 -0.16308231563E+03  0.17899099309E+03  0.47000000000E+01 0.  1.
<mgrwt>
<rscale>  0 0.32088046E+03</rscale>
<asrwt>0</asrwt>
<pdfrwt beam="1">  1       21 0.10631424E-01 0.32088046E+03</pdfrwt>
<pdfrwt beam="2">  1       21 0.57307098E-01 0.32088046E+03</pdfrwt>
<totfact> 0.20117194E+05</totfact>
</mgrwt>
</event>
<event>
 8    1  0.9123825E-006  0.3813268E+03  0.7546771E-02  0.1050444E+00
         21   -1    0    0  504  503  0.00000000000E+00  0.00000000000E+00  0.92743782347E+02  0.92743782347E+02  0.00000000000E+00 0. -1.
         21   -1    0    0  503  504 -0.00000000000E+00 -0.00000000000E+00 -0.39196732799E+03  0.39196732799E+03  0.00000000000E+00 0. -1.
         25    2    1    2    0    0 -0.22504639801E+02 -0.14200922387E+03 -0.14007342931E+03  0.23646504708E+03  0.12498829712E+03 0.  0.
         25    2    1    2    0    0  0.22504639801E+02  0.14200922387E+03 -0.15915011634E+03  0.24824606326E+03  0.12499707963E+03 0.  0.
          5    1    3    3  501    0 -0.59276435784E+02 -0.32628897707E+02 -0.22013925211E+02  0.71309492411E+02  0.47000000000E+01 0.  1.
         -5    1    3    3    0  501  0.36771795982E+02 -0.10938032616E+03 -0.11805950410E+03  0.16515555467E+03  0.47000000000E+01 0.  1.
          5    1    4    4  502    0  0.16799523569E+02  0.64868608624E+02  0.43466185171E+01  0.67313768796E+02  0.47000000000E+01 0.  1.
         -5    1    4    4    0  502  0.57051162322E+01  0.77140615243E+02 -0.16349673485E+03  0.18093229446E+03  0.47000000000E+01 0.  1.
<mgrwt>
<rscale>  0 0.38132680E+03</rscale>
<asrwt>0</asrwt>
<pdfrwt beam="1">  1       21 0.14268274E-01 0.38132680E+03</pdfrwt>
<pdfrwt beam="2">  1       21 0.60302666E-01 0.38132680E+03</pdfrwt>
<totfact> 0.10414792E+05</totfact>
</mgrwt>
</event>
<event>
 8    1  0.9123825E-006  0.3400678E+03  0.7546771E-02  0.1066767E+00
         21   -1    0    0  504  503  0.00000000000E+00  0.00000000000E+00  0.66453920009E+02  0.66453920009E+02  0.00000000000E+00 0.  1.
         21   -1    0    0  503  504 -0.00000000000E+00 -0.00000000000E+00 -0.43506138200E+03  0.43506138200E+03  0.00000000000E+00 0.  1.
         25    2    1    2    0    0 -0.24687979715E+02  0.13491047298E+02 -0.34915322748E+03  0.37192064832E+03  0.12500195072E+03 0.  0.
         25    2    1    2    0    0  0.24687979715E+02 -0.13491047298E+02 -0.19454234511E+02  0.12959465369E+03  0.12499920930E+03 0.  0.
          5    1    3    3  501    0 -0.17500351927E+02  0.54454139744E+02 -0.74220911133E+02  0.93820836184E+02  0.47000000000E+01 0. -1.
         -5    1    3    3    0  501 -0.71876277882E+01 -0.40963092446E+02 -0.27493231635E+03  0.27809981213E+03  0.47000000000E+01 0. -1.
          5    1    4    4  502    0  0.70773521911E+02  0.59133555486E+01 -0.31673969454E+02  0.77905003167E+02  0.47000000000E+01 0. -1.
         -5    1    4    4    0  502 -0.46085542196E+02 -0.19404402847E+02  0.12219734943E+02  0.51689650525E+02  0.47000000000E+01 0. -1.
<mgrwt>
<rscale>  0 0.34006784E+03</rscale>
<asrwt>0</asrwt>
<pdfrwt beam="1">  1       21 0.10223680E-01 0.34006784E+03</pdfrwt>
<pdfrwt beam="2">  1       21 0.66932522E-01 0.34006784E+03</pdfrwt>
<totfact> 0.15298711E+05</totfact>
</mgrwt>
</event>
<event>
 8    1  0.9123825E-006  0.2880503E+03  0.7546771E-02  0.1091372E+00
         21   -1    0    0  504  503  0.00000000000E+00  0.00000000000E+00  0.91742989102E+02  0.91742989102E+02  0.00000000000E+00 0.  1.
         21   -1    0    0  503  504 -0.00000000000E+00 -0.00000000000E+00 -0.22610165564E+03  0.22610165564E+03  0.00000000000E+00 0.  1.
         25    2    1    2    0    0  0.70152778860E+02  0.11598579526E+02 -0.75905932119E+02  0.16261322986E+03  0.12500165025E+03 0.  0.
         25    2    1    2    0    0 -0.70152778860E+02 -0.11598579526E+02 -0.58452734418E+02  0.15523141489E+03  0.12499652226E+03 0.  0.
          5    1    3    3  501    0  0.61901195214E+02 -0.35821097646E+02  0.10993467567E+01  0.71681291623E+02  0.47000000000E+01 0.  1.
         -5    1    3    3    0  501  0.82515836457E+01  0.47419677173E+02 -0.77005278876E+02  0.90931938232E+02  0.47000000000E+01 0.  1.
          5    1    4    4  502    0 -0.43684226234E+02 -0.55370709731E+02  0.81145221529E+01  0.71148876222E+02  0.47000000000E+01 0.  1.
         -5    1    4    4    0  502 -0.26468552626E+02  0.43772130205E+02 -0.66567256571E+02  0.84082538664E+02  0.47000000000E+01 0.  1.
<mgrwt>
<rscale>  0 0.28805029E+03</rscale>
<asrwt>0</asrwt>
<pdfrwt beam="1">  1       21 0.14114306E-01 0.28805029E+03</pdfrwt>
<pdfrwt beam="2">  1       21 0.34784870E-01 0.28805029E+03</pdfrwt>
<totfact> 0.34169309E+05</totfact>
</mgrwt>
</event>
<event>
 8    1  0.9123825E-006  0.3190039E+03  0.7546771E-02  0.1076109E+00
         21   -1    0    0  504  503  0.00000000000E+00  0.00000000000E+00  0.54692286905E+03  0.54692286905E+03  0.00000000000E+00 0.  1.
         21   -1    0    0  503  504 -0.00000000000E+00 -0.00000000000E+00 -0.46516378493E+02  0.46516378493E+02  0.00000000000E+00 0.  1.
         25    2    1    2    0    0  0.53488114189E+02 -0.44842465345E+02  0.11940520814E+03  0.18642841088E+03  0.12500449429E+03 0.  0.
         25    2    1    2    0    0 -0.53488114189E+02  0.44842465345E+02  0.38100128241E+03  0.40701083666E+03  0.12499607555E+03 0.  0.
          5    1    3    3  501    0  0.29763734064E+02 -0.29618054411E+02 -0.18114218265E+02  0.45970902927E+02  0.47000000000E+01 0.  1.
         -5    1    3    3    0  501  0.23724380125E+02 -0.15224410934E+02  0.13751942641E+03  0.14045750795E+03  0.47000000000E+01 0.  1.
          5    1    4    4  502    0  0.37730339816E+00 -0.32926636836E+02  0.19977046042E+03  0.20252069678E+03  0.47000000000E+01 0. -1.
         -5    1    4    4    0  502 -0.53865417588E+02  0.77769102181E+02  0.18123082199E+03  0.20449013988E+03  0.47000000000E+01 0. -1.
<mgrwt>
<rscale>  0 0.31900389E+03</rscale>
<asrwt>0</asrwt>
<pdfrwt beam="1">  1       21 0.84141975E-01 0.31900389E+03</pdfrwt>
<pdfrwt beam="2">  1       21 0.71563663E-02 0.31900389E+03</pdfrwt>
<totfact> 0.17208183E+05</totfact>
</mgrwt>
</event>
<event>
 8    1  0.9123825E-006  0.2660644E+03  0.7546771E-02  0.1103553E+00
         21   -1    0    0  504  503  0.00000000000E+00  0.00000000000E+00  0.26474678443E+03  0.26474678443E+03  0.00000000000E+00 0. -1.
         21   -1    0    0  503  504 -0.00000000000E+00 -0.00000000000E+00 -0.66847126102E+02  0.66847126102E+02  0.00000000000E+00 0. -1.
         25    2    1    2    0    0 -0.29943487307E+02  0.33646668931E+02  0.10711710753E+03  0.17067132315E+03  0.12500366018E+03 0.  0.
         25    2    1    2    0    0  0.29943487307E+02 -0.33646668931E+02  0.90782550799E+02  0.16092258738E+03  0.12500358730E+03 0.  0.
          5    1    3    3  501    0 -0.67111984177E+02  0.57281458889E+02  0.75872019871E+02  0.11646388862E+03  0.47000000000E+01 0. -1.
         -5    1    3    3    0  501  0.37168496870E+02 -0.23634789958E+02  0.31245087655E+02  0.54207434532E+02  0.47000000000E+01 0. -1.
          5    1    4    4  502    0  0.72036230113E+02 -0.46064369080E+02  0.75649496815E+02  0.11426320894E+03  0.47000000000E+01 0.  1.
         -5    1    4    4    0  502 -0.42092742807E+02  0.12417700149E+02  0.15133053983E+02  0.46659378445E+02  0.47000000000E+01 0.  1.
<mgrwt>
<rscale>  0 0.26606437E+03</rscale>
<asrwt>0</asrwt>
<pdfrwt beam="1">  1       21 0.40730274E-01 0.26606437E+03</pdfrwt>
<pdfrwt beam="2">  1       21 0.10284173E-01 0.26606437E+03</pdfrwt>
<totfact> 0.44165756E+05</totfact>
</mgrwt>
</event>
<event>
 8    1  0.9123825E-006  0.2885021E+03  0.7546771E-02  0.1091134E+00
         21   -1    0    0  504  503  0.00000000000E+00  0.00000000000E+00  0.11462418930E+03  0.11462418930E+03  0.00000000000E+00 0.  1.
         21   -1    0    0  503  504 -0.00000000000E+00 -0.00000000000E+00 -0.18153553732E+03  0.18153553732E+03  0.00000000000E+00 0.  1.
         25    2    1    2    0    0 -0.34726428799E+02 -0.51056931625E+01 -0.97971202429E+02  0.16266378738E+03  0.12501663194E+03 0.  0.
         25    2    1    2    0    0  0.34726428799E+02  0.51056931625E+01  0.31059854402E+02  0.13349593923E+03  0.12499783309E+03 0.  0.
          5    1    3    3  501    0 -0.42916701218E+02  0.26519906838E+02  0.83375861083E+01  0.51349333435E+02  0.47000000000E+01 0. -1.
         -5    1    3    3    0  501  0.81902724191E+01 -0.31625600001E+02 -0.10630878854E+03  0.11131445395E+03  0.47000000000E+01 0. -1.
          5    1    4    4  502    0  0.34948845562E+02  0.29786627953E+02 -0.38138467889E+02  0.59877355852E+02  0.47000000000E+01 0. -1.
         -5    1    4    4    0  502 -0.22241676309E+00 -0.24680934791E+02  0.69198322290E+02  0.73618583382E+02  0.47000000000E+01 0. -1.
<mgrwt>
<rscale>  0 0.28850209E+03</rscale>
<asrwt>0</asrwt>
<pdfrwt beam="1">  1       21 0.17634491E-01 0.28850209E+03</pdfrwt>
<pdfrwt beam="2">  1       21 0.27928544E-01 0.28850209E+03</pdfrwt>
<totfact> 0.34961658E+05</totfact>
</mgrwt>
</event>
<event>
 8    1  0.9123825E-006  0.3187580E+03  0.7546771E-02  0.1076222E+00
         21   -1    0    0  504  503  0.00000000000E+00  0.00000000000E+00  0.38304401849E+02  0.38304401849E+02  0.00000000000E+00 0.  1.
         21   -1    0    0  503  504 -0.00000000000E+00 -0.00000000000E+00 -0.66315251630E+03  0.66315251630E+03  0.00000000000E+00 0.  1.
         25    2    1    2    0    0  0.16756727742E+02  0.44029034815E+02 -0.50368613674E+03  0.52109872118E+03  0.12499923618E+03 0.  0.
         25    2    1    2    0    0 -0.16756727742E+02 -0.44029034815E+02 -0.12116197771E+03  0.18035819697E+03  0.12501804085E+03 0.  0.
          5    1    3    3  501    0  0.65952673398E+02  0.28176165308E+02 -0.18983772965E+03  0.20298794303E+03  0.47000000000E+01 0.  1.
         -5    1    3    3    0  501 -0.49195945655E+02  0.15852869508E+02 -0.31384840709E+03  0.31811077815E+03  0.47000000000E+01 0.  1.
          5    1    4    4  502    0  0.20902390496E+02 -0.15015163964E+02 -0.12928117437E+03  0.13190177074E+03  0.47000000000E+01 0. -1.
         -5    1    4    4    0  502 -0.37659118239E+02 -0.29013870851E+02  0.81191966589E+01  0.48456426226E+02  0.47000000000E+01 0. -1.
<mgrwt>
<rscale>  0 0.31875797E+03</rscale>
<asrwt>0</asrwt>
<pdfrwt beam="1">  1       21 0.58929848E-02 0.31875797E+03</pdfrwt>
<pdfrwt beam="2">  1       21 0.10202347E+00 0.31875797E+03</pdfrwt>
<totfact> 0.15296802E+05</totfact>
</mgrwt>
</event>
<event>
 8    1  0.9123825E-006  0.3167863E+03  0.7546771E-02  0.1077138E+00
         21   -1    0    0  504  503  0.00000000000E+00  0.00000000000E+00  0.69378432601E+03  0.69378432601E+03  0.00000000000E+00 0. -1.
         21   -1    0    0  503  504 -0.00000000000E+00 -0.00000000000E+00 -0.36161648855E+02  0.36161648855E+02  0.00000000000E+00 0. -1.
         25    2    1    2    0    0 -0.29665458946E+02 -0.75998969294E+02  0.45090394484E+03  0.47497088395E+03  0.12500836109E+03 0.  0.
         25    2    1    2    0    0  0.29665458946E+02  0.75998969294E+02  0.20671873232E+03  0.25497509091E+03  0.12499511953E+03 0.  0.
          5    1    3    3  501    0  0.19633873576E+02 -0.76920163089E+02  0.38152681564E+03  0.38972682938E+03  0.47000000000E+01 0.  1.
         -5    1    3    3    0  501 -0.49299332522E+02  0.92119379537E+00  0.69377129193E+02  0.85244054573E+02  0.47000000000E+01 0.  1.
          5    1    4    4  502    0  0.81917536262E-01  0.10294373746E+03  0.17735436844E+03  0.20511967677E+03  0.47000000000E+01 0.  1.
         -5    1    4    4    0  502  0.29583541409E+02 -0.26944768163E+02  0.29364363872E+02  0.49855414142E+02  0.47000000000E+01 0.  1.
<mgrwt>
<rscale>  0 0.31678627E+03</rscale>
<asrwt>0</asrwt>
<pdfrwt beam="1">  1       21 0.10673604E+00 0.31678627E+03</pdfrwt>
<pdfrwt beam="2">  1       21 0.55633311E-02 0.31678627E+03</pdfrwt>
<totfact> 0.15143409E+05</totfact>
</mgrwt>
</event>
<event>
 8    1  0.9123825E-006  0.2997316E+03  0.7546771E-02  0.1085375E+00
         21   -1    0    0  504  503  0.00000000000E+00  0.00000000000E+00  0.76468341094E+02  0.76468341094E+02  0.00000000000E+00 0.  1.
         21   -1    0    0  503  504 -0.00000000000E+00 -0.00000000000E+00 -0.29371314760E+03  0.29371314760E+03  0.00000000000E+00 0.  1.
         25    2    1    2    0    0  0.63965208454E+02 -0.15190966623E+02 -0.17051774557E+03  0.22141420534E+03  0.12500254162E+03 0.  0.
         25    2    1    2    0    0 -0.63965208454E+02  0.15190966623E+02 -0.46727060935E+02  0.14876728336E+03  0.12500389200E+03 0.  0.
          5    1    3    3  501    0  0.28597120834E+02 -0.68652036724E+02 -0.70878581551E+02  0.10284337990E+03  0.47000000000E+01 0. -1.
         -5    1    3    3    0  501  0.35368087620E+02  0.53461070101E+02 -0.99639164022E+02  0.11857082544E+03  0.47000000000E+01 0. -1.
          5    1    4    4  502    0  0.91692167500E+01  0.38789148135E+02 -0.58436090162E+02  0.70891037390E+02  0.47000000000E+01 0. -1.
         -5    1    4    4    0  502 -0.73134425204E+02 -0.23598181512E+02  0.11709029227E+02  0.77876245968E+02  0.47000000000E+01 0. -1.
<mgrwt>
<rscale>  0 0.29973159E+03</rscale>
<asrwt>0</asrwt>
<pdfrwt beam="1">  1       21 0.11764360E-01 0.29973159E+03</pdfrwt>
<pdfrwt beam="2">  1       21 0.45186638E-01 0.29973159E+03</pdfrwt>
<totfact> 0.27840029E+05</totfact>
</mgrwt>
</event>
<event>
 8    1  0.9123825E-006  0.2539654E+03  0.7546771E-02  0.1110824E+00
         21   -1    0    0  504  503  0.00000000000E+00  0.00000000000E+00  0.97220283828E+03  0.97220283828E+03  0.00000000000E+00 0. -1.
         21   -1    0    0  503  504 -0.00000000000E+00 -0.00000000000E+00 -0.16585644590E+02  0.16585644590E+02  0.00000000000E+00 0. -1.
         25    2    1    2    0    0 -0.20206432647E+00 -0.22230228702E+02  0.48725844779E+03  0.50352494926E+03  0.12498942228E+03 0.  0.
         25    2    1    2    0    0  0.20206432647E+00  0.22230228702E+02  0.46835874589E+03  0.48526353361E+03  0.12500623303E+03 0.  0.
          5    1    3    3  501    0  0.32381216227E+02 -0.10832526959E+02  0.45417642837E+03  0.45548238703E+03  0.47000000000E+01 0. -1.
         -5    1    3    3    0  501 -0.32583280554E+02 -0.11397701743E+02  0.33082019420E+02  0.48042562230E+02  0.47000000000E+01 0. -1.
          5    1    4    4  502    0 -0.33971605954E+02  0.16479766659E+02  0.39011542947E+02  0.54494432774E+02  0.47000000000E+01 0.  1.
         -5    1    4    4    0  502  0.34173670281E+02  0.57504620424E+01  0.42934720295E+03  0.43076910083E+03  0.47000000000E+01 0.  1.
<mgrwt>
<rscale>  0 0.25396544E+03</rscale>
<asrwt>0</asrwt>
<pdfrwt beam="1">  1       21 0.14956962E+00 0.25396544E+03</pdfrwt>
<pdfrwt beam="2">  1       21 0.25516384E-02 0.25396544E+03</pdfrwt>
<totfact> 0.24343726E+05</totfact>
</mgrwt>
</event>
<event>
 8    1  0.9123825E-006  0.2775125E+03  0.7546771E-02  0.1097055E+00
         21   -1    0    0  504  503  0.00000000000E+00  0.00000000000E+00  0.10204664608E+03  0.10204664608E+03  0.00000000000E+00 0.  1.
         21   -1    0    0  503  504 -0.00000000000E+00 -0.00000000000E+00 -0.18867151332E+03  0.18867151332E+03  0.00000000000E+00 0.  1.
         25    2    1    2    0    0  0.43084193145E+02  0.23122315228E+02 -0.64769602417E+01  0.13438596856E+03  0.12500699329E+03 0.  0.
         25    2    1    2    0    0 -0.43084193145E+02 -0.23122315228E+02 -0.80147906997E+02  0.15633219084E+03  0.12500071095E+03 0.  0.
          5    1    3    3  501    0 -0.62756971573E+01 -0.38018351717E+02 -0.33380149946E+02  0.51196717204E+02  0.47000000000E+01 0. -1.
         -5    1    3    3    0  501  0.49359890302E+02  0.61140666945E+02  0.26903189704E+02  0.83189251357E+02  0.47000000000E+01 0. -1.
          5    1    4    4  502    0  0.38342090228E+02 -0.31885274876E+02 -0.17296769321E+02  0.52991082891E+02  0.47000000000E+01 0. -1.
         -5    1    4    4    0  502 -0.81426283373E+02  0.87629596479E+01 -0.62851137676E+02  0.10334110795E+03  0.47000000000E+01 0. -1.
<mgrwt>
<rscale>  0 0.27751249E+03</rscale>
<asrwt>0</asrwt>
<pdfrwt beam="1">  1       21 0.15699484E-01 0.27751249E+03</pdfrwt>
<pdfrwt beam="2">  1       21 0.29026386E-01 0.27751249E+03</pdfrwt>
<totfact> 0.40295956E+05</totfact>
</mgrwt>
</event>
<event>
 8    1  0.9123825E-006  0.3841911E+03  0.7546771E-02  0.1049395E+00
         21   -1    0    0  504  503  0.00000000000E+00  0.00000000000E+00  0.39111960190E+03  0.39111960190E+03  0.00000000000E+00 0.  1.
         21   -1    0    0  503  504 -0.00000000000E+00 -0.00000000000E+00 -0.94346347580E+02  0.94346347580E+02  0.00000000000E+00 0.  1.
         25    2    1    2    0    0 -0.26367268596E+02  0.42045035008E+02  0.32171281557E+03  0.34868591601E+03  0.12497885620E+03 0.  0.
         25    2    1    2    0    0  0.26367268596E+02 -0.42045035008E+02 -0.24939561258E+02  0.13678003347E+03  0.12499511197E+03 0.  0.
          5    1    3    3  501    0 -0.73988590824E+02  0.34719611376E+02  0.15776735106E+03  0.17774248240E+03  0.47000000000E+01 0.  1.
         -5    1    3    3    0  501  0.47621322228E+02  0.73254236315E+01  0.16394546451E+03  0.17094343361E+03  0.47000000000E+01 0.  1.
          5    1    4    4  502    0  0.74823322655E+01  0.44656140245E+02 -0.11034118365E+02  0.46840131574E+02  0.47000000000E+01 0. -1.
         -5    1    4    4    0  502  0.18884936331E+02 -0.86701175253E+02 -0.13905442894E+02  0.89939901893E+02  0.47000000000E+01 0. -1.
<mgrwt>
<rscale>  0 0.38419113E+03</rscale>
<asrwt>0</asrwt>
<pdfrwt beam="1">  1       21 0.60172246E-01 0.38419113E+03</pdfrwt>
<pdfrwt beam="2">  1       21 0.14514823E-01 0.38419113E+03</pdfrwt>
<totfact> 0.10132650E+05</totfact>
</mgrwt>
</event>
<event>
 8    1  0.9123825E-006  0.3098431E+03  0.7546771E-02  0.1080421E+00
         21   -1    0    0  504  503  0.00000000000E+00  0.00000000000E+00  0.84800312013E+02  0.84800312013E+02  0.00000000000E+00 0. -1.
         21   -1    0    0  503  504 -0.00000000000E+00 -0.00000000000E+00 -0.28302593832E+03  0.28302593832E+03  0.00000000000E+00 0. -1.
         25    2    1    2    0    0 -0.47914692458E+02 -0.23118648088E+02 -0.18748520142E+03  0.23155076606E+03  0.12503906139E+03 0.  0.
         25    2    1    2    0    0  0.47914692458E+02  0.23118648088E+02 -0.10740424890E+02  0.13627548427E+03  0.12500144496E+03 0.  0.
          5    1    3    3  501    0 -0.11801461261E+02  0.35747229223E+02 -0.74428284623E+01  0.38660374811E+02  0.47000000000E+01 0. -1.
         -5    1    3    3    0  501 -0.36113231197E+02 -0.58865877311E+02 -0.18004237295E+03  0.19289039125E+03  0.47000000000E+01 0. -1.
          5    1    4    4  502    0  0.30003031529E+02 -0.47840380645E+02 -0.24370896865E+02  0.61683989294E+02  0.47000000000E+01 0. -1.
         -5    1    4    4    0  502  0.17911660929E+02  0.70959028734E+02  0.13630471975E+02  0.74591494973E+02  0.47000000000E+01 0. -1.
<mgrwt>
<rscale>  0 0.30984311E+03</rscale>
<asrwt>0</asrwt>
<pdfrwt beam="1">  1       21 0.13046202E-01 0.30984311E+03</pdfrwt>
<pdfrwt beam="2">  1       21 0.43542453E-01 0.30984311E+03</pdfrwt>
<totfact> 0.24874738E+05</totfact>
</mgrwt>
</event>
<event>
 8    1  0.9123825E-006  0.3260336E+03  0.7546771E-02  0.1072905E+00
         21   -1    0    0  504  503  0.00000000000E+00  0.00000000000E+00  0.12207045864E+03  0.12207045864E+03  0.00000000000E+00 0.  1.
         21   -1    0    0  503  504 -0.00000000000E+00 -0.00000000000E+00 -0.21769786922E+03  0.21769786922E+03  0.00000000000E+00 0.  1.
         25    2    1    2    0    0 -0.16799792297E+02 -0.89649239148E+02 -0.10127233047E+03  0.18492971556E+03  0.12499478260E+03 0.  0.
         25    2    1    2    0    0  0.16799792297E+02  0.89649239148E+02  0.56449198860E+01  0.15483861230E+03  0.12499564648E+03 0.  0.
          5    1    3    3  501    0  0.60548700966E+01 -0.91491512137E+02 -0.12266591162E+03  0.15322001866E+03  0.47000000000E+01 0. -1.
         -5    1    3    3    0  501 -0.22854662394E+02  0.18422729890E+01  0.21393581150E+02  0.31709696897E+02  0.47000000000E+01 0. -1.
          5    1    4    4  502    0  0.11720535599E+02  0.25600231306E+02  0.62631078364E+02  0.68829388888E+02  0.47000000000E+01 0.  1.
         -5    1    4    4    0  502  0.50792566987E+01  0.64049007842E+02 -0.56986158478E+02  0.86009223414E+02  0.47000000000E+01 0.  1.
<mgrwt>
<rscale>  0 0.32603361E+03</rscale>
<asrwt>0</asrwt>
<pdfrwt beam="1">  1       21 0.18780071E-01 0.32603361E+03</pdfrwt>
<pdfrwt beam="2">  1       21 0.33491980E-01 0.32603361E+03</pdfrwt>
<totfact> 0.21551308E+05</totfact>
</mgrwt>
</event>
<event>
 8    1  0.9123825E-006  0.2613931E+03  0.7546771E-02  0.1106309E+00
         21   -1    0    0  504  503  0.00000000000E+00  0.00000000000E+00  0.41019538852E+02  0.41019538852E+02  0.00000000000E+00 0. -1.
         21   -1    0    0  503  504 -0.00000000000E+00 -0.00000000000E+00 -0.41642579856E+03  0.41642579856E+03  0.00000000000E+00 0. -1.
         25    2    1    2    0    0  0.16752079009E+02 -0.20582797514E+02 -0.23568937988E+03  0.26810587286E+03  0.12500796603E+03 0.  0.
         25    2    1    2    0    0 -0.16752079009E+02  0.20582797514E+02 -0.13971687983E+03  0.18933946455E+03  0.12499737046E+03 0.  0.
          5    1    3    3  501    0 -0.21797006351E+02  0.16765155469E+02 -0.16517613191E+01  0.27946345722E+02  0.47000000000E+01 0.  1.
         -5    1    3    3    0  501  0.38549085359E+02 -0.37347952982E+02 -0.23403761856E+03  0.24015952714E+03  0.47000000000E+01 0.  1.
          5    1    4    4  502    0 -0.30001639074E+02 -0.21731186672E+02  0.52143962940E+01  0.37704412872E+02  0.47000000000E+01 0.  1.
         -5    1    4    4    0  502  0.13249560065E+02  0.42313984186E+02 -0.14493127612E+03  0.15163505168E+03  0.47000000000E+01 0.  1.
<mgrwt>
<rscale>  0 0.26139315E+03</rscale>
<asrwt>0</asrwt>
<pdfrwt beam="1">  1       21 0.63106986E-02 0.26139315E+03</pdfrwt>
<pdfrwt beam="2">  1       21 0.64065504E-01 0.26139315E+03</pdfrwt>
<totfact> 0.40036235E+05</totfact>
</mgrwt>
</event>
<event>
 8    1  0.9123825E-006  0.3621422E+03  0.7546771E-02  0.1057739E+00
         21   -1    0    0  504  503  0.00000000000E+00  0.00000000000E+00  0.20936781840E+03  0.20936781840E+03  0.00000000000E+00 0.  1.
         21   -1    0    0  503  504 -0.00000000000E+00 -0.00000000000E+00 -0.15659874184E+03  0.15659874184E+03  0.00000000000E+00 0.  1.
         25    2    1    2    0    0 -0.94583370722E+02 -0.33725675060E+02 -0.58625317194E+02  0.17072152323E+03  0.12500190200E+03 0.  0.
         25    2    1    2    0    0  0.94583370722E+02  0.33725675060E+02  0.11139439375E+03  0.19524503701E+03  0.12501391258E+03 0.  0.
          5    1    3    3  501    0 -0.61527786950E+02 -0.24913505945E+02 -0.97931176412E+02  0.11840167507E+03  0.47000000000E+01 0.  1.
         -5    1    3    3    0  501 -0.33055583773E+02 -0.88121691156E+01  0.39305859219E+02  0.52319848165E+02  0.47000000000E+01 0.  1.
          5    1    4    4  502    0  0.81358789929E+02  0.67411334136E+02  0.36413119982E+02  0.11185502213E+03  0.47000000000E+01 0. -1.
         -5    1    4    4    0  502  0.13224580793E+02 -0.33685659076E+02  0.74981273773E+02  0.83390014876E+02  0.47000000000E+01 0. -1.
<mgrwt>
<rscale>  0 0.36214217E+03</rscale>
<asrwt>0</asrwt>
<pdfrwt beam="1">  1       21 0.32210434E-01 0.36214217E+03</pdfrwt>
<pdfrwt beam="2">  1       21 0.24092114E-01 0.36214217E+03</pdfrwt>
<totfact> 0.14392209E+05</totfact>
</mgrwt>
</event>
<event>
 8    1  0.9123825E-006  0.2911790E+03  0.7546771E-02  0.1089735E+00
         21   -1    0    0  504  503  0.00000000000E+00  0.00000000000E+00  0.26080395640E+03  0.26080395640E+03  0.00000000000E+00 0.  1.
         21   -1    0    0  503  504 -0.00000000000E+00 -0.00000000000E+00 -0.81272910544E+02  0.81272910544E+02  0.00000000000E+00 0.  1.
         25    2    1    2    0    0  0.59175458092E+02 -0.34596267368E+02  0.55083839576E+02  0.15283872376E+03  0.12500723796E+03 0.  0.
         25    2    1    2    0    0 -0.59175458092E+02  0.34596267368E+02  0.12444720628E+03  0.18923814319E+03  0.12500132451E+03 0.  0.
          5    1    3    3  501    0 -0.22286707119E+02  0.21406780571E+02  0.42965090513E+02  0.53132255471E+02  0.47000000000E+01 0.  1.
         -5    1    3    3    0  501  0.81462165211E+02 -0.56003047940E+02  0.12118749063E+02  0.99706468287E+02  0.47000000000E+01 0.  1.
          5    1    4    4  502    0 -0.68929021757E+02  0.26556302473E+02  0.14607106028E+03  0.16375375383E+03  0.47000000000E+01 0.  1.
         -5    1    4    4    0  502  0.97535636653E+01  0.80399648953E+01 -0.21623853995E+02  0.25484389364E+02  0.47000000000E+01 0.  1.
<mgrwt>
<rscale>  0 0.29117896E+03</rscale>
<asrwt>0</asrwt>
<pdfrwt beam="1">  1       21 0.40123685E-01 0.29117896E+03</pdfrwt>
<pdfrwt beam="2">  1       21 0.12503525E-01 0.29117896E+03</pdfrwt>
<totfact> 0.31903483E+05</totfact>
</mgrwt>
</event>
<event>
 8    1  0.9123825E-006  0.2935140E+03  0.7546771E-02  0.1088529E+00
         21   -1    0    0  504  503  0.00000000000E+00  0.00000000000E+00  0.78333419913E+02  0.78333419913E+02  0.00000000000E+00 0. -1.
         21   -1    0    0  503  504 -0.00000000000E+00 -0.00000000000E+00 -0.27494793517E+03  0.27494793517E+03  0.00000000000E+00 0. -1.
         25    2    1    2    0    0 -0.70580902155E+02 -0.25805592566E+02 -0.78693530928E+02  0.16572617894E+03  0.12499960888E+03 0.  0.
         25    2    1    2    0    0  0.70580902155E+02  0.25805592566E+02 -0.11792098432E+03  0.18755517614E+03  0.12499597272E+03 0.  0.
          5    1    3    3  501    0  0.20614408328E+01 -0.63512382125E+02 -0.38165865981E+02  0.74275134113E+02  0.47000000000E+01 0. -1.
         -5    1    3    3    0  501 -0.72642342988E+02  0.37706789559E+02 -0.40527664948E+02  0.91451044826E+02  0.47000000000E+01 0. -1.
          5    1    4    4  502    0  0.96019529150E+02  0.39152693083E+02 -0.11964187642E+03  0.15839492399E+03  0.47000000000E+01 0.  1.
         -5    1    4    4    0  502 -0.25438626995E+02 -0.13347100518E+02  0.17208920949E+01  0.29160252146E+02  0.47000000000E+01 0.  1.
<mgrwt>
<rscale>  0 0.29351397E+03</rscale>
<asrwt>0</asrwt>
<pdfrwt beam="1">  1       21 0.12051295E-01 0.29351397E+03</pdfrwt>
<pdfrwt beam="2">  1       21 0.42299682E-01 0.29351397E+03</pdfrwt>
<totfact> 0.30589770E+05</totfact>
</mgrwt>
</event>
<event>
 8    1  0.9123825E-006  0.2643915E+03  0.7546771E-02  0.1104533E+00
         21   -1    0    0  504  503  0.00000000000E+00  0.00000000000E+00  0.91219031658E+01  0.91219031658E+01  0.00000000000E+00 0.  1.
         21   -1    0    0  503  504 -0.00000000000E+00 -0.00000000000E+00 -0.19157977257E+04  0.19157977257E+04  0.00000000000E+00 0.  1.
         25    2    1    2    0    0  0.30368877308E+02 -0.25140353118E+02 -0.10789413295E+04  0.10868725967E+04  0.12499337139E+03 0.  0.
         25    2    1    2    0    0 -0.30368877308E+02  0.25140353118E+02 -0.82773449296E+03  0.83804703209E+03  0.12499652434E+03 0.  0.
          5    1    3    3  501    0 -0.34380592620E+02 -0.41127709301E+02 -0.27898697528E+03  0.28412908334E+03  0.47000000000E+01 0. -1.
         -5    1    3    3    0  501  0.64749469929E+02  0.15987356183E+02 -0.79995435425E+03  0.80274351339E+03  0.47000000000E+01 0. -1.
          5    1    4    4  502    0  0.18947233607E+02  0.44560784175E+02 -0.66620869374E+03  0.66798261561E+03  0.47000000000E+01 0.  1.
         -5    1    4    4    0  502 -0.49316110916E+02 -0.19420431057E+02 -0.16152579923E+03  0.17006441648E+03  0.47000000000E+01 0.  1.
<mgrwt>
<rscale>  0 0.26439154E+03</rscale>
<asrwt>0</asrwt>
<pdfrwt beam="1">  1       21 0.14033698E-02 0.26439154E+03</pdfrwt>
<pdfrwt beam="2">  1       21 0.29473808E+00 0.26439154E+03</pdfrwt>
<totfact> 0.75837299E+04</totfact>
</mgrwt>
</event>
<event>
 8    1  0.9123825E-006  0.3984796E+03  0.7546771E-02  0.1044307E+00
         21   -1    0    0  504  503  0.00000000000E+00  0.00000000000E+00  0.40206134411E+02  0.40206134411E+02  0.00000000000E+00 0. -1.
         21   -1    0    0  503  504 -0.00000000000E+00 -0.00000000000E+00 -0.98732442495E+03  0.98732442495E+03  0.00000000000E+00 0. -1.
         25    2    1    2    0    0 -0.16763306696E+02  0.10816781014E+03 -0.19003597800E+03  0.25242940166E+03  0.12500258513E+03 0.  0.
         25    2    1    2    0    0  0.16763306696E+02 -0.10816781014E+03 -0.75708231254E+03  0.77510115769E+03  0.12500757217E+03 0.  0.
          5    1    3    3  501    0  0.21300474140E+02  0.25614246238E+02 -0.14869550678E+03  0.15245407029E+03  0.47000000000E+01 0.  1.
         -5    1    3    3    0  501 -0.38063780836E+02  0.82553563898E+02 -0.41340471212E+02  0.99975331376E+02  0.47000000000E+01 0.  1.
          5    1    4    4  502    0  0.65286795314E+02 -0.85679849331E+02 -0.41236056004E+03  0.42622379533E+03  0.47000000000E+01 0.  1.
         -5    1    4    4    0  502 -0.48523488617E+02 -0.22487960804E+02 -0.34472175250E+03  0.34887736237E+03  0.47000000000E+01 0.  1.
<mgrwt>
<rscale>  0 0.39847960E+03</rscale>
<asrwt>0</asrwt>
<pdfrwt beam="1">  1       21 0.61855594E-02 0.39847960E+03</pdfrwt>
<pdfrwt beam="2">  1       21 0.15189606E+00 0.39847960E+03</pdfrwt>
<totfact> 0.49814360E+04</totfact>
</mgrwt>
</event>
<event>
 8    1  0.9123825E-006  0.2923042E+03  0.7546771E-02  0.1089152E+00
         21   -1    0    0  504  503  0.00000000000E+00  0.00000000000E+00  0.38761767379E+02  0.38761767379E+02  0.00000000000E+00 0. -1.
         21   -1    0    0  503  504 -0.00000000000E+00 -0.00000000000E+00 -0.55106976544E+03  0.55106976544E+03  0.00000000000E+00 0. -1.
         25    2    1    2    0    0 -0.37286192064E+02 -0.62195440528E+02 -0.30022587907E+03  0.33319617043E+03  0.12500230632E+03 0.  0.
         25    2    1    2    0    0  0.37286192064E+02  0.62195440528E+02 -0.21208211899E+03  0.25663536239E+03  0.12499740434E+03 0.  0.
          5    1    3    3  501    0 -0.53404217686E+02 -0.10142121701E+01 -0.23930785974E+03  0.24524147452E+03  0.47000000000E+01 0.  1.
         -5    1    3    3    0  501  0.16118025622E+02 -0.61181228358E+02 -0.60918019328E+02  0.87954695908E+02  0.47000000000E+01 0.  1.
          5    1    4    4  502    0  0.11065869432E+02  0.80592047198E+02 -0.20875163165E+03  0.22409119852E+03  0.47000000000E+01 0. -1.
         -5    1    4    4    0  502  0.26220322632E+02 -0.18396606670E+02 -0.33304873430E+01  0.32544163868E+02  0.47000000000E+01 0. -1.
<mgrwt>
<rscale>  0 0.29230421E+03</rscale>
<asrwt>0</asrwt>
<pdfrwt beam="1">  1       21 0.59633490E-02 0.29230421E+03</pdfrwt>
<pdfrwt beam="2">  1       21 0.84779962E-01 0.29230421E+03</pdfrwt>
<totfact> 0.23360822E+05</totfact>
</mgrwt>
</event>
<event>
 8    1  0.9123825E-006  0.2629892E+03  0.7546771E-02  0.1105360E+00
         21   -1    0    0  504  503  0.00000000000E+00  0.00000000000E+00  0.88732871379E+03  0.88732871379E+03  0.00000000000E+00 0.  1.
         21   -1    0    0  503  504 -0.00000000000E+00 -0.00000000000E+00 -0.19486385978E+02  0.19486385978E+02  0.00000000000E+00 0.  1.
         25    2    1    2    0    0  0.11167239215E+02  0.39252156057E+02  0.43690971301E+03  0.45626773421E+03  0.12499883588E+03 0.  0.
         25    2    1    2    0    0 -0.11167239215E+02 -0.39252156057E+02  0.43093261480E+03  0.45054736556E+03  0.12499828449E+03 0.  0.
          5    1    3    3  501    0  0.15589473725E+02 -0.36130761029E+02  0.60463250326E+02  0.72293555892E+02  0.47000000000E+01 0. -1.
         -5    1    3    3    0  501 -0.44222345093E+01  0.75382917086E+02  0.37644646268E+03  0.38397417831E+03  0.47000000000E+01 0. -1.
          5    1    4    4  502    0  0.47997883268E+02 -0.43272281222E+02  0.29719309725E+03  0.30417447982E+03  0.47000000000E+01 0. -1.
         -5    1    4    4    0  502 -0.59165122484E+02  0.40201251656E+01  0.13373951756E+03  0.14637288574E+03  0.47000000000E+01 0. -1.
<mgrwt>
<rscale>  0 0.26298920E+03</rscale>
<asrwt>0</asrwt>
<pdfrwt beam="1">  1       21 0.13651208E+00 0.26298920E+03</pdfrwt>
<pdfrwt beam="2">  1       21 0.29979062E-02 0.26298920E+03</pdfrwt>
<totfact> 0.23617101E+05</totfact>
</mgrwt>
</event>
<event>
 8    1  0.9123825E-006  0.2818050E+03  0.7546771E-02  0.1094707E+00
         21   -1    0    0  504  503  0.00000000000E+00  0.00000000000E+00  0.94630949293E+02  0.94630949293E+02  0.00000000000E+00 0.  1.
         21   -1    0    0  503  504 -0.00000000000E+00 -0.00000000000E+00 -0.20979936442E+03  0.20979936442E+03  0.00000000000E+00 0.  1.
         25    2    1    2    0    0 -0.61540432811E+02 -0.79338827917E+01 -0.36540723149E+02  0.14426138313E+03  0.12500380333E+03 0.  0.
         25    2    1    2    0    0  0.61540432811E+02  0.79338827917E+01 -0.78627691975E+02  0.16016893058E+03  0.12498640331E+03 0.  0.
          5    1    3    3  501    0  0.24471315532E+02  0.22734326231E+02  0.17550142009E+02  0.38023576339E+02  0.47000000000E+01 0.  1.
         -5    1    3    3    0  501 -0.86011748343E+02 -0.30668209023E+02 -0.54090865158E+02  0.10623780679E+03  0.47000000000E+01 0.  1.
          5    1    4    4  502    0  0.62359661886E+02 -0.45383482429E+02 -0.73076370502E+02  0.10635146371E+03  0.47000000000E+01 0. -1.
         -5    1    4    4    0  502 -0.81922907459E+00  0.53317365220E+02 -0.55513214731E+01  0.53817466871E+02  0.47000000000E+01 0. -1.
<mgrwt>
<rscale>  0 0.28180499E+03</rscale>
<asrwt>0</asrwt>
<pdfrwt beam="1">  1       21 0.14558608E-01 0.28180499E+03</pdfrwt>
<pdfrwt beam="2">  1       21 0.32276825E-01 0.28180499E+03</pdfrwt>
<totfact> 0.37521376E+05</totfact>
</mgrwt>
</event>
<event>
 8    1  0.9123825E-006  0.4232793E+03  0.7546771E-02  0.1036004E+00
         21   -1    0    0  504  503  0.00000000000E+00  0.00000000000E+00  0.43326714199E+03  0.43326714199E+03  0.00000000000E+00 0.  1.
         21   -1    0    0  503  504 -0.00000000000E+00 -0.00000000000E+00 -0.10338041541E+03  0.10338041541E+03  0.00000000000E+00 0.  1.
         25    2    1    2    0    0  0.10002642885E+03  0.97494809250E+02  0.40369265870E+02  0.19174367493E+03  0.12500173979E+03 0.  0.
         25    2    1    2    0    0 -0.10002642885E+03 -0.97494809250E+02  0.28951746072E+03  0.34490388247E+03  0.12501121463E+03 0.  0.
          5    1    3    3  501    0  0.78431549222E+02  0.12699146318E+03  0.23355134730E+02  0.15114857575E+03  0.47000000000E+01 0.  1.
         -5    1    3    3    0  501  0.21594879624E+02 -0.29496653926E+02  0.17014131140E+02  0.40595099178E+02  0.47000000000E+01 0.  1.
          5    1    4    4  502    0 -0.11816483681E+03 -0.44000694732E+02  0.23234891817E+03  0.26439950751E+03  0.47000000000E+01 0.  1.
         -5    1    4    4    0  502  0.18138407961E+02 -0.53494114518E+02  0.57168542547E+02  0.80504374965E+02  0.47000000000E+01 0.  1.
<mgrwt>
<rscale>  0 0.42327928E+03</rscale>
<asrwt>0</asrwt>
<pdfrwt beam="1">  1       21 0.66656482E-01 0.42327928E+03</pdfrwt>
<pdfrwt beam="2">  1       21 0.15904680E-01 0.42327928E+03</pdfrwt>
<totfact> 0.67662437E+04</totfact>
</mgrwt>
</event>
<event>
 8    1  0.9123825E-006  0.3146652E+03  0.7546771E-02  0.1078131E+00
         21   -1    0    0  504  503  0.00000000000E+00  0.00000000000E+00  0.48205665883E+02  0.48205665883E+02  0.00000000000E+00 0. -1.
         21   -1    0    0  503  504 -0.00000000000E+00 -0.00000000000E+00 -0.51349860196E+03  0.51349860196E+03  0.00000000000E+00 0. -1.
         25    2    1    2    0    0  0.91857809814E+02 -0.78712211142E+01 -0.27744115786E+03  0.31795719016E+03  0.12499346126E+03 0.  0.
         25    2    1    2    0    0 -0.91857809814E+02  0.78712211142E+01 -0.18785177822E+03  0.24374707768E+03  0.12499813580E+03 0.  0.
          5    1    3    3  501    0  0.96063858248E+02 -0.21382328651E+02 -0.10175391125E+03  0.14163833272E+03  0.47000000000E+01 0.  1.
         -5    1    3    3    0  501 -0.42060484343E+01  0.13511107537E+02 -0.17568724661E+03  0.17631885745E+03  0.47000000000E+01 0.  1.
          5    1    4    4  502    0 -0.10767311382E+03  0.33702537636E+02 -0.17935116344E+03  0.21193935526E+03  0.47000000000E+01 0.  1.
         -5    1    4    4    0  502  0.15815304002E+02 -0.25831316522E+02 -0.85006147820E+01  0.31807722421E+02  0.47000000000E+01 0.  1.
<mgrwt>
<rscale>  0 0.31466517E+03</rscale>
<asrwt>0</asrwt>
<pdfrwt beam="1">  1       21 0.74162563E-02 0.31466517E+03</pdfrwt>
<pdfrwt beam="2">  1       21 0.78999784E-01 0.31466517E+03</pdfrwt>
<totfact> 0.18707902E+05</totfact>
</mgrwt>
</event>
<event>
 8    1  0.9123825E-006  0.2869148E+03  0.7546771E-02  0.1091971E+00
         21   -1    0    0  504  503  0.00000000000E+00  0.00000000000E+00  0.56482284366E+02  0.56482284366E+02  0.00000000000E+00 0. -1.
         21   -1    0    0  503  504 -0.00000000000E+00 -0.00000000000E+00 -0.36436242870E+03  0.36436242870E+03  0.00000000000E+00 0. -1.
         25    2    1    2    0    0  0.56724065290E+02  0.24655429101E+01 -0.92999931863E+02  0.16584853717E+03  0.12503220173E+03 0.  0.
         25    2    1    2    0    0 -0.56724065290E+02 -0.24655429101E+01 -0.21488021247E+03  0.25499617590E+03  0.12500338205E+03 0.  0.
          5    1    3    3  501    0  0.61555759047E+02 -0.29742509844E+02 -0.14248733978E+01  0.68540853715E+02  0.47000000000E+01 0. -1.
         -5    1    3    3    0  501 -0.48316937578E+01  0.32208052754E+02 -0.91575058466E+02  0.97307683457E+02  0.47000000000E+01 0. -1.
          5    1    4    4  502    0  0.31965519070E+02  0.25972462369E+02 -0.90463559110E+02  0.99509339953E+02  0.47000000000E+01 0.  1.
         -5    1    4    4    0  502 -0.88689584359E+02 -0.28438005279E+02 -0.12441665336E+03  0.15548683594E+03  0.47000000000E+01 0.  1.
<mgrwt>
<rscale>  0 0.28691478E+03</rscale>
<asrwt>0</asrwt>
<pdfrwt beam="1">  1       21 0.86895824E-02 0.28691478E+03</pdfrwt>
<pdfrwt beam="2">  1       21 0.56055757E-01 0.28691478E+03</pdfrwt>
<totfact> 0.30421609E+05</totfact>
</mgrwt>
</event>
<event>
 8    1  0.9123825E-006  0.2806039E+03  0.7546771E-02  0.1095360E+00
         21   -1    0    0  504  503  0.00000000000E+00  0.00000000000E+00  0.15877463983E+03  0.15877463983E+03  0.00000000000E+00 0.  1.
         21   -1    0    0  503  504 -0.00000000000E+00 -0.00000000000E+00 -0.12397846909E+03  0.12397846909E+03  0.00000000000E+00 0.  1.
         25    2    1    2    0    0  0.55883338196E+02 -0.17705166791E+02  0.42566119688E+02  0.14447456995E+03  0.12499842558E+03 0.  0.
         25    2    1    2    0    0 -0.55883338196E+02  0.17705166791E+02 -0.77699489461E+01  0.13827853897E+03  0.12499664722E+03 0.  0.
          5    1    3    3  501    0  0.16591096942E+02 -0.28730593539E+02  0.81349036438E+02  0.87979925167E+02  0.47000000000E+01 0.  1.
         -5    1    3    3    0  501  0.39292241255E+02  0.11025426748E+02 -0.38782916751E+02  0.56494644786E+02  0.47000000000E+01 0.  1.
          5    1    4    4  502    0 -0.74309360217E+02  0.57404101950E+02 -0.65107618581E+01  0.94242198386E+02  0.47000000000E+01 0. -1.
         -5    1    4    4    0  502  0.18426022021E+02 -0.39698935159E+02 -0.12591870880E+01  0.44036340588E+02  0.47000000000E+01 0. -1.
<mgrwt>
<rscale>  0 0.28060390E+03</rscale>
<asrwt>0</asrwt>
<pdfrwt beam="1">  1       21 0.24426868E-01 0.28060390E+03</pdfrwt>
<pdfrwt beam="2">  1       21 0.19073611E-01 0.28060390E+03</pdfrwt>
<totfact> 0.39191154E+05</totfact>
</mgrwt>
</event>
<event>
 8    1  0.9123825E-006  0.3640817E+03  0.7546771E-02  0.1056979E+00
         21   -1    0    0  504  503  0.00000000000E+00  0.00000000000E+00  0.11662614477E+03  0.11662614477E+03  0.00000000000E+00 0.  1.
         21   -1    0    0  503  504 -0.00000000000E+00 -0.00000000000E+00 -0.28414614528E+03  0.28414614528E+03  0.00000000000E+00 0.  1.
         25    2    1    2    0    0 -0.21145848036E+02 -0.11796381058E+03 -0.21932409119E+02  0.17453212187E+03  0.12497129070E+03 0.  0.
         25    2    1    2    0    0  0.21145848036E+02  0.11796381058E+03 -0.14558759139E+03  0.22624016818E+03  0.12500503763E+03 0.  0.
          5    1    3    3  501    0  0.30262103218E+02 -0.89056911529E+02  0.26763608123E+02  0.97904591833E+02  0.47000000000E+01 0. -1.
         -5    1    3    3    0  501 -0.51407951254E+02 -0.28906899051E+02 -0.48696017241E+02  0.76627530040E+02  0.47000000000E+01 0. -1.
          5    1    4    4  502    0  0.38198024968E+02  0.13146135061E+03 -0.15044915261E+03  0.20346550896E+03  0.47000000000E+01 0.  1.
         -5    1    4    4    0  502 -0.17052176932E+02 -0.13497540029E+02  0.48615612177E+01  0.22774659216E+02  0.47000000000E+01 0.  1.
<mgrwt>
<rscale>  0 0.36408169E+03</rscale>
<asrwt>0</asrwt>
<pdfrwt beam="1">  1       21 0.17942484E-01 0.36408169E+03</pdfrwt>
<pdfrwt beam="2">  1       21 0.43714791E-01 0.36408169E+03</pdfrwt>
<totfact> 0.13542302E+05</totfact>
</mgrwt>
</event>
<event>
 8    1  0.9123825E-006  0.3529896E+03  0.7546771E-02  0.1061395E+00
         21   -1    0    0  504  503  0.00000000000E+00  0.00000000000E+00  0.54894467886E+03  0.54894467886E+03  0.00000000000E+00 0.  1.
         21   -1    0    0  503  504 -0.00000000000E+00 -0.00000000000E+00 -0.56745996667E+02  0.56745996667E+02  0.00000000000E+00 0.  1.
         25    2    1    2    0    0  0.35858473011E+02 -0.53676582834E+02  0.42896227710E+03  0.45144438183E+03  0.12500555622E+03 0.  0.
         25    2    1    2    0    0 -0.35858473011E+02  0.53676582834E+02  0.63236405090E+02  0.15424629369E+03  0.12500428215E+03 0.  0.
          5    1    3    3  501    0  0.51605053477E+02 -0.43990020957E+02  0.42687744392E+03  0.43225530143E+03  0.47000000000E+01 0.  1.
         -5    1    3    3    0  501 -0.15746580466E+02 -0.96865618774E+01  0.20848331805E+01  0.19189080404E+02  0.47000000000E+01 0.  1.
          5    1    4    4  502    0 -0.72534413433E+02  0.67036092302E+02  0.57862534177E+02  0.11456544708E+03  0.47000000000E+01 0.  1.
         -5    1    4    4    0  502  0.36675940422E+02 -0.13359509468E+02  0.53738709133E+01  0.39680846609E+02  0.47000000000E+01 0.  1.
<mgrwt>
<rscale>  0 0.35298959E+03</rscale>
<asrwt>0</asrwt>
<pdfrwt beam="1">  1       21 0.84453024E-01 0.35298959E+03</pdfrwt>
<pdfrwt beam="2">  1       21 0.87301537E-02 0.35298959E+03</pdfrwt>
<totfact> 0.11927466E+05</totfact>
</mgrwt>
</event>
<event>
 8    1  0.9123825E-006  0.4021744E+03  0.7546771E-02  0.1043029E+00
         21   -1    0    0  504  503  0.00000000000E+00  0.00000000000E+00  0.11404647492E+03  0.11404647492E+03  0.00000000000E+00 0.  1.
         21   -1    0    0  503  504 -0.00000000000E+00 -0.00000000000E+00 -0.35455783699E+03  0.35455783699E+03  0.00000000000E+00 0.  1.
         25    2    1    2    0    0  0.11575377784E+03  0.94202240174E+02 -0.17897076561E+03  0.26443725069E+03  0.12499410176E+03 0.  0.
         25    2    1    2    0    0 -0.11575377784E+03 -0.94202240174E+02 -0.61540596459E+02  0.20416706121E+03  0.12499577886E+03 0.  0.
          5    1    3    3  501    0  0.79239248743E+02  0.77358442403E+02 -0.19217882609E+03  0.22185125276E+03  0.47000000000E+01 0. -1.
         -5    1    3    3    0  501  0.36514529094E+02  0.16843797771E+02  0.13208060484E+02  0.42585997934E+02  0.47000000000E+01 0. -1.
          5    1    4    4  502    0 -0.75687539375E+02 -0.84157738629E+02  0.17724034041E+02  0.11466193776E+03  0.47000000000E+01 0.  1.
         -5    1    4    4    0  502 -0.40066238461E+02 -0.10044501545E+02 -0.79264630500E+02  0.89505123451E+02  0.47000000000E+01 0.  1.
<mgrwt>
<rscale>  0 0.40217445E+03</rscale>
<asrwt>0</asrwt>
<pdfrwt beam="1">  1       21 0.17545611E-01 0.40217445E+03</pdfrwt>
<pdfrwt beam="2">  1       21 0.54547360E-01 0.40217445E+03</pdfrwt>
<totfact> 0.87755933E+04</totfact>
</mgrwt>
</event>
<event>
 8    1  0.9123825E-006  0.2563392E+03  0.7546771E-02  0.1109363E+00
         21   -1    0    0  504  503  0.00000000000E+00  0.00000000000E+00  0.15623304216E+04  0.15623304216E+04  0.00000000000E+00 0.  1.
         21   -1    0    0  503  504 -0.00000000000E+00 -0.00000000000E+00 -0.10514704164E+02  0.10514704164E+02  0.00000000000E+00 0.  1.
         25    2    1    2    0    0 -0.14935359054E+02  0.17121889605E+02  0.87973584978E+03  0.88886282533E+03  0.12500293124E+03 0.  0.
         25    2    1    2    0    0  0.14935359054E+02 -0.17121889605E+02  0.67207986762E+03  0.68398230040E+03  0.12499685892E+03 0.  0.
          5    1    3    3  501    0  0.31689007495E+02 -0.70233129894E+01  0.68818294677E+02  0.76233639580E+02  0.47000000000E+01 0.  1.
         -5    1    3    3    0  501 -0.46624366549E+02  0.24145202594E+02  0.81091755510E+03  0.81262918575E+03  0.47000000000E+01 0.  1.
          5    1    4    4  502    0 -0.44507445849E+01  0.15518579206E+02  0.76855336917E+01  0.18487640630E+02  0.47000000000E+01 0.  1.
         -5    1    4    4    0  502  0.19386103639E+02 -0.32640468811E+02  0.66439433393E+03  0.66549465977E+03  0.47000000000E+01 0.  1.
<mgrwt>
<rscale>  0 0.25633917E+03</rscale>
<asrwt>0</asrwt>
<pdfrwt beam="1">  1       21 0.24035834E+00 0.25633917E+03</pdfrwt>
<pdfrwt beam="2">  1       21 0.16176480E-02 0.25633917E+03</pdfrwt>
<totfact> 0.12687814E+05</totfact>
</mgrwt>
</event>
<event>
 8    1  0.9123825E-006  0.3196025E+03  0.7546771E-02  0.1075832E+00
         21   -1    0    0  504  503  0.00000000000E+00  0.00000000000E+00  0.81021027960E+02  0.81021027960E+02  0.00000000000E+00 0.  1.
         21   -1    0    0  503  504 -0.00000000000E+00 -0.00000000000E+00 -0.31518284922E+03  0.31518284922E+03  0.00000000000E+00 0.  1.
         25    2    1    2    0    0 -0.37374917520E+02  0.62667970385E+02 -0.20105906364E+03  0.24772842634E+03  0.12498186738E+03 0.  0.
         25    2    1    2    0    0  0.37374917520E+02 -0.62667970385E+02 -0.33102757621E+02  0.14847545084E+03  0.12500003187E+03 0.  0.
          5    1    3    3  501    0 -0.35911430222E+02  0.82602135362E+02 -0.67640090927E+02  0.11273870448E+03  0.47000000000E+01 0.  1.
         -5    1    3    3    0  501 -0.14634872984E+01 -0.19934164976E+02 -0.13341897272E+03  0.13498972186E+03  0.47000000000E+01 0.  1.
          5    1    4    4  502    0  0.37168030521E+02 -0.66733012790E+02 -0.74387251981E+02  0.10672539879E+03  0.47000000000E+01 0.  1.
         -5    1    4    4    0  502  0.20688699929E+00  0.40650424046E+01  0.41284494360E+02  0.41750052054E+02  0.47000000000E+01 0.  1.
<mgrwt>
<rscale>  0 0.31960249E+03</rscale>
<asrwt>0</asrwt>
<pdfrwt beam="1">  1       21 0.12464774E-01 0.31960249E+03</pdfrwt>
<pdfrwt beam="2">  1       21 0.48489668E-01 0.31960249E+03</pdfrwt>
<totfact> 0.21550372E+05</totfact>
</mgrwt>
</event>
<event>
 8    1  0.9123825E-006  0.2729440E+03  0.7546771E-02  0.1099606E+00
         21   -1    0    0  504  503  0.00000000000E+00  0.00000000000E+00  0.29159232808E+03  0.29159232808E+03  0.00000000000E+00 0.  1.
         21   -1    0    0  503  504 -0.00000000000E+00 -0.00000000000E+00 -0.63872060467E+02  0.63872060467E+02  0.00000000000E+00 0.  1.
         25    2    1    2    0    0  0.53591620785E+02 -0.59972304719E+01  0.12622776312E+03  0.18564399948E+03  0.12498887057E+03 0.  0.
         25    2    1    2    0    0 -0.53591620785E+02  0.59972304719E+01  0.10149250449E+03  0.16982038907E+03  0.12502082820E+03 0.  0.
          5    1    3    3  501    0 -0.27843936787E+02 -0.38480972508E+02  0.36333569598E+02  0.59985734476E+02  0.47000000000E+01 0. -1.
         -5    1    3    3    0  501  0.81435557572E+02  0.32483742036E+02  0.89894193525E+02  0.12565826500E+03  0.47000000000E+01 0. -1.
          5    1    4    4  502    0 -0.59301917767E+02  0.23161420183E+02  0.12465944337E+03  0.14005440249E+03  0.47000000000E+01 0.  1.
         -5    1    4    4    0  502  0.57102969812E+01 -0.17164189711E+02 -0.23166938878E+02  0.29765986580E+02  0.47000000000E+01 0.  1.
<mgrwt>
<rscale>  0 0.27294397E+03</rscale>
<asrwt>0</asrwt>
<pdfrwt beam="1">  1       21 0.44860357E-01 0.27294397E+03</pdfrwt>
<pdfrwt beam="2">  1       21 0.98264710E-02 0.27294397E+03</pdfrwt>
<totfact> 0.39219710E+05</totfact>
</mgrwt>
</event>
<event>
 8    1  0.9123825E-006  0.4329440E+03  0.7546771E-02  0.1032934E+00
         21   -1    0    0  504  503  0.00000000000E+00  0.00000000000E+00  0.87156573649E+02  0.87156573649E+02  0.00000000000E+00 0. -1.
         21   -1    0    0  503  504 -0.00000000000E+00 -0.00000000000E+00 -0.53765457290E+03  0.53765457290E+03  0.00000000000E+00 0. -1.
         25    2    1    2    0    0 -0.10729708059E+03 -0.93387551045E+02 -0.73873623368E+02  0.20326158790E+03  0.12499625072E+03 0.  0.
         25    2    1    2    0    0  0.10729708059E+03  0.93387551045E+02 -0.37662437589E+03  0.42154955865E+03  0.12499684674E+03 0.  0.
          5    1    3    3  501    0  0.14455165517E+02  0.17865964968E+02 -0.16075630852E+02  0.28436955211E+02  0.47000000000E+01 0.  1.
         -5    1    3    3    0  501 -0.12175224611E+03 -0.11125351601E+03 -0.57797992515E+02  0.17482463269E+03  0.47000000000E+01 0.  1.
          5    1    4    4  502    0  0.12935024035E+03  0.94569698580E+02 -0.28306548240E+03  0.32530458019E+03  0.47000000000E+01 0.  1.
         -5    1    4    4    0  502 -0.22053159759E+02 -0.11821475353E+01 -0.93558893488E+02  0.96244978461E+02  0.47000000000E+01 0.  1.
<mgrwt>
<rscale>  0 0.43294402E+03</rscale>
<asrwt>0</asrwt>
<pdfrwt beam="1">  1       21 0.13408704E-01 0.43294402E+03</pdfrwt>
<pdfrwt beam="2">  1       21 0.82716085E-01 0.43294402E+03</pdfrwt>
<totfact> 0.56657951E+04</totfact>
</mgrwt>
</event>
<event>
 8    1  0.9123825E-006  0.2956131E+03  0.7546771E-02  0.1087454E+00
         21   -1    0    0  504  503  0.00000000000E+00  0.00000000000E+00  0.90829813454E+02  0.90829813454E+02  0.00000000000E+00 0.  1.
         21   -1    0    0  503  504 -0.00000000000E+00 -0.00000000000E+00 -0.24052425109E+03  0.24052425109E+03  0.00000000000E+00 0.  1.
         25    2    1    2    0    0 -0.62756102719E+02 -0.43204725037E+02 -0.97681622297E+02  0.17599828251E+03  0.12501487678E+03 0.  0.
         25    2    1    2    0    0  0.62756102719E+02  0.43204725037E+02 -0.52012815341E+02  0.15535578204E+03  0.12500043744E+03 0.  0.
          5    1    3    3  501    0  0.22682619159E+02  0.25616514982E+02 -0.11478086223E+02  0.36394278603E+02  0.47000000000E+01 0.  1.
         -5    1    3    3    0  501 -0.85438721878E+02 -0.68821240019E+02 -0.86203536075E+02  0.13960400390E+03  0.47000000000E+01 0.  1.
          5    1    4    4  502    0  0.82886814995E+02 -0.15206168701E+02 -0.31495732707E+02  0.90086196752E+02  0.47000000000E+01 0. -1.
         -5    1    4    4    0  502 -0.20130712276E+02  0.58410893738E+02 -0.20517082635E+02  0.65269585289E+02  0.47000000000E+01 0. -1.
<mgrwt>
<rscale>  0 0.29561308E+03</rscale>
<asrwt>0</asrwt>
<pdfrwt beam="1">  1       21 0.13973818E-01 0.29561308E+03</pdfrwt>
<pdfrwt beam="2">  1       21 0.37003731E-01 0.29561308E+03</pdfrwt>
<totfact> 0.30686450E+05</totfact>
</mgrwt>
</event>
<event>
 8    1  0.9123825E-006  0.3400071E+03  0.7546771E-02  0.1066793E+00
         21   -1    0    0  504  503  0.00000000000E+00  0.00000000000E+00  0.11816725846E+03  0.11816725846E+03  0.00000000000E+00 0. -1.
         21   -1    0    0  503  504 -0.00000000000E+00 -0.00000000000E+00 -0.24457875504E+03  0.24457875504E+03  0.00000000000E+00 0. -1.
         25    2    1    2    0    0  0.48380629302E+01 -0.54210329362E+02  0.45143593188E+02  0.14361563451E+03  0.12500135922E+03 0.  0.
         25    2    1    2    0    0 -0.48380629302E+01  0.54210329362E+02 -0.17155508976E+03  0.21913037899E+03  0.12499923004E+03 0.  0.
          5    1    3    3  501    0 -0.55911024208E+02 -0.31773056796E+01  0.11788386069E+02  0.57421197702E+02  0.47000000000E+01 0. -1.
         -5    1    3    3    0  501  0.60749087138E+02 -0.51033023683E+02  0.33355207119E+02  0.86194436806E+02  0.47000000000E+01 0. -1.
          5    1    4    4  502    0 -0.33344847327E+02  0.63396622977E+02 -0.36151523657E+02  0.80374332413E+02  0.47000000000E+01 0. -1.
         -5    1    4    4    0  502  0.28506784397E+02 -0.91862936143E+01 -0.13540356611E+03  0.13875604658E+03  0.47000000000E+01 0. -1.
<mgrwt>
<rscale>  0 0.34000706E+03</rscale>
<asrwt>0</asrwt>
<pdfrwt beam="1">  1       21 0.18179578E-01 0.34000706E+03</pdfrwt>
<pdfrwt beam="2">  1       21 0.37627501E-01 0.34000706E+03</pdfrwt>
<totfact> 0.18066856E+05</totfact>
</mgrwt>
</event>
<event>
 8    1  0.9123825E-006  0.3790093E+03  0.7546771E-02  0.1051301E+00
         21   -1    0    0  504  503  0.00000000000E+00  0.00000000000E+00  0.13520095915E+03  0.13520095915E+03  0.00000000000E+00 0. -1.
         21   -1    0    0  503  504 -0.00000000000E+00 -0.00000000000E+00 -0.26561945423E+03  0.26561945423E+03  0.00000000000E+00 0. -1.
         25    2    1    2    0    0  0.23158071463E+02  0.13197005901E+02 -0.21317899116E+03  0.24855572196E+03  0.12499682960E+03 0.  0.
         25    2    1    2    0    0 -0.23158071463E+02 -0.13197005901E+02  0.82760496074E+02  0.15226469142E+03  0.12499911721E+03 0.  0.
          5    1    3    3  501    0 -0.34029959178E+02  0.47396570721E+02 -0.75563920472E+02  0.95584879112E+02  0.47000000000E+01 0.  1.
         -5    1    3    3    0  501  0.57188030641E+02 -0.34199564819E+02 -0.13761507068E+03  0.15297084285E+03  0.47000000000E+01 0.  1.
          5    1    4    4  502    0 -0.40843917644E+02  0.39393344767E+02  0.57466635151E+01  0.57229147836E+02  0.47000000000E+01 0.  1.
         -5    1    4    4    0  502  0.17685846181E+02 -0.52590350668E+02  0.77013832559E+02  0.95035543582E+02  0.47000000000E+01 0.  1.
<mgrwt>
<rscale>  0 0.37900926E+03</rscale>
<asrwt>0</asrwt>
<pdfrwt beam="1">  1       21 0.20800148E-01 0.37900926E+03</pdfrwt>
<pdfrwt beam="2">  1       21 0.40864531E-01 0.37900926E+03</pdfrwt>
<totfact> 0.11738362E+05</totfact>
</mgrwt>
</event>
<event>
 8    1  0.9123825E-006  0.3639073E+03  0.7546771E-02  0.1057047E+00
         21   -1    0    0  504  503  0.00000000000E+00  0.00000000000E+00  0.16520230914E+03  0.16520230914E+03  0.00000000000E+00 0. -1.
         21   -1    0    0  503  504 -0.00000000000E+00 -0.00000000000E+00 -0.20040356578E+03  0.20040356578E+03  0.00000000000E+00 0. -1.
         25    2    1    2    0    0  0.14528628427E+02 -0.12332656547E+03 -0.63202364960E+02  0.18719336405E+03  0.12500517514E+03 0.  0.
         25    2    1    2    0    0 -0.14528628427E+02  0.12332656547E+03  0.28001108310E+02  0.17841251087E+03  0.12500575656E+03 0.  0.
          5    1    3    3  501    0  0.51092310422E+02 -0.82768941896E+02 -0.83967457799E+02  0.12858361442E+03  0.47000000000E+01 0. -1.
         -5    1    3    3    0  501 -0.36563681995E+02 -0.40557623576E+02  0.20765092839E+02  0.58609749631E+02  0.47000000000E+01 0. -1.
          5    1    4    4  502    0 -0.42648694347E+02 -0.63517061331E+01  0.87610237915E+01  0.44250433198E+02  0.47000000000E+01 0.  1.
         -5    1    4    4    0  502  0.28120065920E+02  0.12967827161E+03  0.19240084519E+02  0.13416207768E+03  0.47000000000E+01 0.  1.
<mgrwt>
<rscale>  0 0.36390731E+03</rscale>
<asrwt>0</asrwt>
<pdfrwt beam="1">  1       21 0.25415740E-01 0.36390731E+03</pdfrwt>
<pdfrwt beam="2">  1       21 0.30831318E-01 0.36390731E+03</pdfrwt>
<totfact> 0.14152320E+05</totfact>
</mgrwt>
</event>
<event>
 8    1  0.9123825E-006  0.3161827E+03  0.7546771E-02  0.1077420E+00
         21   -1    0    0  504  503  0.00000000000E+00  0.00000000000E+00  0.11083772102E+03  0.11083772102E+03  0.00000000000E+00 0. -1.
         21   -1    0    0  503  504 -0.00000000000E+00 -0.00000000000E+00 -0.22549063195E+03  0.22549063195E+03  0.00000000000E+00 0. -1.
         25    2    1    2    0    0 -0.67206395226E+02  0.39551523053E+02 -0.11831578480E+03  0.18895343475E+03  0.12499501205E+03 0.  0.
         25    2    1    2    0    0  0.67206395226E+02 -0.39551523053E+02  0.36628738677E+01  0.14737491821E+03  0.12499970935E+03 0.  0.
          5    1    3    3  501    0 -0.95967363480E+01  0.60929138622E+02 -0.77103462390E+01  0.62337763201E+02  0.47000000000E+01 0.  1.
         -5    1    3    3    0  501 -0.57609658878E+02 -0.21377615569E+02 -0.11060543856E+03  0.12661567155E+03  0.47000000000E+01 0.  1.
          5    1    4    4  502    0  0.10239595743E+03 -0.43968758072E+02  0.37506379823E+01  0.11159901912E+03  0.47000000000E+01 0.  1.
         -5    1    4    4    0  502 -0.35189562200E+02  0.44172350188E+01 -0.87764114623E-01  0.35775899088E+02  0.47000000000E+01 0.  1.
<mgrwt>
<rscale>  0 0.31618265E+03</rscale>
<asrwt>0</asrwt>
<pdfrwt beam="1">  1       21 0.17051957E-01 0.31618265E+03</pdfrwt>
<pdfrwt beam="2">  1       21 0.34690867E-01 0.31618265E+03</pdfrwt>
<totfact> 0.24105841E+05</totfact>
</mgrwt>
</event>
<event>
 8    1  0.9123825E-006  0.3644511E+03  0.7546771E-02  0.1056835E+00
         21   -1    0    0  504  503  0.00000000000E+00  0.00000000000E+00  0.54992324972E+02  0.54992324972E+02  0.00000000000E+00 0. -1.
         21   -1    0    0  503  504 -0.00000000000E+00 -0.00000000000E+00 -0.60383247982E+03  0.60383247982E+03  0.00000000000E+00 0. -1.
         25    2    1    2    0    0 -0.90781974926E+02 -0.26265619874E+02 -0.44254270972E+03  0.46946854284E+03  0.12500165213E+03 0.  0.
         25    2    1    2    0    0  0.90781974926E+02  0.26265619874E+02 -0.10629744514E+03  0.18935626195E+03  0.12500158935E+03 0.  0.
          5    1    3    3  501    0 -0.60981034811E+02  0.14180167663E+02 -0.72098281855E+02  0.95603430943E+02  0.47000000000E+01 0. -1.
         -5    1    3    3    0  501 -0.29800940115E+02 -0.40445787538E+02 -0.37044442786E+03  0.37386511190E+03  0.47000000000E+01 0. -1.
          5    1    4    4  502    0  0.74709730828E+02 -0.19756408941E+02 -0.11596831989E+03  0.13943672685E+03  0.47000000000E+01 0. -1.
         -5    1    4    4    0  502  0.16072244097E+02  0.46022028816E+02  0.96708747593E+01  0.49919535107E+02  0.47000000000E+01 0. -1.
<mgrwt>
<rscale>  0 0.36445110E+03</rscale>
<asrwt>0</asrwt>
<pdfrwt beam="1">  1       21 0.84603580E-02 0.36445110E+03</pdfrwt>
<pdfrwt beam="2">  1       21 0.92897301E-01 0.36445110E+03</pdfrwt>
<totfact> 0.10055404E+05</totfact>
</mgrwt>
</event>
<event>
 8    1  0.9123825E-006  0.3291836E+03  0.7546771E-02  0.1071499E+00
         21   -1    0    0  504  503  0.00000000000E+00  0.00000000000E+00  0.21466104494E+03  0.21466104494E+03  0.00000000000E+00 0. -1.
         21   -1    0    0  503  504 -0.00000000000E+00 -0.00000000000E+00 -0.12620109484E+03  0.12620109484E+03  0.00000000000E+00 0. -1.
         25    2    1    2    0    0 -0.96877953809E+02 -0.19626932991E+02  0.86866959665E+02  0.18149594600E+03  0.12499742117E+03 0.  0.
         25    2    1    2    0    0  0.96877953809E+02  0.19626932991E+02  0.15929904316E+01  0.15936619378E+03  0.12499796665E+03 0.  0.
          5    1    3    3  501    0 -0.40975286345E+02 -0.42644582154E+02  0.10289691889E+03  0.11877457807E+03  0.47000000000E+01 0.  1.
         -5    1    3    3    0  501 -0.55902667465E+02  0.23017649163E+02 -0.16029959224E+02  0.62721367933E+02  0.47000000000E+01 0.  1.
          5    1    4    4  502    0 -0.25738143552E+02 -0.16736808581E+02  0.43086358192E+01  0.31356452886E+02  0.47000000000E+01 0. -1.
         -5    1    4    4    0  502  0.12261609736E+03  0.36363741572E+02 -0.27156453876E+01  0.12800974089E+03  0.47000000000E+01 0. -1.
<mgrwt>
<rscale>  0 0.32918359E+03</rscale>
<asrwt>0</asrwt>
<pdfrwt beam="1">  1       21 0.33024776E-01 0.32918359E+03</pdfrwt>
<pdfrwt beam="2">  1       21 0.19415553E-01 0.32918359E+03</pdfrwt>
<totfact> 0.20805363E+05</totfact>
</mgrwt>
</event>
<event>
 8    1  0.9123825E-006  0.3031207E+03  0.7546771E-02  0.1083691E+00
         21   -1    0    0  504  503  0.00000000000E+00  0.00000000000E+00  0.95220977709E+03  0.95220977709E+03  0.00000000000E+00 0.  1.
         21   -1    0    0  503  504 -0.00000000000E+00 -0.00000000000E+00 -0.24123401405E+02  0.24123401405E+02  0.00000000000E+00 0.  1.
         25    2    1    2    0    0 -0.39406043393E+02 -0.69507173338E+02  0.56397085411E+03  0.58315652225E+03  0.12499728696E+03 0.  0.
         25    2    1    2    0    0  0.39406043393E+02  0.69507173338E+02  0.36411552157E+03  0.39317665624E+03  0.12499474616E+03 0.  0.
          5    1    3    3  501    0 -0.81719705011E+02 -0.47983132268E+02  0.44448692573E+03  0.45450105425E+03  0.47000000000E+01 0.  1.
         -5    1    3    3    0  501  0.42313661618E+02 -0.21524041070E+02  0.11948392838E+03  0.12865546799E+03  0.47000000000E+01 0.  1.
          5    1    4    4  502    0  0.32653189874E+02  0.79612004685E+02  0.36924863102E+03  0.37917139081E+03  0.47000000000E+01 0. -1.
         -5    1    4    4    0  502  0.67528535185E+01 -0.10104831347E+02 -0.51331094533E+01  0.14005265433E+02  0.47000000000E+01 0. -1.
<mgrwt>
<rscale>  0 0.30312069E+03</rscale>
<asrwt>0</asrwt>
<pdfrwt beam="1">  1       21 0.14649378E+00 0.30312069E+03</pdfrwt>
<pdfrwt beam="2">  1       21 0.37112933E-02 0.30312069E+03</pdfrwt>
<totfact> 0.13552324E+05</totfact>
</mgrwt>
</event>
<event>
 8    1  0.9123825E-006  0.2584870E+03  0.7546771E-02  0.1108056E+00
         21   -1    0    0  504  503  0.00000000000E+00  0.00000000000E+00  0.14036970668E+03  0.14036970668E+03  0.00000000000E+00 0.  1.
         21   -1    0    0  503  504 -0.00000000000E+00 -0.00000000000E+00 -0.11899923688E+03  0.11899923688E+03  0.00000000000E+00 0.  1.
         25    2    1    2    0    0  0.29956443487E+02  0.50342076719E+01 -0.18264980109E+01  0.12865769791E+03  0.12500694134E+03 0.  0.
         25    2    1    2    0    0 -0.29956443487E+02 -0.50342076719E+01  0.23196967815E+02  0.13071124564E+03  0.12499839466E+03 0.  0.
          5    1    3    3  501    0  0.19608050201E+02  0.60559818985E+02 -0.23444634989E+02  0.67997854510E+02  0.47000000000E+01 0.  1.
         -5    1    3    3    0  501  0.10348393286E+02 -0.55525611313E+02  0.21618136978E+02  0.60659843403E+02  0.47000000000E+01 0.  1.
          5    1    4    4  502    0  0.26228665277E+02  0.36306275959E+02 -0.19188652816E+02  0.48952864606E+02  0.47000000000E+01 0. -1.
         -5    1    4    4    0  502 -0.56185108764E+02 -0.41340483630E+02  0.42385620630E+02  0.81758381037E+02  0.47000000000E+01 0. -1.
<mgrwt>
<rscale>  0 0.25848704E+03</rscale>
<asrwt>0</asrwt>
<pdfrwt beam="1">  1       21 0.21595339E-01 0.25848704E+03</pdfrwt>
<pdfrwt beam="2">  1       21 0.18307575E-01 0.25848704E+03</pdfrwt>
<totfact> 0.53731953E+05</totfact>
</mgrwt>
</event>
<event>
 8    1  0.9123825E-006  0.2973107E+03  0.7546771E-02  0.1086593E+00
         21   -1    0    0  504  503  0.00000000000E+00  0.00000000000E+00  0.53707270873E+02  0.53707270873E+02  0.00000000000E+00 0. -1.
         21   -1    0    0  503  504 -0.00000000000E+00 -0.00000000000E+00 -0.41146040648E+03  0.41146040648E+03  0.00000000000E+00 0. -1.
         25    2    1    2    0    0  0.70847454460E+02 -0.28403121506E+02 -0.13902738045E+03  0.20193418510E+03  0.12499081360E+03 0.  0.
         25    2    1    2    0    0 -0.70847454460E+02  0.28403121506E+02 -0.21872575515E+03  0.26323349225E+03  0.12499926543E+03 0.  0.
          5    1    3    3  501    0 -0.22568993495E+02 -0.18413187943E+02 -0.92300194990E+02  0.96901088501E+02  0.47000000000E+01 0.  1.
         -5    1    3    3    0  501  0.93416447954E+02 -0.99899335631E+01 -0.46727185460E+02  0.10503309660E+03  0.47000000000E+01 0.  1.
          5    1    4    4  502    0 -0.72382508374E+01  0.59224064723E+02 -0.42792752928E+02  0.73574396502E+02  0.47000000000E+01 0.  1.
         -5    1    4    4    0  502 -0.63609203622E+02 -0.30820943217E+02 -0.17593300223E+03  0.18965909574E+03  0.47000000000E+01 0.  1.
<mgrwt>
<rscale>  0 0.29731072E+03</rscale>
<asrwt>0</asrwt>
<pdfrwt beam="1">  1       21 0.82626570E-02 0.29731072E+03</pdfrwt>
<pdfrwt beam="2">  1       21 0.63301601E-01 0.29731072E+03</pdfrwt>
<totfact> 0.25491668E+05</totfact>
</mgrwt>
</event>
<event>
 8    1  0.9123825E-006  0.3050581E+03  0.7546771E-02  0.1082739E+00
         21   -1    0    0  504  503  0.00000000000E+00  0.00000000000E+00  0.11811127209E+03  0.11811127209E+03  0.00000000000E+00 0. -1.
         21   -1    0    0  503  504 -0.00000000000E+00 -0.00000000000E+00 -0.19697616365E+03  0.19697616365E+03  0.00000000000E+00 0. -1.
         25    2    1    2    0    0  0.85578845227E+02 -0.13339274222E+02 -0.51559703825E+02  0.16057904136E+03  0.12500220190E+03 0.  0.
         25    2    1    2    0    0 -0.85578845227E+02  0.13339274222E+02 -0.27305187740E+02  0.15450839438E+03  0.12500238266E+03 0.  0.
          5    1    3    3  501    0 -0.50569224474E+01 -0.47919604171E+02 -0.39942869962E+02  0.62764510588E+02  0.47000000000E+01 0.  1.
         -5    1    3    3    0  501  0.90635767674E+02  0.34580329950E+02 -0.11616833863E+02  0.97814530773E+02  0.47000000000E+01 0.  1.
          5    1    4    4  502    0  0.21122236474E+02  0.34693421154E+02 -0.19528845306E+02  0.45312781243E+02  0.47000000000E+01 0. -1.
         -5    1    4    4    0  502 -0.10670108170E+03 -0.21354146932E+02 -0.77763424339E+01  0.10919561314E+03  0.47000000000E+01 0. -1.
<mgrwt>
<rscale>  0 0.30505806E+03</rscale>
<asrwt>0</asrwt>
<pdfrwt beam="1">  1       21 0.18170965E-01 0.30505806E+03</pdfrwt>
<pdfrwt beam="2">  1       21 0.30304025E-01 0.30505806E+03</pdfrwt>
<totfact> 0.28077770E+05</totfact>
</mgrwt>
</event>
<event>
 8    1  0.9123825E-006  0.3891149E+03  0.7546771E-02  0.1047615E+00
         21   -1    0    0  504  503  0.00000000000E+00  0.00000000000E+00  0.51147294166E+02  0.51147294166E+02  0.00000000000E+00 0. -1.
         21   -1    0    0  503  504 -0.00000000000E+00 -0.00000000000E+00 -0.74007030924E+03  0.74007030924E+03  0.00000000000E+00 0. -1.
         25    2    1    2    0    0  0.23655652421E+02 -0.14694503031E+03 -0.36207393547E+03  0.41094398394E+03  0.12499996546E+03 0.  0.
         25    2    1    2    0    0 -0.23655652421E+02  0.14694503031E+03 -0.32684907961E+03  0.38027361947E+03  0.12500109199E+03 0.  0.
          5    1    3    3  501    0 -0.38942985978E+02 -0.10048099447E+03 -0.26660581650E+03  0.28759996141E+03  0.47000000000E+01 0.  1.
         -5    1    3    3    0  501  0.62598638400E+02 -0.46464035838E+02 -0.95468118963E+02  0.12334402253E+03  0.47000000000E+01 0.  1.
          5    1    4    4  502    0  0.37061464414E+02  0.11991693150E+03 -0.18567804424E+03  0.22416968733E+03  0.47000000000E+01 0. -1.
         -5    1    4    4    0  502 -0.60717116835E+02  0.27028098809E+02 -0.14117103537E+03  0.15610393214E+03  0.47000000000E+01 0. -1.
<mgrwt>
<rscale>  0 0.38911486E+03</rscale>
<asrwt>0</asrwt>
<pdfrwt beam="1">  1       21 0.78688150E-02 0.38911486E+03</pdfrwt>
<pdfrwt beam="2">  1       21 0.11385696E+00 0.38911486E+03</pdfrwt>
<totfact> 0.69251432E+04</totfact>
</mgrwt>
</event>
<event>
 8    1  0.9123825E-006  0.3498461E+03  0.7546771E-02  0.1062678E+00
         21   -1    0    0  504  503  0.00000000000E+00  0.00000000000E+00  0.53252751035E+03  0.53252751035E+03  0.00000000000E+00 0.  1.
         21   -1    0    0  503  504 -0.00000000000E+00 -0.00000000000E+00 -0.57458198124E+02  0.57458198124E+02  0.00000000000E+00 0.  1.
         25    2    1    2    0    0 -0.94610356458E+02 -0.70395100424E+02  0.29259590626E+03  0.33933031254E+03  0.12500442766E+03 0.  0.
         25    2    1    2    0    0  0.94610356458E+02  0.70395100424E+02  0.18247340597E+03  0.25065539594E+03  0.12499997565E+03 0.  0.
          5    1    3    3  501    0 -0.10877515973E+03 -0.85592406190E+02  0.19340025761E+03  0.23787359041E+03  0.47000000000E+01 0.  1.
         -5    1    3    3    0  501  0.14164803271E+02  0.15197305766E+02  0.99195648643E+02  0.10145672212E+03  0.47000000000E+01 0.  1.
          5    1    4    4  502    0  0.87675463579E+02  0.46432299013E+02  0.19756254242E+03  0.22112438462E+03  0.47000000000E+01 0. -1.
         -5    1    4    4    0  502  0.69348928783E+01  0.23962801411E+02 -0.15089136450E+02  0.29531011319E+02  0.47000000000E+01 0. -1.
<mgrwt>
<rscale>  0 0.34984609E+03</rscale>
<asrwt>0</asrwt>
<pdfrwt beam="1">  1       21 0.81927306E-01 0.34984609E+03</pdfrwt>
<pdfrwt beam="2">  1       21 0.88397231E-02 0.34984609E+03</pdfrwt>
<totfact> 0.12525082E+05</totfact>
</mgrwt>
</event>
<event>
 8    1  0.9123825E-006  0.2846538E+03  0.7546771E-02  0.1093174E+00
         21   -1    0    0  504  503  0.00000000000E+00  0.00000000000E+00  0.59864249219E+03  0.59864249219E+03  0.00000000000E+00 0. -1.
         21   -1    0    0  503  504 -0.00000000000E+00 -0.00000000000E+00 -0.33838133804E+02  0.33838133804E+02  0.00000000000E+00 0. -1.
         25    2    1    2    0    0  0.34321900387E+02  0.56977359435E+02  0.31443093572E+03  0.34484206510E+03  0.12499929675E+03 0.  0.
         25    2    1    2    0    0 -0.34321900387E+02 -0.56977359435E+02  0.25037342266E+03  0.28763856089E+03  0.12499871440E+03 0.  0.
          5    1    3    3  501    0  0.56248410271E+02  0.87205232961E+02  0.22562169002E+03  0.24838654014E+03  0.47000000000E+01 0. -1.
         -5    1    3    3    0  501 -0.21926509884E+02 -0.30227873526E+02  0.88809245705E+02  0.96455524965E+02  0.47000000000E+01 0. -1.
          5    1    4    4  502    0 -0.58209887429E+02 -0.50990582520E+02  0.66727543973E+02  0.10228922536E+03  0.47000000000E+01 0.  1.
         -5    1    4    4    0  502  0.23887987042E+02 -0.59867769148E+01  0.18364587869E+03  0.18534933553E+03  0.47000000000E+01 0.  1.
<mgrwt>
<rscale>  0 0.28465379E+03</rscale>
<asrwt>0</asrwt>
<pdfrwt beam="1">  1       21 0.92098837E-01 0.28465379E+03</pdfrwt>
<pdfrwt beam="2">  1       21 0.52058672E-02 0.28465379E+03</pdfrwt>
<totfact> 0.24371086E+05</totfact>
</mgrwt>
</event>
<event>
 8    1  0.9123825E-006  0.3001185E+03  0.7546771E-02  0.1085181E+00
         21   -1    0    0  504  503  0.00000000000E+00  0.00000000000E+00  0.26721353248E+03  0.26721353248E+03  0.00000000000E+00 0. -1.
         21   -1    0    0  503  504 -0.00000000000E+00 -0.00000000000E+00 -0.84268843717E+02  0.84268843717E+02  0.00000000000E+00 0. -1.
         25    2    1    2    0    0  0.49203737523E+02  0.58419224067E+02  0.53370482958E+02  0.15590802252E+03  0.12500035803E+03 0.  0.
         25    2    1    2    0    0 -0.49203737523E+02 -0.58419224067E+02  0.12957420581E+03  0.19557435368E+03  0.12500415785E+03 0.  0.
          5    1    3    3  501    0  0.87112615799E+02  0.15030439009E+02  0.28758344841E+02  0.93078753355E+02  0.47000000000E+01 0. -1.
         -5    1    3    3    0  501 -0.37908878276E+02  0.43388785058E+02  0.24612138116E+02  0.62829269164E+02  0.47000000000E+01 0. -1.
          5    1    4    4  502    0 -0.69241545561E+02 -0.24859057761E+02  0.16088361304E+02  0.75453891576E+02  0.47000000000E+01 0. -1.
         -5    1    4    4    0  502  0.20037808039E+02 -0.33560166306E+02  0.11348584450E+03  0.12012046211E+03  0.47000000000E+01 0. -1.
<mgrwt>
<rscale>  0 0.30011848E+03</rscale>
<asrwt>0</asrwt>
<pdfrwt beam="1">  1       21 0.41109774E-01 0.30011848E+03</pdfrwt>
<pdfrwt beam="2">  1       21 0.12964438E-01 0.30011848E+03</pdfrwt>
<totfact> 0.28377655E+05</totfact>
</mgrwt>
</event>
<event>
 8    1  0.9123825E-006  0.3561043E+03  0.7546771E-02  0.1060137E+00
         21   -1    0    0  504  503  0.00000000000E+00  0.00000000000E+00  0.45916354179E+02  0.45916354179E+02  0.00000000000E+00 0. -1.
         21   -1    0    0  503  504 -0.00000000000E+00 -0.00000000000E+00 -0.69044180613E+03  0.69044180613E+03  0.00000000000E+00 0. -1.
         25    2    1    2    0    0 -0.10758024145E+02 -0.12272772430E+03 -0.26024098573E+03  0.31389168679E+03  0.12499916396E+03 0.  0.
         25    2    1    2    0    0  0.10758024145E+02  0.12272772430E+03 -0.38428446622E+03  0.42246647351E+03  0.12500216346E+03 0.  0.
          5    1    3    3  501    0  0.32545620116E+01 -0.14423480250E+03 -0.18760901375E+03  0.23671396762E+03  0.47000000000E+01 0. -1.
         -5    1    3    3    0  501 -0.14012586157E+02  0.21507078199E+02 -0.72631971979E+02  0.77177719175E+02  0.47000000000E+01 0. -1.
          5    1    4    4  502    0  0.31653701043E+02  0.23593901678E+02 -0.25533081421E+03  0.25840770823E+03  0.47000000000E+01 0.  1.
         -5    1    4    4    0  502 -0.20895676897E+02  0.99133822621E+02 -0.12895365201E+03  0.16405876529E+03  0.47000000000E+01 0.  1.
<mgrwt>
<rscale>  0 0.35610431E+03</rscale>
<asrwt>0</asrwt>
<pdfrwt beam="1">  1       21 0.70640553E-02 0.35610431E+03</pdfrwt>
<pdfrwt beam="2">  1       21 0.10622180E+00 0.35610431E+03</pdfrwt>
<totfact> 0.10019637E+05</totfact>
</mgrwt>
</event>
<event>
 8    1  0.9123825E-006  0.3828118E+03  0.7546771E-02  0.1049899E+00
         21   -1    0    0  504  503  0.00000000000E+00  0.00000000000E+00  0.65545083947E+02  0.65545083947E+02  0.00000000000E+00 0. -1.
         21   -1    0    0  503  504 -0.00000000000E+00 -0.00000000000E+00 -0.55894674370E+03  0.55894674370E+03  0.00000000000E+00 0. -1.
         25    2    1    2    0    0  0.10431462168E+03  0.10050263529E+03 -0.25458626820E+03  0.31846453899E+03  0.12499269836E+03 0.  0.
         25    2    1    2    0    0 -0.10431462168E+03 -0.10050263529E+03 -0.23881539155E+03  0.30602728866E+03  0.12505035052E+03 0.  0.
          5    1    3    3  501    0  0.13133546320E+02  0.75192964095E+02 -0.18714441053E+03  0.20216723840E+03  0.47000000000E+01 0.  1.
         -5    1    3    3    0  501  0.91181075355E+02  0.25309671197E+02 -0.67441857668E+02  0.11629730059E+03  0.47000000000E+01 0.  1.
          5    1    4    4  502    0  0.27559432802E+02 -0.59327871390E+01 -0.43521876815E+02  0.52066919067E+02  0.47000000000E+01 0.  1.
         -5    1    4    4    0  502 -0.13187405448E+03 -0.94569848153E+02 -0.19529351474E+03  0.25396036959E+03  0.47000000000E+01 0.  1.
<mgrwt>
<rscale>  0 0.38281176E+03</rscale>
<asrwt>0</asrwt>
<pdfrwt beam="1">  1       21 0.10083859E-01 0.38281176E+03</pdfrwt>
<pdfrwt beam="2">  1       21 0.85991806E-01 0.38281176E+03</pdfrwt>
<totfact> 0.87813116E+04</totfact>
</mgrwt>
</event>
<event>
 8    1  0.9123825E-006  0.2600148E+03  0.7546771E-02  0.1107134E+00
         21   -1    0    0  504  503  0.00000000000E+00  0.00000000000E+00  0.46671362665E+02  0.46671362665E+02  0.00000000000E+00 0.  1.
         21   -1    0    0  503  504 -0.00000000000E+00 -0.00000000000E+00 -0.36214752618E+03  0.36214752618E+03  0.00000000000E+00 0.  1.
         25    2    1    2    0    0  0.34797492178E+02 -0.77230618453E+01 -0.15335843416E+03  0.20102376923E+03  0.12498494038E+03 0.  0.
         25    2    1    2    0    0 -0.34797492178E+02  0.77230618453E+01 -0.16211772935E+03  0.20779511961E+03  0.12500456959E+03 0.  0.
          5    1    3    3  501    0  0.14302030883E+02 -0.64996288806E+00 -0.17162556970E+03  0.17228579952E+03  0.47000000000E+01 0.  1.
         -5    1    3    3    0  501  0.20495461295E+02 -0.70730989573E+01  0.18267135540E+02  0.28737969716E+02  0.47000000000E+01 0.  1.
          5    1    4    4  502    0  0.12674134742E+02 -0.22574378348E+01 -0.15831861086E+03  0.15891067385E+03  0.47000000000E+01 0.  1.
         -5    1    4    4    0  502 -0.47471626920E+02  0.99804996801E+01 -0.37991184864E+01  0.48884445763E+02  0.47000000000E+01 0.  1.
<mgrwt>
<rscale>  0 0.26001476E+03</rscale>
<asrwt>0</asrwt>
<pdfrwt beam="1">  1       21 0.71802096E-02 0.26001476E+03</pdfrwt>
<pdfrwt beam="2">  1       21 0.55715005E-01 0.26001476E+03</pdfrwt>
<totfact> 0.43296064E+05</totfact>
</mgrwt>
</event>
<event>
 8    1  0.9123825E-006  0.2529046E+03  0.7546771E-02  0.1111483E+00
         21   -1    0    0  504  503  0.00000000000E+00  0.00000000000E+00  0.16706488029E+03  0.16706488029E+03  0.00000000000E+00 0. -1.
         21   -1    0    0  503  504 -0.00000000000E+00 -0.00000000000E+00 -0.95712398241E+02  0.95712398241E+02  0.00000000000E+00 0. -1.
         25    2    1    2    0    0 -0.90098233219E+01  0.16742727403E+02  0.37895383832E+02  0.13199217513E+03  0.12499751335E+03 0.  0.
         25    2    1    2    0    0  0.90098233219E+01 -0.16742727403E+02  0.33457098219E+02  0.13078510340E+03  0.12499547997E+03 0.  0.
          5    1    3    3  501    0  0.41633869025E+02 -0.15768862355E+02 -0.19377457348E+02  0.48781266110E+02  0.47000000000E+01 0.  1.
         -5    1    3    3    0  501 -0.50643692347E+02  0.32511589758E+02  0.57272841180E+02  0.83210909020E+02  0.47000000000E+01 0.  1.
          5    1    4    4  502    0  0.56215755625E+02  0.25890784714E+02  0.10236707981E+02  0.62908060723E+02  0.47000000000E+01 0. -1.
         -5    1    4    4    0  502 -0.47205932303E+02 -0.42633512118E+02  0.23220390238E+02  0.67877042679E+02  0.47000000000E+01 0. -1.
<mgrwt>
<rscale>  0 0.25290457E+03</rscale>
<asrwt>0</asrwt>
<pdfrwt beam="1">  1       21 0.25702289E-01 0.25290457E+03</pdfrwt>
<pdfrwt beam="2">  1       21 0.14724984E-01 0.25290457E+03</pdfrwt>
<totfact> 0.57653770E+05</totfact>
</mgrwt>
</event>
<event>
 8    1  0.9123825E-006  0.3833682E+03  0.7546771E-02  0.1049696E+00
         21   -1    0    0  504  503  0.00000000000E+00  0.00000000000E+00  0.18617735936E+03  0.18617735936E+03  0.00000000000E+00 0. -1.
         21   -1    0    0  503  504 -0.00000000000E+00 -0.00000000000E+00 -0.19735372139E+03  0.19735372139E+03  0.00000000000E+00 0. -1.
         25    2    1    2    0    0  0.12771568217E+03 -0.38108817864E+02  0.52368932394E+02  0.19007967915E+03  0.12499680746E+03 0.  0.
         25    2    1    2    0    0 -0.12771568217E+03  0.38108817864E+02 -0.63545294417E+02  0.19345140160E+03  0.12498745085E+03 0.  0.
          5    1    3    3  501    0  0.12061422475E+03  0.20692867151E+02  0.43729088457E+02  0.13003964449E+03  0.47000000000E+01 0.  1.
         -5    1    3    3    0  501  0.71014574173E+01 -0.58801685015E+02  0.86398439373E+01  0.60040034654E+02  0.47000000000E+01 0.  1.
          5    1    4    4  502    0 -0.56481018283E+02  0.70825495768E+02  0.26429076243E+01  0.90749276790E+02  0.47000000000E+01 0. -1.
         -5    1    4    4    0  502 -0.71234663883E+02 -0.32716677904E+02 -0.66188202042E+02  0.10270212481E+03  0.47000000000E+01 0. -1.
<mgrwt>
<rscale>  0 0.38336820E+03</rscale>
<asrwt>0</asrwt>
<pdfrwt beam="1">  1       21 0.28642671E-01 0.38336820E+03</pdfrwt>
<pdfrwt beam="2">  1       21 0.30362111E-01 0.38336820E+03</pdfrwt>
<totfact> 0.11503195E+05</totfact>
</mgrwt>
</event>
<event>
 8    1  0.9123825E-006  0.2637190E+03  0.7546771E-02  0.1104929E+00
         21   -1    0    0  504  503  0.00000000000E+00  0.00000000000E+00  0.84788118308E+03  0.84788118308E+03  0.00000000000E+00 0. -1.
         21   -1    0    0  503  504 -0.00000000000E+00 -0.00000000000E+00 -0.20506330115E+02  0.20506330115E+02  0.00000000000E+00 0. -1.
         25    2    1    2    0    0 -0.85821692752E+01  0.45576537122E+01  0.27919745790E+03  0.30605700663E+03  0.12500097990E+03 0.  0.
         25    2    1    2    0    0  0.85821692752E+01 -0.45576537122E+01  0.54817739507E+03  0.56233050657E+03  0.12499086491E+03 0.  0.
          5    1    3    3  501    0 -0.58369507517E+02  0.26423867456E+02  0.19847921930E+03  0.20861761832E+03  0.47000000000E+01 0.  1.
         -5    1    3    3    0  501  0.49787338242E+02 -0.21866213744E+02  0.80718238594E+02  0.97439388311E+02  0.47000000000E+01 0.  1.
          5    1    4    4  502    0 -0.30290336346E+02 -0.21126795312E+02  0.49975222467E+02  0.62317403803E+02  0.47000000000E+01 0.  1.
         -5    1    4    4    0  502  0.38872505621E+02  0.16569141600E+02  0.49820217260E+03  0.50001310276E+03  0.47000000000E+01 0.  1.
<mgrwt>
<rscale>  0 0.26371903E+03</rscale>
<asrwt>0</asrwt>
<pdfrwt beam="1">  1       21 0.13044323E+00 0.26371903E+03</pdfrwt>
<pdfrwt beam="2">  1       21 0.31548207E-02 0.26371903E+03</pdfrwt>
<totfact> 0.24369269E+05</totfact>
</mgrwt>
</event>
<event>
 8    1  0.9123825E-006  0.2790830E+03  0.7546771E-02  0.1096191E+00
         21   -1    0    0  504  503  0.00000000000E+00  0.00000000000E+00  0.40230998333E+02  0.40230998333E+02  0.00000000000E+00 0. -1.
         21   -1    0    0  503  504 -0.00000000000E+00 -0.00000000000E+00 -0.48400060933E+03  0.48400060933E+03  0.00000000000E+00 0. -1.
         25    2    1    2    0    0 -0.18794991192E+02 -0.43989641435E+02 -0.29623422996E+03  0.32507747967E+03  0.12502923075E+03 0.  0.
         25    2    1    2    0    0  0.18794991192E+02  0.43989641435E+02 -0.14753538104E+03  0.19915412800E+03  0.12492933119E+03 0.  0.
          5    1    3    3  501    0  0.46191564270E+02 -0.43202745236E+00 -0.17225131135E+03  0.17839969596E+03  0.47000000000E+01 0. -1.
         -5    1    3    3    0  501 -0.64986555462E+02 -0.43557613983E+02 -0.12398291861E+03  0.14667778371E+03  0.47000000000E+01 0. -1.
          5    1    4    4  502    0  0.53490820741E+02 -0.17095580660E+02 -0.98067545810E+02  0.11310552738E+03  0.47000000000E+01 0. -1.
         -5    1    4    4    0  502 -0.34695829550E+02  0.61085222095E+02 -0.49467835233E+02  0.86048600622E+02  0.47000000000E+01 0. -1.
<mgrwt>
<rscale>  0 0.27908298E+03</rscale>
<asrwt>0</asrwt>
<pdfrwt beam="1">  1       21 0.61893841E-02 0.27908298E+03</pdfrwt>
<pdfrwt beam="2">  1       21 0.74461635E-01 0.27908298E+03</pdfrwt>
<totfact> 0.29543450E+05</totfact>
</mgrwt>
</event>
<event>
 8    1  0.9123825E-006  0.2536701E+03  0.7546771E-02  0.1111007E+00
         21   -1    0    0  504  503  0.00000000000E+00  0.00000000000E+00  0.10173930367E+04  0.10173930367E+04  0.00000000000E+00 0.  1.
         21   -1    0    0  503  504 -0.00000000000E+00 -0.00000000000E+00 -0.15812111439E+02  0.15812111439E+02  0.00000000000E+00 0.  1.
         25    2    1    2    0    0 -0.42522721436E+01  0.19761570393E+02  0.47134048171E+03  0.48805332837E+03  0.12500240057E+03 0.  0.
         25    2    1    2    0    0  0.42522721436E+01 -0.19761570393E+02  0.53024044356E+03  0.54515181978E+03  0.12500790831E+03 0.  0.
          5    1    3    3  501    0 -0.76000844486E+01  0.70741442377E+02  0.21149520492E+03  0.22319145292E+03  0.47000000000E+01 0. -1.
         -5    1    3    3    0  501  0.33478123050E+01 -0.50979871984E+02  0.25984527679E+03  0.26486187545E+03  0.47000000000E+01 0. -1.
          5    1    4    4  502    0 -0.45656979128E+02 -0.50109927030E+02  0.29420435892E+03  0.30195009411E+03  0.47000000000E+01 0. -1.
         -5    1    4    4    0  502  0.49909251272E+02  0.30348356636E+02  0.23603608464E+03  0.24320172566E+03  0.47000000000E+01 0. -1.
<mgrwt>
<rscale>  0 0.25367012E+03</rscale>
<asrwt>0</asrwt>
<pdfrwt beam="1">  1       21 0.15652195E+00 0.25367012E+03</pdfrwt>
<pdfrwt beam="2">  1       21 0.24326333E-02 0.25367012E+03</pdfrwt>
<totfact> 0.23325969E+05</totfact>
</mgrwt>
</event>
<event>
 8    1  0.9123825E-006  0.3570925E+03  0.7546771E-02  0.1059741E+00
         21   -1    0    0  504  503  0.00000000000E+00  0.00000000000E+00  0.12099962749E+03  0.12099962749E+03  0.00000000000E+00 0.  1.
         21   -1    0    0  503  504 -0.00000000000E+00 -0.00000000000E+00 -0.26346165143E+03  0.26346165143E+03  0.00000000000E+00 0.  1.
         25    2    1    2    0    0 -0.61406413193E+02 -0.11146595515E+03 -0.63111624114E+02  0.18922539350E+03  0.12501106234E+03 0.  0.
         25    2    1    2    0    0  0.61406413193E+02  0.11146595515E+03 -0.79350399817E+02  0.19523588542E+03  0.12500063306E+03 0.  0.
          5    1    3    3  501    0 -0.43276231029E+02 -0.17078870901E+02  0.29811216741E+02  0.55455555600E+02  0.47000000000E+01 0.  1.
         -5    1    3    3    0  501 -0.18130182164E+02 -0.94387084252E+02 -0.92922840856E+02  0.13376983790E+03  0.47000000000E+01 0.  1.
          5    1    4    4  502    0  0.81526376353E+02  0.97064733574E+02 -0.16987699119E+02  0.12797962520E+03  0.47000000000E+01 0.  1.
         -5    1    4    4    0  502 -0.20119963161E+02  0.14401221578E+02 -0.62362700699E+02  0.67256260221E+02  0.47000000000E+01 0.  1.
<mgrwt>
<rscale>  0 0.35709249E+03</rscale>
<asrwt>0</asrwt>
<pdfrwt beam="1">  1       21 0.18615328E-01 0.35709249E+03</pdfrwt>
<pdfrwt beam="2">  1       21 0.40532561E-01 0.35709249E+03</pdfrwt>
<totfact> 0.14794311E+05</totfact>
</mgrwt>
</event>
<event>
 8    1  0.9123825E-006  0.3400048E+03  0.7546771E-02  0.1066794E+00
         21   -1    0    0  504  503  0.00000000000E+00  0.00000000000E+00  0.27200187919E+02  0.27200187919E+02  0.00000000000E+00 0. -1.
         21   -1    0    0  503  504 -0.00000000000E+00 -0.00000000000E+00 -0.10625225052E+04  0.10625225052E+04  0.00000000000E+00 0. -1.
         25    2    1    2    0    0  0.78286382076E+02 -0.79447642048E+02 -0.61052208015E+03  0.63308492886E+03  0.12497452281E+03 0.  0.
         25    2    1    2    0    0 -0.78286382076E+02  0.79447642048E+02 -0.42480023718E+03  0.45663776430E+03  0.12498848282E+03 0.  0.
          5    1    3    3  501    0  0.82254022500E+01 -0.63808477630E+01  0.25423065186E+01  0.11701529079E+02  0.47000000000E+01 0.  1.
         -5    1    3    3    0  501  0.70060979826E+02 -0.73066794285E+02 -0.61306438667E+03  0.62138339978E+03  0.47000000000E+01 0.  1.
          5    1    4    4  502    0 -0.94327113654E+02  0.68414187603E+02 -0.42020693519E+03  0.43608951354E+03  0.47000000000E+01 0. -1.
         -5    1    4    4    0  502  0.16040731578E+02  0.11033454445E+02 -0.45933019891E+01  0.20548250770E+02  0.47000000000E+01 0. -1.
<mgrwt>
<rscale>  0 0.34000478E+03</rscale>
<asrwt>0</asrwt>
<pdfrwt beam="1">  1       21 0.41846451E-02 0.34000478E+03</pdfrwt>
<pdfrwt beam="2">  1       21 0.16346497E+00 0.34000478E+03</pdfrwt>
<totfact> 0.81165212E+04</totfact>
</mgrwt>
</event>
<event>
 8    1  0.9123825E-006  0.2606929E+03  0.7546771E-02  0.1106728E+00
         21   -1    0    0  504  503  0.00000000000E+00  0.00000000000E+00  0.16462102407E+04  0.16462102407E+04  0.00000000000E+00 0.  1.
         21   -1    0    0  503  504 -0.00000000000E+00 -0.00000000000E+00 -0.10320794066E+02  0.10320794066E+02  0.00000000000E+00 0.  1.
         25    2    1    2    0    0  0.12076491012E+02  0.16832111038E+02  0.10124467903E+04  0.10203443289E+04  0.12499953893E+03 0.  0.
         25    2    1    2    0    0 -0.12076491012E+02 -0.16832111038E+02  0.62344265629E+03  0.63618670582E+03  0.12499446942E+03 0.  0.
          5    1    3    3  501    0  0.72184606552E+01  0.52377002187E+02  0.91262759520E+03  0.91416993719E+03  0.47000000000E+01 0.  1.
         -5    1    3    3    0  501  0.48580303570E+01 -0.35544891149E+02  0.99819195109E+02  0.10617439172E+03  0.47000000000E+01 0.  1.
          5    1    4    4  502    0  0.54524767524E+02 -0.10963653116E+02  0.36260401825E+03  0.36687452352E+03  0.47000000000E+01 0.  1.
         -5    1    4    4    0  502 -0.66601258536E+02 -0.58684579222E+01  0.26083863805E+03  0.26931218230E+03  0.47000000000E+01 0.  1.
<mgrwt>
<rscale>  0 0.26069290E+03</rscale>
<asrwt>0</asrwt>
<pdfrwt beam="1">  1       21 0.25326291E+00 0.26069290E+03</pdfrwt>
<pdfrwt beam="2">  1       21 0.15878158E-02 0.26069290E+03</pdfrwt>
<totfact> 0.10918627E+05</totfact>
</mgrwt>
</event>
<event>
 8    1  0.9123825E-006  0.2825164E+03  0.7546771E-02  0.1094322E+00
         21   -1    0    0  504  503  0.00000000000E+00  0.00000000000E+00  0.24215404067E+03  0.24215404067E+03  0.00000000000E+00 0. -1.
         21   -1    0    0  503  504 -0.00000000000E+00 -0.00000000000E+00 -0.82401573394E+02  0.82401573394E+02  0.00000000000E+00 0. -1.
         25    2    1    2    0    0 -0.13586926575E+02 -0.28458423685E+02  0.14620059936E+03  0.19492476102E+03  0.12500624286E+03 0.  0.
         25    2    1    2    0    0  0.13586926575E+02  0.28458423685E+02  0.13551867921E+02  0.12963085304E+03  0.12500407387E+03 0.  0.
          5    1    3    3  501    0 -0.62472849151E+02 -0.10710090480E+02  0.36165689260E+02  0.73127354654E+02  0.47000000000E+01 0. -1.
         -5    1    3    3    0  501  0.48885922575E+02 -0.17748333205E+02  0.11003491010E+03  0.12179740637E+03  0.47000000000E+01 0. -1.
          5    1    4    4  502    0  0.82671313907E+01  0.72801883865E+02  0.33242812996E+02  0.80595498458E+02  0.47000000000E+01 0. -1.
         -5    1    4    4    0  502  0.53197951846E+01 -0.44343460180E+02 -0.19690945075E+02  0.49035354587E+02  0.47000000000E+01 0. -1.
<mgrwt>
<rscale>  0 0.28251636E+03</rscale>
<asrwt>0</asrwt>
<pdfrwt beam="1">  1       21 0.37254468E-01 0.28251636E+03</pdfrwt>
<pdfrwt beam="2">  1       21 0.12677165E-01 0.28251636E+03</pdfrwt>
<totfact> 0.36234021E+05</totfact>
</mgrwt>
</event>
<event>
 8    1  0.9123825E-006  0.3334797E+03  0.7546771E-02  0.1069607E+00
         21   -1    0    0  504  503  0.00000000000E+00  0.00000000000E+00  0.38065465897E+03  0.38065465897E+03  0.00000000000E+00 0.  1.
         21   -1    0    0  503  504 -0.00000000000E+00 -0.00000000000E+00 -0.73037800729E+02  0.73037800729E+02  0.00000000000E+00 0.  1.
         25    2    1    2    0    0 -0.10762300313E+03 -0.18115661596E+02  0.13153224093E+03  0.21174542863E+03  0.12499803255E+03 0.  0.
         25    2    1    2    0    0  0.10762300313E+03  0.18115661596E+02  0.17608461731E+03  0.24194703108E+03  0.12498674088E+03 0.  0.
          5    1    3    3  501    0 -0.84360431879E+02 -0.15389757632E+02  0.15566787356E+03  0.17778668107E+03  0.47000000000E+01 0. -1.
         -5    1    3    3    0  501 -0.23262571252E+02 -0.27259039636E+01 -0.24135632624E+02  0.33958747560E+02  0.47000000000E+01 0. -1.
          5    1    4    4  502    0 -0.25400085794E+02 -0.83017511752E+01  0.13923637953E+02  0.30496575624E+02  0.47000000000E+01 0. -1.
         -5    1    4    4    0  502  0.13302308893E+03  0.26417412771E+02  0.16216097936E+03  0.21145045545E+03  0.47000000000E+01 0. -1.
<mgrwt>
<rscale>  0 0.33347971E+03</rscale>
<asrwt>0</asrwt>
<pdfrwt beam="1">  1       21 0.58562254E-01 0.33347971E+03</pdfrwt>
<pdfrwt beam="2">  1       21 0.11236585E-01 0.33347971E+03</pdfrwt>
<totfact> 0.17330135E+05</totfact>
</mgrwt>
</event>
<event>
 8    1  0.9123825E-006  0.4647106E+03  0.7546771E-02  0.1023424E+00
         21   -1    0    0  504  503  0.00000000000E+00  0.00000000000E+00  0.26438315266E+03  0.26438315266E+03  0.00000000000E+00 0.  1.
         21   -1    0    0  503  504 -0.00000000000E+00 -0.00000000000E+00 -0.20420734275E+03  0.20420734275E+03  0.00000000000E+00 0.  1.
         25    2    1    2    0    0 -0.30045497425E+02  0.18076938657E+03  0.99822982035E+02  0.24325083139E+03  0.12500414470E+03 0.  0.
         25    2    1    2    0    0  0.30045497425E+02 -0.18076938657E+03 -0.39647172118E+02  0.22533966402E+03  0.12500305152E+03 0.  0.
          5    1    3    3  501    0  0.27626443442E+02  0.67551078304E+02 -0.11774336112E+02  0.74074918482E+02  0.47000000000E+01 0. -1.
         -5    1    3    3    0  501 -0.57671940867E+02  0.11321830826E+03  0.11159731815E+03  0.16917591290E+03  0.47000000000E+01 0. -1.
          5    1    4    4  502    0  0.12856858463E+02  0.17799636000E+02 -0.43469248985E+01  0.22871633246E+02  0.47000000000E+01 0.  1.
         -5    1    4    4    0  502  0.17188638963E+02 -0.19856902257E+03 -0.35300247220E+02  0.20246803078E+03  0.47000000000E+01 0.  1.
<mgrwt>
<rscale>  0 0.46471058E+03</rscale>
<asrwt>0</asrwt>
<pdfrwt beam="1">  1       21 0.40674332E-01 0.46471058E+03</pdfrwt>
<pdfrwt beam="2">  1       21 0.31416514E-01 0.46471058E+03</pdfrwt>
<totfact> 0.52112155E+04</totfact>
</mgrwt>
</event>
<event>
 8    1  0.9123825E-006  0.3099895E+03  0.7546771E-02  0.1080351E+00
         21   -1    0    0  504  503  0.00000000000E+00  0.00000000000E+00  0.10105874225E+03  0.10105874225E+03  0.00000000000E+00 0.  1.
         21   -1    0    0  503  504 -0.00000000000E+00 -0.00000000000E+00 -0.23771694987E+03  0.23771694987E+03  0.00000000000E+00 0.  1.
         25    2    1    2    0    0  0.61870154980E+01 -0.91119723042E+02 -0.59999434554E+02  0.16602540723E+03  0.12499368229E+03 0.  0.
         25    2    1    2    0    0 -0.61870154980E+01  0.91119723042E+02 -0.76658773074E+02  0.17275028489E+03  0.12500004141E+03 0.  0.
          5    1    3    3  501    0 -0.33381559102E+02 -0.10677253085E+03 -0.42037804845E+02  0.11959920095E+03  0.47000000000E+01 0.  1.
         -5    1    3    3    0  501  0.39568574600E+02  0.15652807804E+02 -0.17961629709E+02  0.46426206283E+02  0.47000000000E+01 0.  1.
          5    1    4    4  502    0  0.18246477945E+01 -0.24024625758E+02  0.11815602530E+02  0.27243539519E+02  0.47000000000E+01 0.  1.
         -5    1    4    4    0  502 -0.80116632925E+01  0.11514434880E+03 -0.88474375604E+02  0.14550674537E+03  0.47000000000E+01 0.  1.
<mgrwt>
<rscale>  0 0.30998952E+03</rscale>
<asrwt>0</asrwt>
<pdfrwt beam="1">  1       21 0.15547499E-01 0.30998952E+03</pdfrwt>
<pdfrwt beam="2">  1       21 0.36571838E-01 0.30998952E+03</pdfrwt>
<totfact> 0.25755287E+05</totfact>
</mgrwt>
</event>
<event>
 8    1  0.9123825E-006  0.4961174E+03  0.7546771E-02  0.1014797E+00
         21   -1    0    0  504  503  0.00000000000E+00  0.00000000000E+00  0.36324644994E+03  0.36324644994E+03  0.00000000000E+00 0. -1.
         21   -1    0    0  503  504 -0.00000000000E+00 -0.00000000000E+00 -0.16939770751E+03  0.16939770751E+03  0.00000000000E+00 0. -1.
         25    2    1    2    0    0 -0.17238814580E+03  0.10748694179E+03  0.23816726522E+02  0.23971827701E+03  0.12500600146E+03 0.  0.
         25    2    1    2    0    0  0.17238814580E+03 -0.10748694179E+03  0.17003201590E+03  0.29292588044E+03  0.12499427799E+03 0.  0.
          5    1    3    3  501    0 -0.27958855683E+02 -0.25945094419E+02  0.19238507369E+02  0.42977385929E+02  0.47000000000E+01 0.  1.
         -5    1    3    3    0  501 -0.14442929012E+03  0.13343203621E+03  0.45782191535E+01  0.19674089108E+03  0.47000000000E+01 0.  1.
          5    1    4    4  502    0  0.12732594504E+03 -0.80979089231E+02  0.18457947407E+03  0.23845582698E+03  0.47000000000E+01 0.  1.
         -5    1    4    4    0  502  0.45062200757E+02 -0.26507852562E+02 -0.14547458167E+02  0.54470053458E+02  0.47000000000E+01 0.  1.
<mgrwt>
<rscale>  0 0.49611739E+03</rscale>
<asrwt>0</asrwt>
<pdfrwt beam="1">  1       21 0.55884069E-01 0.49611739E+03</pdfrwt>
<pdfrwt beam="2">  1       21 0.26061186E-01 0.49611739E+03</pdfrwt>
<totfact> 0.38259722E+04</totfact>
</mgrwt>
</event>
<event>
 8    1  0.9123825E-006  0.4115166E+03  0.7546771E-02  0.1039863E+00
         21   -1    0    0  504  503  0.00000000000E+00  0.00000000000E+00  0.26000641283E+03  0.26000641283E+03  0.00000000000E+00 0.  1.
         21   -1    0    0  503  504 -0.00000000000E+00 -0.00000000000E+00 -0.16282860958E+03  0.16282860958E+03  0.00000000000E+00 0.  1.
         25    2    1    2    0    0  0.15067390873E+03  0.58607984861E+02  0.23935149831E+02  0.20575696745E+03  0.12500206236E+03 0.  0.
         25    2    1    2    0    0 -0.15067390873E+03 -0.58607984861E+02  0.73242653422E+02  0.21707805496E+03  0.12498349092E+03 0.  0.
          5    1    3    3  501    0  0.99016013471E+02  0.52097861984E+02 -0.43755570291E+02  0.12022894027E+03  0.47000000000E+01 0.  1.
         -5    1    3    3    0  501  0.51657895262E+02  0.65101228771E+01  0.67690720122E+02  0.85528027181E+02  0.47000000000E+01 0.  1.
          5    1    4    4  502    0  0.15190698029E+02  0.11432072874E+02  0.22766719461E+02  0.30031035810E+02  0.47000000000E+01 0.  1.
         -5    1    4    4    0  502 -0.16586460676E+03 -0.70040057735E+02  0.50475933961E+02  0.18704701915E+03  0.47000000000E+01 0.  1.
<mgrwt>
<rscale>  0 0.41151662E+03</rscale>
<asrwt>0</asrwt>
<pdfrwt beam="1">  1       21 0.40000986E-01 0.41151662E+03</pdfrwt>
<pdfrwt beam="2">  1       21 0.25050555E-01 0.41151662E+03</pdfrwt>
<totfact> 0.85205214E+04</totfact>
</mgrwt>
</event>
<event>
 8    1  0.9123825E-006  0.2671571E+03  0.7546771E-02  0.1102918E+00
         21   -1    0    0  504  503  0.00000000000E+00  0.00000000000E+00  0.35499385065E+03  0.35499385065E+03  0.00000000000E+00 0.  1.
         21   -1    0    0  503  504 -0.00000000000E+00 -0.00000000000E+00 -0.50263496215E+02  0.50263496215E+02  0.00000000000E+00 0.  1.
         25    2    1    2    0    0  0.15624544764E+02 -0.31232453826E+01  0.85123047246E+02  0.15206590922E+03  0.12499690602E+03 0.  0.
         25    2    1    2    0    0 -0.15624544764E+02  0.31232453826E+01  0.21960730719E+03  0.25319143764E+03  0.12499861465E+03 0.  0.
          5    1    3    3  501    0  0.47495028813E+02 -0.41575827528E+02  0.13659294425E+02  0.64753328260E+02  0.47000000000E+01 0.  1.
         -5    1    3    3    0  501 -0.31870484049E+02  0.38452582145E+02  0.71463752822E+02  0.87312580964E+02  0.47000000000E+01 0.  1.
          5    1    4    4  502    0 -0.10863032473E+02  0.32997901417E+02  0.38435530979E+01  0.35266554593E+02  0.47000000000E+01 0.  1.
         -5    1    4    4    0  502 -0.47615122907E+01 -0.29874656034E+02  0.21576375409E+03  0.21792488305E+03  0.47000000000E+01 0.  1.
<mgrwt>
<rscale>  0 0.26715712E+03</rscale>
<asrwt>0</asrwt>
<pdfrwt beam="1">  1       21 0.54614437E-01 0.26715712E+03</pdfrwt>
<pdfrwt beam="2">  1       21 0.77328458E-02 0.26715712E+03</pdfrwt>
<totfact> 0.39638242E+05</totfact>
</mgrwt>
</event>
<event>
 8    1  0.9123825E-006  0.2874276E+03  0.7546771E-02  0.1091700E+00
         21   -1    0    0  504  503  0.00000000000E+00  0.00000000000E+00  0.15628544638E+03  0.15628544638E+03  0.00000000000E+00 0.  1.
         21   -1    0    0  503  504 -0.00000000000E+00 -0.00000000000E+00 -0.13215340191E+03  0.13215340191E+03  0.00000000000E+00 0.  1.
         25    2    1    2    0    0 -0.28337457179E+02 -0.21256691779E+02 -0.49583681416E+02  0.13906273521E+03  0.12500017775E+03 0.  0.
         25    2    1    2    0    0  0.28337457179E+02  0.21256691779E+02  0.73715725890E+02  0.14937611308E+03  0.12499742594E+03 0.  0.
          5    1    3    3  501    0  0.48795738956E+02  0.15863110954E+01 -0.14255318309E+02  0.51076850170E+02  0.47000000000E+01 0.  1.
         -5    1    3    3    0  501 -0.77133196136E+02 -0.22843002875E+02 -0.35328363107E+02  0.87985885040E+02  0.47000000000E+01 0.  1.
          5    1    4    4  502    0  0.68839591434E+02  0.45000585907E+02  0.41472646287E+02  0.92228046010E+02  0.47000000000E+01 0. -1.
         -5    1    4    4    0  502 -0.40502134255E+02 -0.23743894128E+02  0.32243079603E+02  0.57148067070E+02  0.47000000000E+01 0. -1.
<mgrwt>
<rscale>  0 0.28742758E+03</rscale>
<asrwt>0</asrwt>
<pdfrwt beam="1">  1       21 0.24043915E-01 0.28742758E+03</pdfrwt>
<pdfrwt beam="2">  1       21 0.20331293E-01 0.28742758E+03</pdfrwt>
<totfact> 0.35778438E+05</totfact>
</mgrwt>
</event>
<event>
 8    1  0.9123825E-006  0.3658907E+03  0.7546771E-02  0.1056275E+00
         21   -1    0    0  504  503  0.00000000000E+00  0.00000000000E+00  0.79445428030E+03  0.79445428030E+03  0.00000000000E+00 0. -1.
         21   -1    0    0  503  504 -0.00000000000E+00 -0.00000000000E+00 -0.42128294176E+02  0.42128294176E+02  0.00000000000E+00 0. -1.
         25    2    1    2    0    0  0.35493365214E+02 -0.34384809402E+02  0.65989710197E+03  0.67345538766E+03  0.12504351199E+03 0.  0.
         25    2    1    2    0    0 -0.35493365214E+02  0.34384809402E+02  0.92428884155E+02  0.16312718681E+03  0.12500114544E+03 0.  0.
          5    1    3    3  501    0 -0.16877603415E+02 -0.36114302174E+02  0.55157197635E+03  0.55303058814E+03  0.47000000000E+01 0.  1.
         -5    1    3    3    0  501  0.52370968629E+02  0.17294927722E+01  0.10832512562E+03  0.12042479952E+03  0.47000000000E+01 0.  1.
          5    1    4    4  502    0 -0.23104387599E+02  0.80621923185E+02  0.72878682181E+02  0.11120746171E+03  0.47000000000E+01 0. -1.
         -5    1    4    4    0  502 -0.12388977614E+02 -0.46237113783E+02  0.19550201974E+02  0.51919725101E+02  0.47000000000E+01 0. -1.
<mgrwt>
<rscale>  0 0.36589071E+03</rscale>
<asrwt>0</asrwt>
<pdfrwt beam="1">  1       21 0.12222372E+00 0.36589071E+03</pdfrwt>
<pdfrwt beam="2">  1       21 0.64812766E-02 0.36589071E+03</pdfrwt>
<totfact> 0.81938024E+04</totfact>
</mgrwt>
</event>
<event>
 8    1  0.9123825E-006  0.3163773E+03  0.7546771E-02  0.1077329E+00
         21   -1    0    0  504  503  0.00000000000E+00  0.00000000000E+00  0.10955799157E+03  0.10955799157E+03  0.00000000000E+00 0.  1.
         21   -1    0    0  503  504 -0.00000000000E+00 -0.00000000000E+00 -0.22840547535E+03  0.22840547535E+03  0.00000000000E+00 0.  1.
         25    2    1    2    0    0 -0.74055856706E+02  0.26382514970E+02 -0.11991915860E+03  0.19022168650E+03  0.12499351345E+03 0.  0.
         25    2    1    2    0    0  0.74055856706E+02 -0.26382514970E+02  0.10716748180E+01  0.14774178043E+03  0.12508468407E+03 0.  0.
          5    1    3    3  501    0 -0.85147271372E+01 -0.37076769217E+02 -0.83503374517E+02  0.91880851919E+02  0.47000000000E+01 0.  1.
         -5    1    3    3    0  501 -0.65541129568E+02  0.63459284186E+02 -0.36415784084E+02  0.98340834576E+02  0.47000000000E+01 0.  1.
          5    1    4    4  502    0  0.62622853679E+02  0.12778465795E+02 -0.50660753072E+02  0.81691571737E+02  0.47000000000E+01 0. -1.
         -5    1    4    4    0  502  0.11433003027E+02 -0.39160980764E+02  0.51732427890E+02  0.66050208690E+02  0.47000000000E+01 0. -1.
<mgrwt>
<rscale>  0 0.31637728E+03</rscale>
<asrwt>0</asrwt>
<pdfrwt beam="1">  1       21 0.16855076E-01 0.31637728E+03</pdfrwt>
<pdfrwt beam="2">  1       21 0.35139304E-01 0.31637728E+03</pdfrwt>
<totfact> 0.24004301E+05</totfact>
</mgrwt>
</event>
<event>
 8    1  0.9123825E-006  0.3231924E+03  0.7546771E-02  0.1074189E+00
         21   -1    0    0  504  503  0.00000000000E+00  0.00000000000E+00  0.36594776564E+03  0.36594776564E+03  0.00000000000E+00 0.  1.
         21   -1    0    0  503  504 -0.00000000000E+00 -0.00000000000E+00 -0.71358076614E+02  0.71358076614E+02  0.00000000000E+00 0.  1.
         25    2    1    2    0    0  0.61367224328E+02 -0.54135265793E+02  0.64121219157E+02  0.16260778345E+03  0.12503278478E+03 0.  0.
         25    2    1    2    0    0 -0.61367224328E+02  0.54135265793E+02  0.23046846987E+03  0.27469805880E+03  0.12508694848E+03 0.  0.
          5    1    3    3  501    0  0.29529298197E+02 -0.82577086496E+02  0.78010793650E+02  0.11746798965E+03  0.47000000000E+01 0. -1.
         -5    1    3    3    0  501  0.31837926130E+02  0.28441820703E+02 -0.13889574493E+02  0.45139793805E+02  0.47000000000E+01 0. -1.
          5    1    4    4  502    0  0.25368892856E+02  0.44835679005E+02  0.40817071829E+02  0.65893415371E+02  0.47000000000E+01 0. -1.
         -5    1    4    4    0  502 -0.86736117183E+02  0.92995867880E+01  0.18965139804E+03  0.20880464343E+03  0.47000000000E+01 0. -1.
<mgrwt>
<rscale>  0 0.32319238E+03</rscale>
<asrwt>0</asrwt>
<pdfrwt beam="1">  1       21 0.56299655E-01 0.32319238E+03</pdfrwt>
<pdfrwt beam="2">  1       21 0.10978166E-01 0.32319238E+03</pdfrwt>
<totfact> 0.19719867E+05</totfact>
</mgrwt>
</event>
<event>
 8    1  0.9123825E-006  0.2671049E+03  0.7546771E-02  0.1102948E+00
         21   -1    0    0  504  503  0.00000000000E+00  0.00000000000E+00  0.83397998596E+02  0.83397998596E+02  0.00000000000E+00 0. -1.
         21   -1    0    0  503  504 -0.00000000000E+00 -0.00000000000E+00 -0.21386916530E+03  0.21386916530E+03  0.00000000000E+00 0. -1.
         25    2    1    2    0    0  0.41467821945E+02  0.19608360487E+02 -0.76721366881E+02  0.15367677585E+03  0.12500526086E+03 0.  0.
         25    2    1    2    0    0 -0.41467821945E+02 -0.19608360487E+02 -0.53749799825E+02  0.14359038804E+03  0.12500036200E+03 0.  0.
          5    1    3    3  501    0 -0.75042382061E+01  0.32358606053E+02 -0.94150348459E+02  0.99948842373E+02  0.47000000000E+01 0.  1.
         -5    1    3    3    0  501  0.48972060151E+02 -0.12750245566E+02  0.17428981577E+02  0.53727933482E+02  0.47000000000E+01 0.  1.
          5    1    4    4  502    0 -0.38908978333E+02 -0.11564323734E+02  0.35311927336E+02  0.54006151413E+02  0.47000000000E+01 0.  1.
         -5    1    4    4    0  502 -0.25588436119E+01 -0.80440367523E+01 -0.89061727161E+02  0.89584236631E+02  0.47000000000E+01 0.  1.
<mgrwt>
<rscale>  0 0.26710493E+03</rscale>
<asrwt>0</asrwt>
<pdfrwt beam="1">  1       21 0.12830461E-01 0.26710493E+03</pdfrwt>
<pdfrwt beam="2">  1       21 0.32902949E-01 0.26710493E+03</pdfrwt>
<totfact> 0.45590797E+05</totfact>
</mgrwt>
</event>
<event>
 8    1  0.9123825E-006  0.5679680E+03  0.7546771E-02  0.9974185E-01
         21   -1    0    0  504  503  0.00000000000E+00  0.00000000000E+00  0.25517312950E+03  0.25517312950E+03  0.00000000000E+00 0.  1.
         21   -1    0    0  503  504 -0.00000000000E+00 -0.00000000000E+00 -0.31604781754E+03  0.31604781754E+03  0.00000000000E+00 0.  1.
         25    2    1    2    0    0  0.12331956138E+03  0.21543388486E+03 -0.89095126369E+02  0.29186232159E+03  0.12500480094E+03 0.  0.
         25    2    1    2    0    0 -0.12331956138E+03 -0.21543388486E+03  0.28220438325E+02  0.27935862545E+03  0.12500150205E+03 0.  0.
          5    1    3    3  501    0  0.96804924031E+02  0.14316601115E+03 -0.11820126285E+03  0.20943096382E+03  0.47000000000E+01 0.  1.
         -5    1    3    3    0  501  0.26514637345E+02  0.72267873703E+02  0.29106136481E+02  0.82431357771E+02  0.47000000000E+01 0.  1.
          5    1    4    4  502    0 -0.10539036651E+03 -0.69112176555E+02  0.37503131373E+02  0.13157582287E+03  0.47000000000E+01 0.  1.
         -5    1    4    4    0  502 -0.17929194861E+02 -0.14632170830E+03 -0.92826930481E+01  0.14778280258E+03  0.47000000000E+01 0.  1.
<mgrwt>
<rscale>  0 0.56796799E+03</rscale>
<asrwt>0</asrwt>
<pdfrwt beam="1">  1       21 0.39257405E-01 0.56796799E+03</pdfrwt>
<pdfrwt beam="2">  1       21 0.48622741E-01 0.56796799E+03</pdfrwt>
<totfact> 0.22321699E+04</totfact>
</mgrwt>
</event>
<event>
 8    1  0.9123825E-006  0.3859133E+03  0.7546771E-02  0.1048770E+00
         21   -1    0    0  504  503  0.00000000000E+00  0.00000000000E+00  0.31743149016E+03  0.31743149016E+03  0.00000000000E+00 0.  1.
         21   -1    0    0  503  504 -0.00000000000E+00 -0.00000000000E+00 -0.11729230879E+03  0.11729230879E+03  0.00000000000E+00 0.  1.
         25    2    1    2    0    0  0.34424110078E+02  0.13431080592E+03  0.45072582886E+02  0.19204392489E+03  0.12499967767E+03 0.  0.
         25    2    1    2    0    0 -0.34424110078E+02 -0.13431080592E+03  0.15506659848E+03  0.24267987406E+03  0.12499383732E+03 0.  0.
          5    1    3    3  501    0 -0.28770257699E+02  0.41313730381E+02  0.60065981285E+02  0.78514738449E+02  0.47000000000E+01 0. -1.
         -5    1    3    3    0  501  0.63194367777E+02  0.92997075541E+02 -0.14993398398E+02  0.11352918644E+03  0.47000000000E+01 0. -1.
          5    1    4    4  502    0 -0.26310909240E+02 -0.13602712977E+03  0.66769493399E+02  0.15386974760E+03  0.47000000000E+01 0. -1.
         -5    1    4    4    0  502 -0.81132008384E+01  0.17163238510E+01  0.88297105081E+02  0.88810126456E+02  0.47000000000E+01 0. -1.
<mgrwt>
<rscale>  0 0.38591332E+03</rscale>
<asrwt>0</asrwt>
<pdfrwt beam="1">  1       21 0.48835614E-01 0.38591332E+03</pdfrwt>
<pdfrwt beam="2">  1       21 0.18044971E-01 0.38591332E+03</pdfrwt>
<totfact> 0.10575327E+05</totfact>
</mgrwt>
</event>
<event>
 8    1  0.9123825E-006  0.3341325E+03  0.7546771E-02  0.1069323E+00
         21   -1    0    0  504  503  0.00000000000E+00  0.00000000000E+00  0.80244205422E+03  0.80244205422E+03  0.00000000000E+00 0.  1.
         21   -1    0    0  503  504 -0.00000000000E+00 -0.00000000000E+00 -0.34782741235E+02  0.34782741235E+02  0.00000000000E+00 0.  1.
         25    2    1    2    0    0  0.44469839275E+02  0.85175217162E+02  0.24536691740E+03  0.29165262715E+03  0.12499578610E+03 0.  0.
         25    2    1    2    0    0 -0.44469839275E+02 -0.85175217162E+02  0.52229239559E+03  0.54557216831E+03  0.12500904016E+03 0.  0.
          5    1    3    3  501    0 -0.22928094124E+02  0.70487133654E+02  0.18686307429E+03  0.20108215247E+03  0.47000000000E+01 0.  1.
         -5    1    3    3    0  501  0.67397933400E+02  0.14688083508E+02  0.58503843108E+02  0.90570474671E+02  0.47000000000E+01 0.  1.
          5    1    4    4  502    0  0.41446139788E+02 -0.44288574367E+02  0.24211884392E+03  0.24964551849E+03  0.47000000000E+01 0.  1.
         -5    1    4    4    0  502 -0.85915979063E+02 -0.40886642795E+02  0.28017355167E+03  0.29592664982E+03  0.47000000000E+01 0.  1.
<mgrwt>
<rscale>  0 0.33413251E+03</rscale>
<asrwt>0</asrwt>
<pdfrwt beam="1">  1       21 0.12345261E+00 0.33413251E+03</pdfrwt>
<pdfrwt beam="2">  1       21 0.53511915E-02 0.33413251E+03</pdfrwt>
<totfact> 0.11226852E+05</totfact>
</mgrwt>
</event>
<event>
 8    1  0.9123825E-006  0.4426621E+03  0.7546771E-02  0.1029933E+00
         21   -1    0    0  504  503  0.00000000000E+00  0.00000000000E+00  0.78303932045E+03  0.78303932045E+03  0.00000000000E+00 0. -1.
         21   -1    0    0  503  504 -0.00000000000E+00 -0.00000000000E+00 -0.62560640647E+02  0.62560640647E+02  0.00000000000E+00 0. -1.
         25    2    1    2    0    0  0.14556233220E+03 -0.25994112385E+02  0.56507409374E+03  0.59732722430E+03  0.12500797991E+03 0.  0.
         25    2    1    2    0    0 -0.14556233220E+03  0.25994112385E+02  0.15540458607E+03  0.24827273680E+03  0.12499872012E+03 0.  0.
          5    1    3    3  501    0  0.60012075759E+02  0.38330679242E+02  0.34813807876E+03  0.35537712658E+03  0.47000000000E+01 0. -1.
         -5    1    3    3    0  501  0.85550256443E+02 -0.64324791626E+02  0.21693601497E+03  0.24195009772E+03  0.47000000000E+01 0. -1.
          5    1    4    4  502    0 -0.45725374175E+02  0.14861327302E+02 -0.14846067288E+02  0.50538743618E+02  0.47000000000E+01 0.  1.
         -5    1    4    4    0  502 -0.99836958028E+02  0.11132785082E+02  0.17025065336E+03  0.19773399318E+03  0.47000000000E+01 0.  1.
<mgrwt>
<rscale>  0 0.44266214E+03</rscale>
<asrwt>0</asrwt>
<pdfrwt beam="1">  1       21 0.12046758E+00 0.44266214E+03</pdfrwt>
<pdfrwt beam="2">  1       21 0.96247145E-02 0.44266214E+03</pdfrwt>
<totfact> 0.41434638E+04</totfact>
</mgrwt>
</event>
<event>
 8    1  0.9123825E-006  0.3202277E+03  0.7546771E-02  0.1075545E+00
         21   -1    0    0  504  503  0.00000000000E+00  0.00000000000E+00  0.18285921234E+03  0.18285921234E+03  0.00000000000E+00 0.  1.
         21   -1    0    0  503  504 -0.00000000000E+00 -0.00000000000E+00 -0.14019773827E+03  0.14019773827E+03  0.00000000000E+00 0.  1.
         25    2    1    2    0    0 -0.88901682061E+02 -0.34913738786E+02  0.51415055660E+02  0.16550171820E+03  0.12499933020E+03 0.  0.
         25    2    1    2    0    0  0.88901682061E+02  0.34913738786E+02 -0.87535815888E+01  0.15755523241E+03  0.12499819135E+03 0.  0.
          5    1    3    3  501    0 -0.12065710322E+03 -0.29248366161E+02  0.45860420995E+02  0.13243440525E+03  0.47000000000E+01 0. -1.
         -5    1    3    3    0  501  0.31755421154E+02 -0.56653726253E+01  0.55546346647E+01  0.33067312953E+02  0.47000000000E+01 0. -1.
          5    1    4    4  502    0 -0.16216318372E+01  0.31089196077E+02  0.42855559215E+02  0.53177596393E+02  0.47000000000E+01 0. -1.
         -5    1    4    4    0  502  0.90523313898E+02  0.38245427092E+01 -0.51609140804E+02  0.10437763602E+03  0.47000000000E+01 0. -1.
<mgrwt>
<rscale>  0 0.32022772E+03</rscale>
<asrwt>0</asrwt>
<pdfrwt beam="1">  1       21 0.28132186E-01 0.32022772E+03</pdfrwt>
<pdfrwt beam="2">  1       21 0.21568883E-01 0.32022772E+03</pdfrwt>
<totfact> 0.23445590E+05</totfact>
</mgrwt>
</event>
<event>
 8    1  0.9123825E-006  0.3808454E+03  0.7546771E-02  0.1050622E+00
         21   -1    0    0  504  503  0.00000000000E+00  0.00000000000E+00  0.18118980426E+03  0.18118980426E+03  0.00000000000E+00 0. -1.
         21   -1    0    0  503  504 -0.00000000000E+00 -0.00000000000E+00 -0.20012605319E+03  0.20012605319E+03  0.00000000000E+00 0. -1.
         25    2    1    2    0    0  0.60380732433E+02 -0.11922239026E+03 -0.62214302765E+02  0.19328001231E+03  0.12500692982E+03 0.  0.
         25    2    1    2    0    0 -0.60380732433E+02  0.11922239026E+03  0.43278053838E+02  0.18803584514E+03  0.12499871169E+03 0.  0.
          5    1    3    3  501    0  0.90816901496E+02 -0.75252986696E+02 -0.72635881794E+02  0.13859575364E+03  0.47000000000E+01 0.  1.
         -5    1    3    3    0  501 -0.30436169063E+02 -0.43969403563E+02  0.10421579029E+02  0.54684258671E+02  0.47000000000E+01 0.  1.
          5    1    4    4  502    0 -0.73489837629E+02  0.43856720142E+02  0.65910564028E+02  0.10812243332E+03  0.47000000000E+01 0. -1.
         -5    1    4    4    0  502  0.13109105196E+02  0.75365670117E+02 -0.22632510190E+02  0.79913411820E+02  0.47000000000E+01 0. -1.
<mgrwt>
<rscale>  0 0.38084538E+03</rscale>
<asrwt>0</asrwt>
<pdfrwt beam="1">  1       21 0.27875355E-01 0.38084538E+03</pdfrwt>
<pdfrwt beam="2">  1       21 0.30788623E-01 0.38084538E+03</pdfrwt>
<totfact> 0.11809084E+05</totfact>
</mgrwt>
</event>
<event>
 8    1  0.9123825E-006  0.2823414E+03  0.7546771E-02  0.1094417E+00
         21   -1    0    0  504  503  0.00000000000E+00  0.00000000000E+00  0.79093959662E+03  0.79093959662E+03  0.00000000000E+00 0.  1.
         21   -1    0    0  503  504 -0.00000000000E+00 -0.00000000000E+00 -0.25196823993E+02  0.25196823993E+02  0.00000000000E+00 0.  1.
         25    2    1    2    0    0 -0.49293169375E+02 -0.41519424300E+02  0.41840085437E+03  0.44140425637E+03  0.12499905386E+03 0.  0.
         25    2    1    2    0    0  0.49293169375E+02  0.41519424300E+02  0.34734191827E+03  0.37473216425E+03  0.12499643034E+03 0.  0.
          5    1    3    3  501    0 -0.44251783119E+02  0.36371119727E+02  0.12195842881E+03  0.13482220521E+03  0.47000000000E+01 0.  1.
         -5    1    3    3    0  501 -0.50413862562E+01 -0.77890544026E+02  0.29644242556E+03  0.30658205116E+03  0.47000000000E+01 0.  1.
          5    1    4    4  502    0  0.90953552790E+02  0.20174421940E+02  0.21899220995E+03  0.23803200223E+03  0.47000000000E+01 0. -1.
         -5    1    4    4    0  502 -0.41660383415E+02  0.21345002360E+02  0.12834970832E+03  0.13670016202E+03  0.47000000000E+01 0. -1.
<mgrwt>
<rscale>  0 0.28234139E+03</rscale>
<asrwt>0</asrwt>
<pdfrwt beam="1">  1       21 0.12168300E+00 0.28234139E+03</pdfrwt>
<pdfrwt beam="2">  1       21 0.38764351E-02 0.28234139E+03</pdfrwt>
<totfact> 0.20461937E+05</totfact>
</mgrwt>
</event>
<event>
 8    1  0.9123825E-006  0.3035067E+03  0.7546771E-02  0.1083501E+00
         21   -1    0    0  504  503  0.00000000000E+00  0.00000000000E+00  0.45636005682E+03  0.45636005682E+03  0.00000000000E+00 0.  1.
         21   -1    0    0  503  504 -0.00000000000E+00 -0.00000000000E+00 -0.50462536057E+02  0.50462536057E+02  0.00000000000E+00 0.  1.
         25    2    1    2    0    0 -0.23658692701E+02  0.63499342650E+02  0.29143807001E+03  0.32428757249E+03  0.12503751742E+03 0.  0.
         25    2    1    2    0    0  0.23658692701E+02 -0.63499342650E+02  0.11445945076E+03  0.18253502039E+03  0.12500467009E+03 0.  0.
          5    1    3    3  501    0  0.30834645987E+02  0.52570994836E+02  0.57952372931E+02  0.84232134127E+02  0.47000000000E+01 0. -1.
         -5    1    3    3    0  501 -0.54493338688E+02  0.10928347815E+02  0.23348569708E+03  0.24005543836E+03  0.47000000000E+01 0. -1.
          5    1    4    4  502    0  0.74041276290E+02 -0.35187304287E+02  0.51414658813E+02  0.96880411429E+02  0.47000000000E+01 0. -1.
         -5    1    4    4    0  502 -0.50382583589E+02 -0.28312038363E+02  0.63044791944E+02  0.85654608963E+02  0.47000000000E+01 0. -1.
<mgrwt>
<rscale>  0 0.30350674E+03</rscale>
<asrwt>0</asrwt>
<pdfrwt beam="1">  1       21 0.70209237E-01 0.30350674E+03</pdfrwt>
<pdfrwt beam="2">  1       21 0.77634674E-02 0.30350674E+03</pdfrwt>
<totfact> 0.22591273E+05</totfact>
</mgrwt>
</event>
<event>
 8    1  0.9123825E-006  0.2595616E+03  0.7546771E-02  0.1107407E+00
         21   -1    0    0  504  503  0.00000000000E+00  0.00000000000E+00  0.52229080927E+02  0.52229080927E+02  0.00000000000E+00 0. -1.
         21   -1    0    0  503  504 -0.00000000000E+00 -0.00000000000E+00 -0.32248420867E+03  0.32248420867E+03  0.00000000000E+00 0. -1.
         25    2    1    2    0    0  0.20013714148E+02 -0.93959096059E+01 -0.96154937732E+02  0.15924226418E+03  0.12499397898E+03 0.  0.
         25    2    1    2    0    0 -0.20013714148E+02  0.93959096059E+01 -0.17410019002E+03  0.21547102542E+03  0.12501221844E+03 0.  0.
          5    1    3    3  501    0 -0.39657372594E+01  0.38785610266E+02  0.96541496442E+01  0.40439377358E+02  0.47000000000E+01 0. -1.
         -5    1    3    3    0  501  0.23979451408E+02 -0.48181519872E+02 -0.10580908738E+03  0.11880288683E+03  0.47000000000E+01 0. -1.
          5    1    4    4  502    0  0.27143628266E+02  0.52778581719E+02 -0.10779907332E+03  0.12314660146E+03  0.47000000000E+01 0. -1.
         -5    1    4    4    0  502 -0.47157342414E+02 -0.43382672113E+02 -0.66301116698E+02  0.92324423955E+02  0.47000000000E+01 0. -1.
<mgrwt>
<rscale>  0 0.25956158E+03</rscale>
<asrwt>0</asrwt>
<pdfrwt beam="1">  1       21 0.80352434E-02 0.25956158E+03</pdfrwt>
<pdfrwt beam="2">  1       21 0.49612954E-01 0.25956158E+03</pdfrwt>
<totfact> 0.45473386E+05</totfact>
</mgrwt>
</event>
<event>
 8    1  0.9123825E-006  0.3275608E+03  0.7546771E-02  0.1072221E+00
         21   -1    0    0  504  503  0.00000000000E+00  0.00000000000E+00  0.84295541764E+02  0.84295541764E+02  0.00000000000E+00 0. -1.
         21   -1    0    0  503  504 -0.00000000000E+00 -0.00000000000E+00 -0.31821406246E+03  0.31821406246E+03  0.00000000000E+00 0. -1.
         25    2    1    2    0    0 -0.26153428280E+02 -0.28800351090E+02 -0.23793223963E+03  0.27153040903E+03  0.12491417190E+03 0.  0.
         25    2    1    2    0    0  0.26153428280E+02  0.28800351090E+02  0.40137189302E+01  0.13097919519E+03  0.12500391034E+03 0.  0.
          5    1    3    3  501    0  0.18993726735E+02 -0.56688413783E+02 -0.56335785895E+02  0.82280913248E+02  0.47000000000E+01 0. -1.
         -5    1    3    3    0  501 -0.45147155014E+02  0.27888062692E+02 -0.18159645373E+03  0.18924949578E+03  0.47000000000E+01 0. -1.
          5    1    4    4  502    0 -0.88201297858E+01  0.68197816120E+02  0.26046049948E+02  0.73683264930E+02  0.47000000000E+01 0. -1.
         -5    1    4    4    0  502  0.34973558066E+02 -0.39397465029E+02 -0.22032331018E+02  0.57295930262E+02  0.47000000000E+01 0. -1.
<mgrwt>
<rscale>  0 0.32756084E+03</rscale>
<asrwt>0</asrwt>
<pdfrwt beam="1">  1       21 0.12968545E-01 0.32756084E+03</pdfrwt>
<pdfrwt beam="2">  1       21 0.48956009E-01 0.32756084E+03</pdfrwt>
<totfact> 0.19620733E+05</totfact>
</mgrwt>
</event>
<event>
 8    1  0.9123825E-006  0.3583189E+03  0.7546771E-02  0.1059251E+00
         21   -1    0    0  504  503  0.00000000000E+00  0.00000000000E+00  0.11023417206E+03  0.11023417206E+03  0.00000000000E+00 0. -1.
         21   -1    0    0  503  504 -0.00000000000E+00 -0.00000000000E+00 -0.29118107865E+03  0.29118107865E+03  0.00000000000E+00 0. -1.
         25    2    1    2    0    0 -0.34364725460E+02  0.47523746050E+02  0.37436853102E+02  0.14304264786E+03  0.12498095992E+03 0.  0.
         25    2    1    2    0    0  0.34364725460E+02 -0.47523746050E+02 -0.21838375969E+03  0.25837260285E+03  0.12500197843E+03 0.  0.
          5    1    3    3  501    0 -0.41947258422E+02  0.30830716914E+01  0.73704837084E+02  0.84991592700E+02  0.47000000000E+01 0.  1.
         -5    1    3    3    0  501  0.75825329616E+01  0.44440674358E+02 -0.36267983981E+02  0.58051055164E+02  0.47000000000E+01 0.  1.
          5    1    4    4  502    0 -0.10929022334E+02  0.36288638518E+02 -0.35653622065E+02  0.52245378561E+02  0.47000000000E+01 0.  1.
         -5    1    4    4    0  502  0.45293747794E+02 -0.83812384568E+02 -0.18273013763E+03  0.20612722429E+03  0.47000000000E+01 0.  1.
<mgrwt>
<rscale>  0 0.35831888E+03</rscale>
<asrwt>0</asrwt>
<pdfrwt beam="1">  1       21 0.16959104E-01 0.35831888E+03</pdfrwt>
<pdfrwt beam="2">  1       21 0.44797088E-01 0.35831888E+03</pdfrwt>
<totfact> 0.14318836E+05</totfact>
</mgrwt>
</event>
<event>
 8    1  0.9123825E-006  0.2697418E+03  0.7546771E-02  0.1101427E+00
         21   -1    0    0  504  503  0.00000000000E+00  0.00000000000E+00  0.11308289547E+04  0.11308289547E+04  0.00000000000E+00 0.  1.
         21   -1    0    0  503  504 -0.00000000000E+00 -0.00000000000E+00 -0.16085688016E+02  0.16085688016E+02  0.00000000000E+00 0.  1.
         25    2    1    2    0    0  0.24044938528E+02 -0.28827252728E+02  0.41250876642E+03  0.43266235566E+03  0.12499624819E+03 0.  0.
         25    2    1    2    0    0 -0.24044938528E+02  0.28827252728E+02  0.70223450028E+03  0.71425228708E+03  0.12495545862E+03 0.  0.
          5    1    3    3  501    0 -0.41008491119E+02 -0.28470780469E+02  0.28565629431E+03  0.29002394757E+03  0.47000000000E+01 0.  1.
         -5    1    3    3    0  501  0.65053429648E+02 -0.35647225899E+00  0.12685247210E+03  0.14263840808E+03  0.47000000000E+01 0.  1.
          5    1    4    4  502    0 -0.15702586150E+02 -0.15415131195E+02  0.61978928299E+03  0.62019758367E+03  0.47000000000E+01 0.  1.
         -5    1    4    4    0  502 -0.83423523779E+01  0.44242383924E+02  0.82445217294E+02  0.94054703407E+02  0.47000000000E+01 0.  1.
<mgrwt>
<rscale>  0 0.26974182E+03</rscale>
<asrwt>0</asrwt>
<pdfrwt beam="1">  1       21 0.17397362E+00 0.26974182E+03</pdfrwt>
<pdfrwt beam="2">  1       21 0.24747221E-02 0.26974182E+03</pdfrwt>
<totfact> 0.16842638E+05</totfact>
</mgrwt>
</event>
<event>
 8    1  0.9123825E-006  0.2975597E+03  0.7546771E-02  0.1086467E+00
         21   -1    0    0  504  503  0.00000000000E+00  0.00000000000E+00  0.15034739387E+04  0.15034739387E+04  0.00000000000E+00 0. -1.
         21   -1    0    0  503  504 -0.00000000000E+00 -0.00000000000E+00 -0.14722867521E+02  0.14722867521E+02  0.00000000000E+00 0. -1.
         25    2    1    2    0    0 -0.68505625211E+02 -0.54029631120E+01  0.52885358697E+03  0.54775832512E+03  0.12502341217E+03 0.  0.
         25    2    1    2    0    0  0.68505625211E+02  0.54029631120E+01  0.95989748416E+03  0.97043848105E+03  0.12500181084E+03 0.  0.
          5    1    3    3  501    0 -0.84337636097E+02 -0.40911099137E+02  0.45039107479E+03  0.46006604433E+03  0.47000000000E+01 0. -1.
         -5    1    3    3    0  501  0.15832010886E+02  0.35508136025E+02  0.78462512183E+02  0.87692280793E+02  0.47000000000E+01 0. -1.
          5    1    4    4  502    0  0.83254094652E+01 -0.49851923090E+02  0.20815086519E+03  0.21425078613E+03  0.47000000000E+01 0. -1.
         -5    1    4    4    0  502  0.60180215745E+02  0.55254886202E+02  0.75174661897E+03  0.75618769492E+03  0.47000000000E+01 0. -1.
<mgrwt>
<rscale>  0 0.29755973E+03</rscale>
<asrwt>0</asrwt>
<pdfrwt beam="1">  1       21 0.23130356E+00 0.29755973E+03</pdfrwt>
<pdfrwt beam="2">  1       21 0.22650577E-02 0.29755973E+03</pdfrwt>
<totfact> 0.81412257E+04</totfact>
</mgrwt>
</event>
<event>
 8    1  0.9123825E-006  0.4896469E+03  0.7546771E-02  0.1016517E+00
         21   -1    0    0  504  503  0.00000000000E+00  0.00000000000E+00  0.26369764511E+03  0.26369764511E+03  0.00000000000E+00 0.  1.
         21   -1    0    0  503  504 -0.00000000000E+00 -0.00000000000E+00 -0.22730014893E+03  0.22730014893E+03  0.00000000000E+00 0.  1.
         25    2    1    2    0    0  0.20701291136E+03  0.36881156983E+02  0.82871934782E+01  0.24476963752E+03  0.12501572967E+03 0.  0.
         25    2    1    2    0    0 -0.20701291136E+03 -0.36881156983E+02  0.28110302706E+02  0.24622815652E+03  0.12499420280E+03 0.  0.
          5    1    3    3  501    0  0.14444058891E+03 -0.93137931593E+00 -0.48107578313E+02  0.15231671045E+03  0.47000000000E+01 0.  1.
         -5    1    3    3    0  501  0.62572322457E+02  0.37812536299E+02  0.56394771791E+02  0.92452927073E+02  0.47000000000E+01 0.  1.
          5    1    4    4  502    0 -0.21269737365E+02 -0.29338405628E+01 -0.39838322652E+02  0.45499352740E+02  0.47000000000E+01 0. -1.
         -5    1    4    4    0  502 -0.18574317400E+03 -0.33947316420E+02  0.67948625358E+02  0.20072880378E+03  0.47000000000E+01 0. -1.
<mgrwt>
<rscale>  0 0.48964687E+03</rscale>
<asrwt>0</asrwt>
<pdfrwt beam="1">  1       21 0.40568868E-01 0.48964687E+03</pdfrwt>
<pdfrwt beam="2">  1       21 0.34969254E-01 0.48964687E+03</pdfrwt>
<totfact> 0.42011716E+04</totfact>
</mgrwt>
</event>
<event>
 8    1  0.9123825E-006  0.2706193E+03  0.7546771E-02  0.1100926E+00
         21   -1    0    0  504  503  0.00000000000E+00  0.00000000000E+00  0.11522990904E+03  0.11522990904E+03  0.00000000000E+00 0.  1.
         21   -1    0    0  503  504 -0.00000000000E+00 -0.00000000000E+00 -0.15888847889E+03  0.15888847889E+03  0.00000000000E+00 0.  1.
         25    2    1    2    0    0 -0.33467155265E+02  0.37767297758E+02 -0.99215350111E+01  0.13515922375E+03  0.12499263837E+03 0.  0.
         25    2    1    2    0    0  0.33467155265E+02 -0.37767297758E+02 -0.33737034842E+02  0.13895916418E+03  0.12500017011E+03 0.  0.
          5    1    3    3  501    0 -0.23625974965E+02  0.58298121565E+02 -0.55484053630E+02  0.84008498845E+02  0.47000000000E+01 0. -1.
         -5    1    3    3    0  501 -0.98411803006E+01 -0.20530823806E+02  0.45562518618E+02  0.51150724909E+02  0.47000000000E+01 0. -1.
          5    1    4    4  502    0  0.51685959814E+02 -0.70405167731E+02  0.13508379550E+01  0.87477087562E+02  0.47000000000E+01 0. -1.
         -5    1    4    4    0  502 -0.18218804548E+02  0.32637869973E+02 -0.35087872797E+02  0.51482076618E+02  0.47000000000E+01 0. -1.
<mgrwt>
<rscale>  0 0.27061933E+03</rscale>
<asrwt>0</asrwt>
<pdfrwt beam="1">  1       21 0.17727678E-01 0.27061933E+03</pdfrwt>
<pdfrwt beam="2">  1       21 0.24444381E-01 0.27061933E+03</pdfrwt>
<totfact> 0.44950024E+05</totfact>
</mgrwt>
</event>
<event>
 8    1  0.9123825E-006  0.3012337E+03  0.7546771E-02  0.1084626E+00
         21   -1    0    0  504  503  0.00000000000E+00  0.00000000000E+00  0.23621649142E+03  0.23621649142E+03  0.00000000000E+00 0. -1.
         21   -1    0    0  503  504 -0.00000000000E+00 -0.00000000000E+00 -0.96036635173E+02  0.96036635173E+02  0.00000000000E+00 0. -1.
         25    2    1    2    0    0  0.50883888305E+01 -0.34616073629E+02 -0.14174563150E+02  0.13056992304E+03  0.12499368908E+03 0.  0.
         25    2    1    2    0    0 -0.50883888305E+01  0.34616073629E+02  0.15435441940E+03  0.20168320355E+03  0.12500665403E+03 0.  0.
          5    1    3    3  501    0  0.42940298632E+02  0.30795824032E+02  0.22131030585E+01  0.53096514476E+02  0.47000000000E+01 0.  1.
         -5    1    3    3    0  501 -0.37851909802E+02 -0.65411897661E+02 -0.16387666209E+02  0.77473408567E+02  0.47000000000E+01 0.  1.
          5    1    4    4  502    0 -0.46299608182E+02 -0.13169354691E+02  0.12066552103E+03  0.12999747531E+03  0.47000000000E+01 0. -1.
         -5    1    4    4    0  502  0.41211219351E+02  0.47785428320E+02  0.33688898365E+02  0.71685728239E+02  0.47000000000E+01 0. -1.
<mgrwt>
<rscale>  0 0.30123371E+03</rscale>
<asrwt>0</asrwt>
<pdfrwt beam="1">  1       21 0.36340998E-01 0.30123371E+03</pdfrwt>
<pdfrwt beam="2">  1       21 0.14774867E-01 0.30123371E+03</pdfrwt>
<totfact> 0.28703272E+05</totfact>
</mgrwt>
</event>
<event>
 8    1  0.9123825E-006  0.3528602E+03  0.7546771E-02  0.1061447E+00
         21   -1    0    0  504  503  0.00000000000E+00  0.00000000000E+00  0.27951571115E+03  0.27951571115E+03  0.00000000000E+00 0.  1.
         21   -1    0    0  503  504 -0.00000000000E+00 -0.00000000000E+00 -0.11136257199E+03  0.11136257199E+03  0.00000000000E+00 0.  1.
         25    2    1    2    0    0 -0.13956053203E+02  0.10729336900E+03  0.15233344999E+03  0.22480406821E+03  0.12499900257E+03 0.  0.
         25    2    1    2    0    0  0.13956053203E+02 -0.10729336900E+03  0.15819689172E+02  0.16607421494E+03  0.12499497530E+03 0.  0.
          5    1    3    3  501    0 -0.67177800837E+02  0.59109576227E+02  0.60381198680E+02  0.10804988700E+03  0.47000000000E+01 0.  1.
         -5    1    3    3    0  501  0.53221747635E+02  0.48183792771E+02  0.91952251312E+02  0.11675418120E+03  0.47000000000E+01 0.  1.
          5    1    4    4  502    0  0.13216902396E+02  0.12605718243E+02 -0.31804248182E+02  0.36975543861E+02  0.47000000000E+01 0.  1.
         -5    1    4    4    0  502  0.73915080678E+00 -0.11989908724E+03  0.47623937354E+02  0.12909867108E+03  0.47000000000E+01 0.  1.
<mgrwt>
<rscale>  0 0.35286025E+03</rscale>
<asrwt>0</asrwt>
<pdfrwt beam="1">  1       21 0.43002417E-01 0.35286025E+03</pdfrwt>
<pdfrwt beam="2">  1       21 0.17132703E-01 0.35286025E+03</pdfrwt>
<totfact> 0.15311763E+05</totfact>
</mgrwt>
</event>
<event>
 8    1  0.9123825E-006  0.2627781E+03  0.7546771E-02  0.1105486E+00
         21   -1    0    0  504  503  0.00000000000E+00  0.00000000000E+00  0.97225188728E+01  0.97225188728E+01  0.00000000000E+00 0.  1.
         21   -1    0    0  503  504 -0.00000000000E+00 -0.00000000000E+00 -0.17755767849E+04  0.17755767849E+04  0.00000000000E+00 0.  1.
         25    2    1    2    0    0 -0.46971418730E+01 -0.22673986653E+02 -0.11085330318E+04  0.11157984926E+04  0.12499848239E+03 0.  0.
         25    2    1    2    0    0  0.46971418730E+01  0.22673986653E+02 -0.65732123420E+03  0.66950081119E+03  0.12499583366E+03 0.  0.
          5    1    3    3  501    0  0.11686823865E+02 -0.35355520148E+02 -0.10777088234E+04  0.10783621807E+04  0.47000000000E+01 0.  1.
         -5    1    3    3    0  501 -0.16383965738E+02  0.12681533495E+02 -0.30824208413E+02  0.37436311910E+02  0.47000000000E+01 0.  1.
          5    1    4    4  502    0  0.45859976960E+02  0.31190372943E+02 -0.14311147245E+03  0.15355442161E+03  0.47000000000E+01 0.  1.
         -5    1    4    4    0  502 -0.41162835087E+02 -0.85163862902E+01 -0.51420976176E+03  0.51594638957E+03  0.47000000000E+01 0.  1.
<mgrwt>
<rscale>  0 0.26277807E+03</rscale>
<asrwt>0</asrwt>
<pdfrwt beam="1">  1       21 0.14957726E-02 0.26277807E+03</pdfrwt>
<pdfrwt beam="2">  1       21 0.27316557E+00 0.26277807E+03</pdfrwt>
<totfact> 0.91619058E+04</totfact>
</mgrwt>
</event>
<event>
 8    1  0.9123825E-006  0.3328245E+03  0.7546771E-02  0.1069894E+00
         21   -1    0    0  504  503  0.00000000000E+00  0.00000000000E+00  0.20810760392E+03  0.20810760392E+03  0.00000000000E+00 0.  1.
         21   -1    0    0  503  504 -0.00000000000E+00 -0.00000000000E+00 -0.13307073492E+03  0.13307073492E+03  0.00000000000E+00 0.  1.
         25    2    1    2    0    0 -0.41562395578E+02  0.36634362354E+02 -0.59725381831E+02  0.14920251103E+03  0.12499903532E+03 0.  0.
         25    2    1    2    0    0  0.41562395578E+02 -0.36634362354E+02  0.13476225083E+03  0.19197582781E+03  0.12499737991E+03 0.  0.
          5    1    3    3  501    0 -0.66897535559E+02 -0.16051169287E+02 -0.52486729907E+01  0.69156047223E+02  0.47000000000E+01 0.  1.
         -5    1    3    3    0  501  0.25335139981E+02  0.52685531641E+02 -0.54476708840E+02  0.80046463808E+02  0.47000000000E+01 0.  1.
          5    1    4    4  502    0  0.22538587378E+02  0.67721206340E+01  0.14181536030E+03  0.14383162363E+03  0.47000000000E+01 0.  1.
         -5    1    4    4    0  502  0.19023808200E+02 -0.43406482988E+02 -0.70531094627E+01  0.48144204188E+02  0.47000000000E+01 0.  1.
<mgrwt>
<rscale>  0 0.33282447E+03</rscale>
<asrwt>0</asrwt>
<pdfrwt beam="1">  1       21 0.32016554E-01 0.33282447E+03</pdfrwt>
<pdfrwt beam="2">  1       21 0.20472421E-01 0.33282447E+03</pdfrwt>
<totfact> 0.20006178E+05</totfact>
</mgrwt>
</event>
<event>
 8    1  0.9123825E-006  0.2775700E+03  0.7546771E-02  0.1097024E+00
         21   -1    0    0  504  503  0.00000000000E+00  0.00000000000E+00  0.11536198961E+03  0.11536198961E+03  0.00000000000E+00 0.  1.
         21   -1    0    0  503  504 -0.00000000000E+00 -0.00000000000E+00 -0.16696383708E+03  0.16696383708E+03  0.00000000000E+00 0.  1.
         25    2    1    2    0    0  0.51702910094E+02  0.30125987084E+02 -0.33386575487E+02  0.14254560584E+03  0.12499528115E+03 0.  0.
         25    2    1    2    0    0 -0.51702910094E+02 -0.30125987084E+02 -0.18215271978E+02  0.13978022086E+03  0.12500379194E+03 0.  0.
          5    1    3    3  501    0  0.16362936868E+02  0.26397507415E+02  0.45850222898E+02  0.55577936634E+02  0.47000000000E+01 0. -1.
         -5    1    3    3    0  501  0.35339973226E+02  0.37284796691E+01 -0.79236798385E+02  0.86967669203E+02  0.47000000000E+01 0. -1.
          5    1    4    4  502    0  0.34639107859E+02  0.16303634084E+02 -0.15577108434E+02  0.41598228145E+02  0.47000000000E+01 0. -1.
         -5    1    4    4    0  502 -0.86342017953E+02 -0.46429621168E+02 -0.26381635437E+01  0.98181992712E+02  0.47000000000E+01 0. -1.
<mgrwt>
<rscale>  0 0.27757003E+03</rscale>
<asrwt>0</asrwt>
<pdfrwt beam="1">  1       21 0.17747998E-01 0.27757003E+03</pdfrwt>
<pdfrwt beam="2">  1       21 0.25686744E-01 0.27757003E+03</pdfrwt>
<totfact> 0.40720656E+05</totfact>
</mgrwt>
</event>
<event>
 8    1  0.9123825E-006  0.2675995E+03  0.7546771E-02  0.1102661E+00
         21   -1    0    0  504  503  0.00000000000E+00  0.00000000000E+00  0.29802722015E+03  0.29802722015E+03  0.00000000000E+00 0. -1.
         21   -1    0    0  503  504 -0.00000000000E+00 -0.00000000000E+00 -0.60069593437E+02  0.60069593437E+02  0.00000000000E+00 0. -1.
         25    2    1    2    0    0  0.21361894145E+02  0.38913186013E+02  0.95570679230E+02  0.16349655366E+03  0.12500720684E+03 0.  0.
         25    2    1    2    0    0 -0.21361894145E+02 -0.38913186013E+02  0.14238694748E+03  0.19460025993E+03  0.12499860713E+03 0.  0.
          5    1    3    3  501    0  0.21081167837E+02  0.81158694835E+02  0.85427424331E+02  0.11979601084E+03  0.47000000000E+01 0. -1.
         -5    1    3    3    0  501  0.28072630765E+00 -0.42245508822E+02  0.10143254899E+02  0.43700542821E+02  0.47000000000E+01 0. -1.
          5    1    4    4  502    0 -0.28175601526E+02 -0.24521212897E+02 -0.11853877008E+02  0.39468453268E+02  0.47000000000E+01 0.  1.
         -5    1    4    4    0  502  0.68137073816E+01 -0.14391973116E+02  0.15424082449E+03  0.15513180666E+03  0.47000000000E+01 0.  1.
<mgrwt>
<rscale>  0 0.26759951E+03</rscale>
<asrwt>0</asrwt>
<pdfrwt beam="1">  1       21 0.45850341E-01 0.26759951E+03</pdfrwt>
<pdfrwt beam="2">  1       21 0.92414761E-02 0.26759951E+03</pdfrwt>
<totfact> 0.41840006E+05</totfact>
</mgrwt>
</event>
<event>
 8    1  0.9123825E-006  0.2760029E+03  0.7546771E-02  0.1097892E+00
         21   -1    0    0  504  503  0.00000000000E+00  0.00000000000E+00  0.16524539885E+02  0.16524539885E+02  0.00000000000E+00 0.  1.
         21   -1    0    0  503  504 -0.00000000000E+00 -0.00000000000E+00 -0.11524917498E+04  0.11524917498E+04  0.00000000000E+00 0.  1.
         25    2    1    2    0    0 -0.12851106394E+02 -0.53946270649E+01 -0.32744042130E+03  0.35076551052E+03  0.12499984373E+03 0.  0.
         25    2    1    2    0    0  0.12851106394E+02  0.53946270649E+01 -0.80852678865E+03  0.81825077920E+03  0.12499806703E+03 0.  0.
          5    1    3    3  501    0  0.34228481433E+02 -0.48615536240E+02 -0.12651973792E+03  0.13987277572E+03  0.47000000000E+01 0. -1.
         -5    1    3    3    0  501 -0.47079587827E+02  0.43220909176E+02 -0.20092068339E+03  0.21089273480E+03  0.47000000000E+01 0. -1.
          5    1    4    4  502    0  0.61641318053E+02 -0.20664517596E+02 -0.54882283886E+03  0.55268008181E+03  0.47000000000E+01 0.  1.
         -5    1    4    4    0  502 -0.48790211658E+02  0.26059144661E+02 -0.25970394979E+03  0.26557069739E+03  0.47000000000E+01 0.  1.
<mgrwt>
<rscale>  0 0.27600287E+03</rscale>
<asrwt>0</asrwt>
<pdfrwt beam="1">  1       21 0.25422363E-02 0.27600287E+03</pdfrwt>
<pdfrwt beam="2">  1       21 0.17730647E+00 0.27600287E+03</pdfrwt>
<totfact> 0.15229937E+05</totfact>
</mgrwt>
</event>
<event>
 8    1  0.9123825E-006  0.2555568E+03  0.7546771E-02  0.1109843E+00
         21   -1    0    0  504  503  0.00000000000E+00  0.00000000000E+00  0.99510105803E+03  0.99510105803E+03  0.00000000000E+00 0.  1.
         21   -1    0    0  503  504 -0.00000000000E+00 -0.00000000000E+00 -0.16407702241E+02  0.16407702241E+02  0.00000000000E+00 0.  1.
         25    2    1    2    0    0  0.21026015544E+01 -0.68981406310E+01  0.38849471266E+03  0.40817374626E+03  0.12500264036E+03 0.  0.
         25    2    1    2    0    0 -0.21026015544E+01  0.68981406310E+01  0.59019864313E+03  0.60333501401E+03  0.12500678181E+03 0.  0.
          5    1    3    3  501    0 -0.48880895037E+02  0.30015342431E+02  0.13153024722E+03  0.14357074428E+03  0.47000000000E+01 0.  1.
         -5    1    3    3    0  501  0.50983496591E+02 -0.36913483062E+02  0.25696446544E+03  0.26460300198E+03  0.47000000000E+01 0.  1.
          5    1    4    4  502    0 -0.61325656958E+02 -0.12411907954E+02  0.29485811537E+03  0.30146026249E+03  0.47000000000E+01 0. -1.
         -5    1    4    4    0  502  0.59223055403E+02  0.19310048585E+02  0.29534052776E+03  0.30187475152E+03  0.47000000000E+01 0. -1.
<mgrwt>
<rscale>  0 0.25555682E+03</rscale>
<asrwt>0</asrwt>
<pdfrwt beam="1">  1       21 0.15309242E+00 0.25555682E+03</pdfrwt>
<pdfrwt beam="2">  1       21 0.25242627E-02 0.25555682E+03</pdfrwt>
<totfact> 0.23277805E+05</totfact>
</mgrwt>
</event>
<event>
 8    1  0.9123825E-006  0.3116061E+03  0.7546771E-02  0.1079579E+00
         21   -1    0    0  504  503  0.00000000000E+00  0.00000000000E+00  0.34263979354E+03  0.34263979354E+03  0.00000000000E+00 0.  1.
         21   -1    0    0  503  504 -0.00000000000E+00 -0.00000000000E+00 -0.70845815611E+02  0.70845815611E+02  0.00000000000E+00 0.  1.
         25    2    1    2    0    0  0.72461763445E+01  0.57880629650E+02  0.23201783232E+03  0.26993082243E+03  0.12501079963E+03 0.  0.
         25    2    1    2    0    0 -0.72461763445E+01 -0.57880629650E+02  0.39776145615E+02  0.14355478672E+03  0.12499264247E+03 0.  0.
          5    1    3    3  501    0 -0.31893892791E+02 -0.27477026521E+02  0.54229643225E+02  0.68812437742E+02  0.47000000000E+01 0.  1.
         -5    1    3    3    0  501  0.39140069135E+02  0.85357656171E+02  0.17778818909E+03  0.20111838469E+03  0.47000000000E+01 0.  1.
          5    1    4    4  502    0 -0.59832317191E+02 -0.23260061165E+02 -0.73311480976E+01  0.64782500402E+02  0.47000000000E+01 0.  1.
         -5    1    4    4    0  502  0.52586140847E+02 -0.34620568485E+02  0.47107293712E+02  0.78772286321E+02  0.47000000000E+01 0.  1.
<mgrwt>
<rscale>  0 0.31160613E+03</rscale>
<asrwt>0</asrwt>
<pdfrwt beam="1">  1       21 0.52713813E-01 0.31160613E+03</pdfrwt>
<pdfrwt beam="2">  1       21 0.10899356E-01 0.31160613E+03</pdfrwt>
<totfact> 0.23052008E+05</totfact>
</mgrwt>
</event>
<event>
 8    1  0.9123825E-006  0.3842963E+03  0.7546771E-02  0.1049357E+00
         21   -1    0    0  504  503  0.00000000000E+00  0.00000000000E+00  0.50690510095E+03  0.50690510095E+03  0.00000000000E+00 0. -1.
         21   -1    0    0  503  504 -0.00000000000E+00 -0.00000000000E+00 -0.72835934167E+02  0.72835934167E+02  0.00000000000E+00 0. -1.
         25    2    1    2    0    0 -0.43998873580E+02 -0.12751894776E+03  0.30101264326E+03  0.35274748739E+03  0.12500078219E+03 0.  0.
         25    2    1    2    0    0  0.43998873580E+02  0.12751894776E+03  0.13305652352E+03  0.22699354772E+03  0.12500019736E+03 0.  0.
          5    1    3    3  501    0 -0.25305789658E+02 -0.14810479358E+03  0.27919521754E+03  0.31709221430E+03  0.47000000000E+01 0.  1.
         -5    1    3    3    0  501 -0.18693083922E+02  0.20585845818E+02  0.21817425714E+02  0.35655273093E+02  0.47000000000E+01 0.  1.
          5    1    4    4  502    0  0.13001685889E+02 -0.18104782073E+02 -0.56317738379E+01  0.23465588559E+02  0.47000000000E+01 0. -1.
         -5    1    4    4    0  502  0.30997187691E+02  0.14562372983E+03  0.13868829736E+03  0.20352795916E+03  0.47000000000E+01 0. -1.
<mgrwt>
<rscale>  0 0.38429627E+03</rscale>
<asrwt>0</asrwt>
<pdfrwt beam="1">  1       21 0.77985398E-01 0.38429627E+03</pdfrwt>
<pdfrwt beam="2">  1       21 0.11205529E-01 0.38429627E+03</pdfrwt>
<totfact> 0.91006235E+04</totfact>
</mgrwt>
</event>
<event>
 8    1  0.9123825E-006  0.5196997E+03  0.7546771E-02  0.1008761E+00
         21   -1    0    0  504  503  0.00000000000E+00  0.00000000000E+00  0.33930330648E+03  0.33930330648E+03  0.00000000000E+00 0. -1.
         21   -1    0    0  503  504 -0.00000000000E+00 -0.00000000000E+00 -0.19900170919E+03  0.19900170919E+03  0.00000000000E+00 0. -1.
         25    2    1    2    0    0  0.21562305340E+02 -0.20418654036E+03 -0.32068569444E+02  0.24251231225E+03  0.12500700849E+03 0.  0.
         25    2    1    2    0    0 -0.21562305340E+02  0.20418654036E+03  0.17237016673E+03  0.29579270343E+03  0.12499909099E+03 0.  0.
          5    1    3    3  501    0 -0.23395776701E+02 -0.15246911019E+03 -0.63620115471E+02  0.16692453691E+03  0.47000000000E+01 0.  1.
         -5    1    3    3    0  501  0.44958082041E+02 -0.51717430165E+02  0.31551546027E+02  0.75587775337E+02  0.47000000000E+01 0.  1.
          5    1    4    4  502    0  0.32971122137E+02  0.15831610708E+03  0.15086797756E+03  0.22121103343E+03  0.47000000000E+01 0.  1.
         -5    1    4    4    0  502 -0.54533427477E+02  0.45870433277E+02  0.21502189173E+02  0.74581670004E+02  0.47000000000E+01 0.  1.
<mgrwt>
<rscale>  0 0.51969967E+03</rscale>
<asrwt>0</asrwt>
<pdfrwt beam="1">  1       21 0.52200509E-01 0.51969967E+03</pdfrwt>
<pdfrwt beam="2">  1       21 0.30615648E-01 0.51969967E+03</pdfrwt>
<totfact> 0.32076792E+04</totfact>
</mgrwt>
</event>
<event>
 8    1  0.9123825E-006  0.2832294E+03  0.7546771E-02  0.1093938E+00
         21   -1    0    0  504  503  0.00000000000E+00  0.00000000000E+00  0.15530449641E+03  0.15530449641E+03  0.00000000000E+00 0. -1.
         21   -1    0    0  503  504 -0.00000000000E+00 -0.00000000000E+00 -0.12913161539E+03  0.12913161539E+03  0.00000000000E+00 0. -1.
         25    2    1    2    0    0  0.12878611289E+02 -0.37009004759E+02  0.67107850771E+02  0.14718985491E+03  0.12500345872E+03 0.  0.
         25    2    1    2    0    0 -0.12878611289E+02  0.37009004759E+02 -0.40934969750E+02  0.13724625688E+03  0.12500135286E+03 0.  0.
          5    1    3    3  501    0 -0.59246307605E+01 -0.15352463811E+00 -0.35582669058E+02  0.36377756346E+02  0.47000000000E+01 0.  1.
         -5    1    3    3    0  501  0.18803242050E+02 -0.36855480121E+02  0.10269051983E+03  0.11081209857E+03  0.47000000000E+01 0.  1.
          5    1    4    4  502    0  0.28138652970E+02 -0.36446389139E+02 -0.20009688342E+02  0.50424207478E+02  0.47000000000E+01 0. -1.
         -5    1    4    4    0  502 -0.41017264259E+02  0.73455393898E+02 -0.20925281408E+02  0.86822049400E+02  0.47000000000E+01 0. -1.
<mgrwt>
<rscale>  0 0.28322938E+03</rscale>
<asrwt>0</asrwt>
<pdfrwt beam="1">  1       21 0.23892999E-01 0.28322938E+03</pdfrwt>
<pdfrwt beam="2">  1       21 0.19866402E-01 0.28322938E+03</pdfrwt>
<totfact> 0.37857575E+05</totfact>
</mgrwt>
</event>
<event>
 8    1  0.9123825E-006  0.4026427E+03  0.7546771E-02  0.1042868E+00
         21   -1    0    0  504  503  0.00000000000E+00  0.00000000000E+00  0.17764919202E+03  0.17764919202E+03  0.00000000000E+00 0.  1.
         21   -1    0    0  503  504 -0.00000000000E+00 -0.00000000000E+00 -0.22814791399E+03  0.22814791399E+03  0.00000000000E+00 0.  1.
         25    2    1    2    0    0  0.58086273441E+02  0.92936033858E+02 -0.13969296770E+03  0.21714419455E+03  0.12500541768E+03 0.  0.
         25    2    1    2    0    0 -0.58086273441E+02 -0.92936033858E+02  0.89194245733E+02  0.18865291146E+03  0.12499274371E+03 0.  0.
          5    1    3    3  501    0 -0.28700762553E+02  0.63742413751E+02 -0.36142973097E+02  0.78836752763E+02  0.47000000000E+01 0.  1.
         -5    1    3    3    0  501  0.86787035994E+02  0.29193620108E+02 -0.10354999460E+03  0.13830744179E+03  0.47000000000E+01 0.  1.
          5    1    4    4  502    0 -0.55108105899E+02 -0.82406392096E+02  0.11994230722E+03  0.15567904116E+03  0.47000000000E+01 0.  1.
         -5    1    4    4    0  502 -0.29781675419E+01 -0.10529641762E+02 -0.30748061489E+02  0.32973870304E+02  0.47000000000E+01 0.  1.
<mgrwt>
<rscale>  0 0.40264273E+03</rscale>
<asrwt>0</asrwt>
<pdfrwt beam="1">  1       21 0.27330645E-01 0.40264273E+03</pdfrwt>
<pdfrwt beam="2">  1       21 0.35099679E-01 0.40264273E+03</pdfrwt>
<totfact> 0.93993552E+04</totfact>
</mgrwt>
</event>
<event>
 8    1  0.9123825E-006  0.4651786E+03  0.7546771E-02  0.1023290E+00
         21   -1    0    0  504  503  0.00000000000E+00  0.00000000000E+00  0.15880888032E+03  0.15880888032E+03  0.00000000000E+00 0.  1.
         21   -1    0    0  503  504 -0.00000000000E+00 -0.00000000000E+00 -0.34064702881E+03  0.34064702881E+03  0.00000000000E+00 0.  1.
         25    2    1    2    0    0  0.36603607246E+02  0.18806496638E+03 -0.45814312452E+02  0.23330389980E+03  0.12499401102E+03 0.  0.
         25    2    1    2    0    0 -0.36603607246E+02 -0.18806496638E+03 -0.13602383604E+03  0.26615200933E+03  0.12500460974E+03 0.  0.
          5    1    3    3  501    0  0.25142180280E+02  0.16823637124E+03 -0.83036334043E+02  0.18934816770E+03  0.47000000000E+01 0. -1.
         -5    1    3    3    0  501  0.11461426966E+02  0.19828595135E+02  0.37222021591E+02  0.43955732100E+02  0.47000000000E+01 0. -1.
          5    1    4    4  502    0 -0.80458606464E+02 -0.11364322836E+03 -0.62833615089E+02  0.15283495638E+03  0.47000000000E+01 0. -1.
         -5    1    4    4    0  502  0.43854999219E+02 -0.74421738016E+02 -0.73190220946E+02  0.11331705294E+03  0.47000000000E+01 0. -1.
<mgrwt>
<rscale>  0 0.46517856E+03</rscale>
<asrwt>0</asrwt>
<pdfrwt beam="1">  1       21 0.24432135E-01 0.46517856E+03</pdfrwt>
<pdfrwt beam="2">  1       21 0.52407235E-01 0.46517856E+03</pdfrwt>
<totfact> 0.50163170E+04</totfact>
</mgrwt>
</event>
<event>
 8    1  0.9123825E-006  0.2818893E+03  0.7546771E-02  0.1094662E+00
         21   -1    0    0  504  503  0.00000000000E+00  0.00000000000E+00  0.33015925070E+03  0.33015925070E+03  0.00000000000E+00 0. -1.
         21   -1    0    0  503  504 -0.00000000000E+00 -0.00000000000E+00 -0.60169116158E+02  0.60169116158E+02  0.00000000000E+00 0. -1.
         25    2    1    2    0    0  0.47227493093E+02  0.13032336011E+02  0.75591514778E+02  0.15407463083E+03  0.12499854748E+03 0.  0.
         25    2    1    2    0    0 -0.47227493093E+02 -0.13032336011E+02  0.19439861976E+03  0.23625373603E+03  0.12499890614E+03 0.  0.
          5    1    3    3  501    0 -0.31529072931E+02  0.32485205119E+02  0.38472095575E+01  0.45675617269E+02  0.47000000000E+01 0. -1.
         -5    1    3    3    0  501  0.78756566024E+02 -0.19452869108E+02  0.71744305220E+02  0.10839901356E+03  0.47000000000E+01 0. -1.
          5    1    4    4  502    0  0.11070970612E+01 -0.48667108765E+02  0.21983293393E+02  0.53619663630E+02  0.47000000000E+01 0. -1.
         -5    1    4    4    0  502 -0.48334590154E+02  0.35634772754E+02  0.17241532637E+03  0.18263407240E+03  0.47000000000E+01 0. -1.
<mgrwt>
<rscale>  0 0.28188927E+03</rscale>
<asrwt>0</asrwt>
<pdfrwt beam="1">  1       21 0.50793730E-01 0.28188927E+03</pdfrwt>
<pdfrwt beam="2">  1       21 0.92567873E-02 0.28188927E+03</pdfrwt>
<totfact> 0.33578950E+05</totfact>
</mgrwt>
</event>
<event>
 8    1  0.9123825E-006  0.3149861E+03  0.7546771E-02  0.1077980E+00
         21   -1    0    0  504  503  0.00000000000E+00  0.00000000000E+00  0.73090739093E+02  0.73090739093E+02  0.00000000000E+00 0.  1.
         21   -1    0    0  503  504 -0.00000000000E+00 -0.00000000000E+00 -0.33935980653E+03  0.33935980653E+03  0.00000000000E+00 0.  1.
         25    2    1    2    0    0 -0.71267060961E+02  0.59536478501E+02 -0.16404548950E+03  0.22617730976E+03  0.12498666559E+03 0.  0.
         25    2    1    2    0    0  0.71267060961E+02 -0.59536478501E+02 -0.10222357794E+03  0.18627323586E+03  0.12499788903E+03 0.  0.
          5    1    3    3  501    0 -0.76805119966E+02  0.32958388945E+02 -0.17695055363E+03  0.19575206330E+03  0.47000000000E+01 0. -1.
         -5    1    3    3    0  501  0.55380590053E+01  0.26578089556E+02  0.12905064133E+02  0.30425246462E+02  0.47000000000E+01 0. -1.
          5    1    4    4  502    0  0.84763444088E+02  0.37725569217E+01 -0.32400879466E+02  0.90944931852E+02  0.47000000000E+01 0.  1.
         -5    1    4    4    0  502 -0.13496383127E+02 -0.63309035423E+02 -0.69822698471E+02  0.95328304010E+02  0.47000000000E+01 0.  1.
<mgrwt>
<rscale>  0 0.31498609E+03</rscale>
<asrwt>0</asrwt>
<pdfrwt beam="1">  1       21 0.11244729E-01 0.31498609E+03</pdfrwt>
<pdfrwt beam="2">  1       21 0.52209201E-01 0.31498609E+03</pdfrwt>
<totfact> 0.22228840E+05</totfact>
</mgrwt>
</event>
<event>
 8    1  0.9123825E-006  0.3230418E+03  0.7546771E-02  0.1074258E+00
         21   -1    0    0  504  503  0.00000000000E+00  0.00000000000E+00  0.13955830672E+03  0.13955830672E+03  0.00000000000E+00 0.  1.
         21   -1    0    0  503  504 -0.00000000000E+00 -0.00000000000E+00 -0.18693974521E+03  0.18693974521E+03  0.00000000000E+00 0.  1.
         25    2    1    2    0    0 -0.33899937708E+01 -0.28601576385E+02 -0.12289605089E+03  0.17764939210E+03  0.12500529972E+03 0.  0.
         25    2    1    2    0    0  0.33899937708E+01  0.28601576385E+02  0.75514612400E+02  0.14884865984E+03  0.12499569841E+03 0.  0.
          5    1    3    3  501    0  0.16616781939E+02  0.35972381297E+02 -0.97381821514E+02  0.10523991077E+03  0.47000000000E+01 0.  1.
         -5    1    3    3    0  501 -0.20006775709E+02 -0.64573957682E+02 -0.25514229375E+02  0.72409481324E+02  0.47000000000E+01 0.  1.
          5    1    4    4  502    0  0.12353250015E+02 -0.58533221188E+01 -0.32205305275E+02  0.35300649478E+02  0.47000000000E+01 0.  1.
         -5    1    4    4    0  502 -0.89632562442E+01  0.34454898504E+02  0.10771991767E+03  0.11354801036E+03  0.47000000000E+01 0.  1.
<mgrwt>
<rscale>  0 0.32304176E+03</rscale>
<asrwt>0</asrwt>
<pdfrwt beam="1">  1       21 0.21470509E-01 0.32304176E+03</pdfrwt>
<pdfrwt beam="2">  1       21 0.28759961E-01 0.32304176E+03</pdfrwt>
<totfact> 0.22636290E+05</totfact>
</mgrwt>
</event>
<event>
 8    1  0.9123825E-006  0.3297820E+03  0.7546771E-02  0.1071233E+00
         21   -1    0    0  504  503  0.00000000000E+00  0.00000000000E+00  0.16427915559E+03  0.16427915559E+03  0.00000000000E+00 0.  1.
         21   -1    0    0  503  504 -0.00000000000E+00 -0.00000000000E+00 -0.16550515929E+03  0.16550515929E+03  0.00000000000E+00 0.  1.
         25    2    1    2    0    0  0.56743561437E+02 -0.15302918923E+02 -0.90636388800E+02  0.16524778755E+03  0.12505145031E+03 0.  0.
         25    2    1    2    0    0 -0.56743561437E+02  0.15302918923E+02  0.89410385095E+02  0.16453652733E+03  0.12499616303E+03 0.  0.
          5    1    3    3  501    0  0.78581831929E+02 -0.52207537092E+02 -0.69065616921E+02  0.11701658292E+03  0.47000000000E+01 0.  1.
         -5    1    3    3    0  501 -0.21838270492E+02  0.36904618169E+02 -0.21570771879E+02  0.48231204627E+02  0.47000000000E+01 0.  1.
          5    1    4    4  502    0 -0.28051294562E+02  0.59963702422E+02  0.89280119926E+02  0.11124545181E+03  0.47000000000E+01 0. -1.
         -5    1    4    4    0  502 -0.28692266874E+02 -0.44660783499E+02  0.13026516853E+00  0.53291075521E+02  0.47000000000E+01 0. -1.
<mgrwt>
<rscale>  0 0.32978204E+03</rscale>
<asrwt>0</asrwt>
<pdfrwt beam="1">  1       21 0.25273716E-01 0.32978204E+03</pdfrwt>
<pdfrwt beam="2">  1       21 0.25462332E-01 0.32978204E+03</pdfrwt>
<totfact> 0.20962333E+05</totfact>
</mgrwt>
</event>
<event>
 8    1  0.9123825E-006  0.2975116E+03  0.7546771E-02  0.1086491E+00
         21   -1    0    0  504  503  0.00000000000E+00  0.00000000000E+00  0.50214689283E+03  0.50214689283E+03  0.00000000000E+00 0. -1.
         21   -1    0    0  503  504 -0.00000000000E+00 -0.00000000000E+00 -0.44067361602E+02  0.44067361602E+02  0.00000000000E+00 0. -1.
         25    2    1    2    0    0  0.28687156183E+02 -0.36902107828E+01  0.90835021317E+02  0.15720277864E+03  0.12500056771E+03 0.  0.
         25    2    1    2    0    0 -0.28687156183E+02  0.36902107828E+01  0.36724450992E+03  0.38901147580E+03  0.12499931061E+03 0.  0.
          5    1    3    3  501    0  0.45156090547E+02 -0.30283090632E+02  0.10815295471E+03  0.12114161012E+03  0.47000000000E+01 0.  1.
         -5    1    3    3    0  501 -0.16468934363E+02  0.26592879849E+02 -0.17317933390E+02  0.36061168515E+02  0.47000000000E+01 0.  1.
          5    1    4    4  502    0 -0.33499374299E+02 -0.27516754707E+02  0.36886658688E+02  0.57114756913E+02  0.47000000000E+01 0. -1.
         -5    1    4    4    0  502  0.48122181156E+01  0.31206965489E+02  0.33035785123E+03  0.33189671888E+03  0.47000000000E+01 0. -1.
<mgrwt>
<rscale>  0 0.29751160E+03</rscale>
<asrwt>0</asrwt>
<pdfrwt beam="1">  1       21 0.77253364E-01 0.29751160E+03</pdfrwt>
<pdfrwt beam="2">  1       21 0.67795945E-02 0.29751160E+03</pdfrwt>
<totfact> 0.23115369E+05</totfact>
</mgrwt>
</event>
<event>
 8    1  0.9123825E-006  0.3784169E+03  0.7546771E-02  0.1051520E+00
         21   -1    0    0  504  503  0.00000000000E+00  0.00000000000E+00  0.91605027513E+03  0.91605027513E+03  0.00000000000E+00 0. -1.
         21   -1    0    0  503  504 -0.00000000000E+00 -0.00000000000E+00 -0.39080644188E+02  0.39080644188E+02  0.00000000000E+00 0. -1.
         25    2    1    2    0    0 -0.70882856719E+01 -0.35057643530E+01  0.80533835271E+02  0.14890712439E+03  0.12500039557E+03 0.  0.
         25    2    1    2    0    0  0.70882856719E+01  0.35057643530E+01  0.79643579567E+03  0.80622379493E+03  0.12499718679E+03 0.  0.
          5    1    3    3  501    0  0.10285030473E+02  0.50747118124E+02  0.23344609547E+01  0.52044130867E+02  0.47000000000E+01 0. -1.
         -5    1    3    3    0  501 -0.17373316145E+02 -0.54252882477E+02  0.78199374316E+02  0.96862993524E+02  0.47000000000E+01 0. -1.
          5    1    4    4  502    0 -0.34567814395E+02  0.50673668071E+02  0.43332653325E+03  0.43767194204E+03  0.47000000000E+01 0.  1.
         -5    1    4    4    0  502  0.41656100067E+02 -0.47167903718E+02  0.36310926242E+03  0.36855185290E+03  0.47000000000E+01 0.  1.
<mgrwt>
<rscale>  0 0.37841689E+03</rscale>
<asrwt>0</asrwt>
<pdfrwt beam="1">  1       21 0.14093080E+00 0.37841689E+03</pdfrwt>
<pdfrwt beam="2">  1       21 0.60124075E-02 0.37841689E+03</pdfrwt>
<totfact> 0.64353668E+04</totfact>
</mgrwt>
</event>
<event>
 8    1  0.9123825E-006  0.3234053E+03  0.7546771E-02  0.1074093E+00
         21   -1    0    0  504  503  0.00000000000E+00  0.00000000000E+00  0.95824943297E+03  0.95824943297E+03  0.00000000000E+00 0. -1.
         21   -1    0    0  503  504 -0.00000000000E+00 -0.00000000000E+00 -0.27286994655E+02  0.27286994655E+02  0.00000000000E+00 0. -1.
         25    2    1    2    0    0  0.91793450476E+02 -0.42299604753E+02  0.51896999006E+03  0.54329389727E+03  0.12499245621E+03 0.  0.
         25    2    1    2    0    0 -0.91793450476E+02  0.42299604753E+02  0.41199244825E+03  0.44224253036E+03  0.12500153651E+03 0.  0.
          5    1    3    3  501    0  0.10786929099E+03 -0.38367695692E+02  0.51210933042E+03  0.52477225566E+03  0.47000000000E+01 0. -1.
         -5    1    3    3    0  501 -0.16075840512E+02 -0.39319090613E+01  0.68606596463E+01  0.18521641607E+02  0.47000000000E+01 0. -1.
          5    1    4    4  502    0 -0.45263196929E+02  0.15969445766E+02  0.37249891411E+03  0.37560792218E+03  0.47000000000E+01 0.  1.
         -5    1    4    4    0  502 -0.46530253547E+02  0.26330158987E+02  0.39493534139E+02  0.66634608172E+02  0.47000000000E+01 0.  1.
<mgrwt>
<rscale>  0 0.32340530E+03</rscale>
<asrwt>0</asrwt>
<pdfrwt beam="1">  1       21 0.14742296E+00 0.32340530E+03</pdfrwt>
<pdfrwt beam="2">  1       21 0.41979999E-02 0.32340530E+03</pdfrwt>
<totfact> 0.10750276E+05</totfact>
</mgrwt>
</event>
<event>
 8    1  0.9123825E-006  0.7565085E+03  0.7546771E-02  0.9625194E-01
         21   -1    0    0  504  503  0.00000000000E+00  0.00000000000E+00  0.23262401086E+03  0.23262401086E+03  0.00000000000E+00 0.  1.
         21   -1    0    0  503  504 -0.00000000000E+00 -0.00000000000E+00 -0.61505380757E+03  0.61505380757E+03  0.00000000000E+00 0.  1.
         25    2    1    2    0    0  0.67936177081E+02 -0.91906701416E+02  0.18775861426E+03  0.25286595578E+03  0.12500291373E+03 0.  0.
         25    2    1    2    0    0 -0.67936177081E+02  0.91906701416E+02 -0.57018841097E+03  0.59481186265E+03  0.12499664802E+03 0.  0.
          5    1    3    3  501    0  0.60847045979E+02 -0.57310360998E+02  0.19868376687E+03  0.21560187777E+03  0.47000000000E+01 0. -1.
         -5    1    3    3    0  501  0.70891311021E+01 -0.34596340418E+02 -0.10925152606E+02  0.37264078005E+02  0.47000000000E+01 0. -1.
          5    1    4    4  502    0 -0.10474881587E+03  0.72221133184E+02 -0.42297705678E+03  0.44172376783E+03  0.47000000000E+01 0. -1.
         -5    1    4    4    0  502  0.36812638788E+02  0.19685568232E+02 -0.14721135420E+03  0.15308809482E+03  0.47000000000E+01 0. -1.
<mgrwt>
<rscale>  0 0.75650852E+03</rscale>
<asrwt>0</asrwt>
<pdfrwt beam="1">  1       21 0.35788310E-01 0.75650852E+03</pdfrwt>
<pdfrwt beam="2">  1       21 0.94623660E-01 0.75650852E+03</pdfrwt>
<totfact> 0.57664971E+03</totfact>
</mgrwt>
</event>
<event>
 8    1  0.9123825E-006  0.2564593E+03  0.7546771E-02  0.1109289E+00
         21   -1    0    0  504  503  0.00000000000E+00  0.00000000000E+00  0.58126282594E+02  0.58126282594E+02  0.00000000000E+00 0.  1.
         21   -1    0    0  503  504 -0.00000000000E+00 -0.00000000000E+00 -0.28288136473E+03  0.28288136473E+03  0.00000000000E+00 0.  1.
         25    2    1    2    0    0  0.26353459664E+01 -0.18265909348E+02 -0.83351415701E+02  0.15137127168E+03  0.12500085959E+03 0.  0.
         25    2    1    2    0    0 -0.26353459664E+01  0.18265909348E+02 -0.14140366644E+03  0.18963637565E+03  0.12500547825E+03 0.  0.
          5    1    3    3  501    0 -0.24147562730E+02 -0.39987113672E+02  0.13175255467E+02  0.48762192345E+02  0.47000000000E+01 0. -1.
         -5    1    3    3    0  501  0.26782908697E+02  0.21721204324E+02 -0.96526671168E+02  0.10260907934E+03  0.47000000000E+01 0. -1.
          5    1    4    4  502    0  0.26809015801E+00 -0.53708704029E+02 -0.66508941125E+02  0.85616739078E+02  0.47000000000E+01 0. -1.
         -5    1    4    4    0  502 -0.29034361244E+01  0.71974613377E+02 -0.74894725313E+02  0.10401963657E+03  0.47000000000E+01 0. -1.
<mgrwt>
<rscale>  0 0.25645929E+03</rscale>
<asrwt>0</asrwt>
<pdfrwt beam="1">  1       21 0.89425052E-02 0.25645929E+03</pdfrwt>
<pdfrwt beam="2">  1       21 0.43520209E-01 0.25645929E+03</pdfrwt>
<totfact> 0.49494193E+05</totfact>
</mgrwt>
</event>
<event>
 8    1  0.9123825E-006  0.2713295E+03  0.7546771E-02  0.1100521E+00
         21   -1    0    0  504  503  0.00000000000E+00  0.00000000000E+00  0.65040585382E+02  0.65040585382E+02  0.00000000000E+00 0. -1.
         21   -1    0    0  503  504 -0.00000000000E+00 -0.00000000000E+00 -0.28297601775E+03  0.28297601775E+03  0.00000000000E+00 0. -1.
         25    2    1    2    0    0 -0.10535646330E+02 -0.45620666740E+02 -0.77879614075E+02  0.15454025921E+03  0.12500084940E+03 0.  0.
         25    2    1    2    0    0  0.10535646330E+02  0.45620666740E+02 -0.14005581830E+03  0.19347634393E+03  0.12500087337E+03 0.  0.
          5    1    3    3  501    0  0.40478427520E+02  0.51703714147E+01  0.85525303036E+01  0.41957974328E+02  0.47000000000E+01 0.  1.
         -5    1    3    3    0  501 -0.51014073850E+02 -0.50791038155E+02 -0.86432144379E+02  0.11258228488E+03  0.47000000000E+01 0.  1.
          5    1    4    4  502    0  0.59158760053E+02  0.39616689191E+02 -0.12144996055E+03  0.14085958921E+03  0.47000000000E+01 0. -1.
         -5    1    4    4    0  502 -0.48623113723E+02  0.60039775492E+01 -0.18605857745E+02  0.52616754717E+02  0.47000000000E+01 0. -1.
<mgrwt>
<rscale>  0 0.27132951E+03</rscale>
<asrwt>0</asrwt>
<pdfrwt beam="1">  1       21 0.10006244E-01 0.27132951E+03</pdfrwt>
<pdfrwt beam="2">  1       21 0.43534773E-01 0.27132951E+03</pdfrwt>
<totfact> 0.40414419E+05</totfact>
</mgrwt>
</event>
<event>
 8    1  0.9123825E-006  0.2935128E+03  0.7546771E-02  0.1088529E+00
         21   -1    0    0  504  503  0.00000000000E+00  0.00000000000E+00  0.31211420848E+03  0.31211420848E+03  0.00000000000E+00 0. -1.
         21   -1    0    0  503  504 -0.00000000000E+00 -0.00000000000E+00 -0.69005018972E+02  0.69005018972E+02  0.00000000000E+00 0. -1.
         25    2    1    2    0    0 -0.19735301345E+02 -0.58654417977E+02  0.18083487665E+03  0.22837219311E+03  0.12499113211E+03 0.  0.
         25    2    1    2    0    0  0.19735301345E+02  0.58654417977E+02  0.62274312849E+02  0.15274703433E+03  0.12499497426E+03 0.  0.
          5    1    3    3  501    0 -0.65509425196E+02 -0.42346645491E+02  0.61519932099E+02  0.99456096944E+02  0.47000000000E+01 0. -1.
         -5    1    3    3    0  501  0.45774123851E+02 -0.16307772487E+02  0.11931494456E+03  0.12891609617E+03  0.47000000000E+01 0. -1.
          5    1    4    4  502    0  0.12925268212E+02 -0.18275227506E+02 -0.26487488291E+02  0.34996050273E+02  0.47000000000E+01 0. -1.
         -5    1    4    4    0  502  0.68100331333E+01  0.76929645483E+02  0.88761801140E+02  0.11775098406E+03  0.47000000000E+01 0. -1.
<mgrwt>
<rscale>  0 0.29351284E+03</rscale>
<asrwt>0</asrwt>
<pdfrwt beam="1">  1       21 0.48017570E-01 0.29351284E+03</pdfrwt>
<pdfrwt beam="2">  1       21 0.10616157E-01 0.29351284E+03</pdfrwt>
<totfact> 0.29535374E+05</totfact>
</mgrwt>
</event>
<event>
 8    1  0.9123825E-006  0.3160689E+03  0.7546771E-02  0.1077473E+00
         21   -1    0    0  504  503  0.00000000000E+00  0.00000000000E+00  0.31883519483E+03  0.31883519483E+03  0.00000000000E+00 0.  1.
         21   -1    0    0  503  504 -0.00000000000E+00 -0.00000000000E+00 -0.78331655747E+02  0.78331655747E+02  0.00000000000E+00 0.  1.
         25    2    1    2    0    0  0.91072192928E+02  0.32699438989E+01  0.16091994851E+03  0.22320846430E+03  0.12498780680E+03 0.  0.
         25    2    1    2    0    0 -0.91072192928E+02 -0.32699438989E+01  0.79583590569E+02  0.17395838628E+03  0.12499254142E+03 0.  0.
          5    1    3    3  501    0 -0.30268025321E+02  0.10745574597E+02  0.26472348042E+02  0.41886703632E+02  0.47000000000E+01 0. -1.
         -5    1    3    3    0  501  0.12134021825E+03 -0.74756306983E+01  0.13444760047E+03  0.18132176067E+03  0.47000000000E+01 0. -1.
          5    1    4    4  502    0 -0.48554176572E+02 -0.47878724694E+02  0.88168768402E+02  0.11156030684E+03  0.47000000000E+01 0.  1.
         -5    1    4    4    0  502 -0.42518016356E+02  0.44608780795E+02 -0.85851778335E+01  0.62398079436E+02  0.47000000000E+01 0.  1.
<mgrwt>
<rscale>  0 0.31606891E+03</rscale>
<asrwt>0</asrwt>
<pdfrwt beam="1">  1       21 0.49051568E-01 0.31606891E+03</pdfrwt>
<pdfrwt beam="2">  1       21 0.12051024E-01 0.31606891E+03</pdfrwt>
<totfact> 0.22377675E+05</totfact>
</mgrwt>
</event>
<event>
 8    1  0.9123825E-006  0.2873191E+03  0.7546771E-02  0.1091757E+00
         21   -1    0    0  504  503  0.00000000000E+00  0.00000000000E+00  0.17629203414E+03  0.17629203414E+03  0.00000000000E+00 0. -1.
         21   -1    0    0  503  504 -0.00000000000E+00 -0.00000000000E+00 -0.11706750091E+03  0.11706750091E+03  0.00000000000E+00 0. -1.
         25    2    1    2    0    0 -0.44701087557E+02 -0.54888268344E+02  0.28863343349E+02  0.14653538581E+03  0.12501446907E+03 0.  0.
         25    2    1    2    0    0  0.44701087557E+02  0.54888268344E+02  0.30361189883E+02  0.14682414924E+03  0.12499847886E+03 0.  0.
          5    1    3    3  501    0  0.54428794058E+00  0.35288432628E+02  0.28384433109E+02  0.45533896929E+02  0.47000000000E+01 0. -1.
         -5    1    3    3    0  501 -0.45245375497E+02 -0.90176700972E+02  0.47891024022E+00  0.10100148889E+03  0.47000000000E+01 0. -1.
          5    1    4    4  502    0  0.69463296783E+02  0.54578753883E+02  0.60769817101E+02  0.10732684029E+03  0.47000000000E+01 0.  1.
         -5    1    4    4    0  502 -0.24762209226E+02  0.30951446064E+00 -0.30408627218E+02  0.39497308949E+02  0.47000000000E+01 0.  1.
<mgrwt>
<rscale>  0 0.28731911E+03</rscale>
<asrwt>0</asrwt>
<pdfrwt beam="1">  1       21 0.27121851E-01 0.28731911E+03</pdfrwt>
<pdfrwt beam="2">  1       21 0.18010385E-01 0.28731911E+03</pdfrwt>
<totfact> 0.35596936E+05</totfact>
</mgrwt>
</event>
<event>
 8    1  0.9123825E-006  0.2521724E+03  0.7546771E-02  0.1111940E+00
         21   -1    0    0  504  503  0.00000000000E+00  0.00000000000E+00  0.11910249283E+03  0.11910249283E+03  0.00000000000E+00 0.  1.
         21   -1    0    0  503  504 -0.00000000000E+00 -0.00000000000E+00 -0.13347940807E+03  0.13347940807E+03  0.00000000000E+00 0.  1.
         25    2    1    2    0    0  0.15186290084E+02 -0.14572993636E+01 -0.13434692708E+02  0.12665012677E+03  0.12500806579E+03 0.  0.
         25    2    1    2    0    0 -0.15186290084E+02  0.14572993636E+01 -0.94222253566E+00  0.12593177414E+03  0.12500070730E+03 0.  0.
          5    1    3    3  501    0 -0.46599453816E+02  0.16387766855E+01  0.25550096304E+02  0.53376887377E+02  0.47000000000E+01 0.  1.
         -5    1    3    3    0  501  0.61785743900E+02 -0.30960760491E+01 -0.38984789012E+02  0.73273239388E+02  0.47000000000E+01 0.  1.
          5    1    4    4  502    0 -0.33440411331E+02 -0.42963743668E+02 -0.36739662205E+02  0.65848592687E+02  0.47000000000E+01 0. -1.
         -5    1    4    4    0  502  0.18254121247E+02  0.44421043032E+02  0.35797439669E+02  0.60083181452E+02  0.47000000000E+01 0. -1.
<mgrwt>
<rscale>  0 0.25217240E+03</rscale>
<asrwt>0</asrwt>
<pdfrwt beam="1">  1       21 0.18323461E-01 0.25217240E+03</pdfrwt>
<pdfrwt beam="2">  1       21 0.20535293E-01 0.25217240E+03</pdfrwt>
<totfact> 0.59058802E+05</totfact>
</mgrwt>
</event>
<event>
 8    1  0.9123825E-006  0.3638066E+03  0.7546771E-02  0.1057087E+00
         21   -1    0    0  504  503  0.00000000000E+00  0.00000000000E+00  0.46236071679E+03  0.46236071679E+03  0.00000000000E+00 0.  1.
         21   -1    0    0  503  504 -0.00000000000E+00 -0.00000000000E+00 -0.71564925479E+02  0.71564925479E+02  0.00000000000E+00 0.  1.
         25    2    1    2    0    0  0.73560229633E+02 -0.87182065286E+02  0.97469189005E+02  0.19528702418E+03  0.12499983646E+03 0.  0.
         25    2    1    2    0    0 -0.73560229633E+02  0.87182065286E+02  0.29332660230E+03  0.33863861808E+03  0.12499519251E+03 0.  0.
          5    1    3    3  501    0  0.10325314360E+03 -0.85194822117E+02  0.96601514682E+02  0.16514633517E+03  0.47000000000E+01 0. -1.
         -5    1    3    3    0  501 -0.29692913971E+02 -0.19872431688E+01  0.86767432268E+00  0.30140689014E+02  0.47000000000E+01 0. -1.
          5    1    4    4  502    0 -0.35172339950E+02  0.11565804770E+03  0.21749749634E+03  0.24887974688E+03  0.47000000000E+01 0. -1.
         -5    1    4    4    0  502 -0.38387889683E+02 -0.28475982410E+02  0.75829105959E+02  0.89758871200E+02  0.47000000000E+01 0. -1.
<mgrwt>
<rscale>  0 0.36380660E+03</rscale>
<asrwt>0</asrwt>
<pdfrwt beam="1">  1       21 0.71132416E-01 0.36380660E+03</pdfrwt>
<pdfrwt beam="2">  1       21 0.11009989E-01 0.36380660E+03</pdfrwt>
<totfact> 0.11627729E+05</totfact>
</mgrwt>
</event>
<event>
 8    1  0.9123825E-006  0.3918650E+03  0.7546771E-02  0.1046633E+00
         21   -1    0    0  504  503  0.00000000000E+00  0.00000000000E+00  0.34123714124E+03  0.34123714124E+03  0.00000000000E+00 0. -1.
         21   -1    0    0  503  504 -0.00000000000E+00 -0.00000000000E+00 -0.11250108610E+03  0.11250108610E+03  0.00000000000E+00 0. -1.
         25    2    1    2    0    0  0.69981398036E+02 -0.67889686865E+02 -0.18958416097E+02  0.15966245447E+03  0.12500508859E+03 0.  0.
         25    2    1    2    0    0 -0.69981398036E+02  0.67889686865E+02  0.24769447123E+03  0.29407577287E+03  0.12498641307E+03 0.  0.
          5    1    3    3  501    0 -0.31242035096E+02 -0.26257171360E+02 -0.28036088742E+02  0.49735460958E+02  0.47000000000E+01 0. -1.
         -5    1    3    3    0  501  0.10122343313E+03 -0.41632515505E+02  0.90776726448E+01  0.10992699351E+03  0.47000000000E+01 0. -1.
          5    1    4    4  502    0 -0.13773924432E+02  0.90660497100E+02  0.18604469409E+03  0.20746991331E+03  0.47000000000E+01 0. -1.
         -5    1    4    4    0  502 -0.56207473605E+02 -0.22770810235E+02  0.61649777143E+02  0.86605859556E+02  0.47000000000E+01 0. -1.
<mgrwt>
<rscale>  0 0.39186502E+03</rscale>
<asrwt>0</asrwt>
<pdfrwt beam="1">  1       21 0.52498021E-01 0.39186502E+03</pdfrwt>
<pdfrwt beam="2">  1       21 0.17307860E-01 0.39186502E+03</pdfrwt>
<totfact> 0.97945868E+04</totfact>
</mgrwt>
</event>
<event>
 8    1  0.9123825E-006  0.3489864E+03  0.7546771E-02  0.1063032E+00
         21   -1    0    0  504  503  0.00000000000E+00  0.00000000000E+00  0.38843463097E+03  0.38843463097E+03  0.00000000000E+00 0. -1.
         21   -1    0    0  503  504 -0.00000000000E+00 -0.00000000000E+00 -0.78386099320E+02  0.78386099320E+02  0.00000000000E+00 0. -1.
         25    2    1    2    0    0  0.40955655312E+02 -0.11439338092E+03  0.14403815995E+03  0.22609716220E+03  0.12493888078E+03 0.  0.
         25    2    1    2    0    0 -0.40955655312E+02  0.11439338092E+03  0.16601037169E+03  0.24072356809E+03  0.12500072569E+03 0.  0.
          5    1    3    3  501    0 -0.39332305052E+02 -0.74785684942E+02  0.70118911686E+02  0.10990305123E+03  0.47000000000E+01 0. -1.
         -5    1    3    3    0  501  0.80287960364E+02 -0.39607695979E+02  0.73919248266E+02  0.11619411097E+03  0.47000000000E+01 0. -1.
          5    1    4    4  502    0 -0.73084974404E+02  0.12063648719E+03  0.13807114313E+03  0.19743430829E+03  0.47000000000E+01 0. -1.
         -5    1    4    4    0  502  0.32129319092E+02 -0.62431062646E+01  0.27939228566E+02  0.43289259800E+02  0.47000000000E+01 0. -1.
<mgrwt>
<rscale>  0 0.34898639E+03</rscale>
<asrwt>0</asrwt>
<pdfrwt beam="1">  1       21 0.59759173E-01 0.34898639E+03</pdfrwt>
<pdfrwt beam="2">  1       21 0.12059400E-01 0.34898639E+03</pdfrwt>
<totfact> 0.14546658E+05</totfact>
</mgrwt>
</event>
<event>
 8    1  0.9123825E-006  0.2986554E+03  0.7546771E-02  0.1085915E+00
         21   -1    0    0  504  503  0.00000000000E+00  0.00000000000E+00  0.57815280783E+02  0.57815280783E+02  0.00000000000E+00 0.  1.
         21   -1    0    0  503  504 -0.00000000000E+00 -0.00000000000E+00 -0.38568977196E+03  0.38568977196E+03  0.00000000000E+00 0.  1.
         25    2    1    2    0    0 -0.14865215448E+02 -0.45454403035E+02 -0.65574967888E+02  0.14903581348E+03  0.12499807958E+03 0.  0.
         25    2    1    2    0    0  0.14865215448E+02  0.45454403035E+02 -0.26229952329E+03  0.29446923927E+03  0.12499606222E+03 0.  0.
          5    1    3    3  501    0  0.44239975207E+02 -0.57207832263E+02 -0.27035357423E+02  0.77349285902E+02  0.47000000000E+01 0.  1.
         -5    1    3    3    0  501 -0.59105190655E+02  0.11753429228E+02 -0.38539610465E+02  0.71686527575E+02  0.47000000000E+01 0.  1.
          5    1    4    4  502    0  0.44642279786E+01  0.26766674237E+02 -0.26989146505E+03  0.27129297280E+03  0.47000000000E+01 0. -1.
         -5    1    4    4    0  502  0.10400987469E+02  0.18687728798E+02  0.75919417588E+01  0.23176266473E+02  0.47000000000E+01 0. -1.
<mgrwt>
<rscale>  0 0.29865540E+03</rscale>
<asrwt>0</asrwt>
<pdfrwt beam="1">  1       21 0.88946584E-02 0.29865540E+03</pdfrwt>
<pdfrwt beam="2">  1       21 0.59336889E-01 0.29865540E+03</pdfrwt>
<totfact> 0.25761572E+05</totfact>
</mgrwt>
</event>
<event>
 8    1  0.9123825E-006  0.2605247E+03  0.7546771E-02  0.1106828E+00
         21   -1    0    0  504  503  0.00000000000E+00  0.00000000000E+00  0.83071663046E+02  0.83071663046E+02  0.00000000000E+00 0. -1.
         21   -1    0    0  503  504 -0.00000000000E+00 -0.00000000000E+00 -0.20426081700E+03  0.20426081700E+03  0.00000000000E+00 0. -1.
         25    2    1    2    0    0  0.22714347798E+01  0.40451743434E+01 -0.20490860326E+02  0.12675397515E+03  0.12500068803E+03 0.  0.
         25    2    1    2    0    0 -0.22714347798E+01 -0.40451743434E+01 -0.10069829363E+03  0.16057850489E+03  0.12499514808E+03 0.  0.
          5    1    3    3  501    0 -0.13458725428E+02 -0.56341625630E+02  0.67411053400E+01  0.58506824987E+02  0.47000000000E+01 0. -1.
         -5    1    3    3    0  501  0.15730160208E+02  0.60386799974E+02 -0.27231965666E+02  0.68247150162E+02  0.47000000000E+01 0. -1.
          5    1    4    4  502    0  0.50081716234E+01  0.13273874965E+02 -0.12702226388E+03  0.12789848733E+03  0.47000000000E+01 0.  1.
         -5    1    4    4    0  502 -0.72796064032E+01 -0.17319049308E+02  0.26323970253E+02  0.32680017568E+02  0.47000000000E+01 0.  1.
<mgrwt>
<rscale>  0 0.26052475E+03</rscale>
<asrwt>0</asrwt>
<pdfrwt beam="1">  1       21 0.12780256E-01 0.26052475E+03</pdfrwt>
<pdfrwt beam="2">  1       21 0.31424741E-01 0.26052475E+03</pdfrwt>
<totfact> 0.50347652E+05</totfact>
</mgrwt>
</event>
<event>
 8    1  0.9123825E-006  0.2803079E+03  0.7546771E-02  0.1095521E+00
         21   -1    0    0  504  503  0.00000000000E+00  0.00000000000E+00  0.16471779956E+03  0.16471779956E+03  0.00000000000E+00 0. -1.
         21   -1    0    0  503  504 -0.00000000000E+00 -0.00000000000E+00 -0.11925326109E+03  0.11925326109E+03  0.00000000000E+00 0. -1.
         25    2    1    2    0    0 -0.27667360764E+02 -0.85336916367E+01 -0.34398458617E+02  0.13283439200E+03  0.12499365984E+03 0.  0.
         25    2    1    2    0    0  0.27667360764E+02  0.85336916367E+01  0.79862997083E+02  0.15113666864E+03  0.12500355019E+03 0.  0.
          5    1    3    3  501    0 -0.43193558756E+02 -0.58964108017E+02 -0.80968719238E+01  0.73689204686E+02  0.47000000000E+01 0. -1.
         -5    1    3    3    0  501  0.15526197992E+02  0.50430416380E+02 -0.26301586693E+02  0.59145187319E+02  0.47000000000E+01 0. -1.
          5    1    4    4  502    0 -0.18380291129E+02  0.55470445460E+02  0.19580404642E+02  0.61808475693E+02  0.47000000000E+01 0. -1.
         -5    1    4    4    0  502  0.46047651893E+02 -0.46936753823E+02  0.60282592441E+02  0.89328192950E+02  0.47000000000E+01 0. -1.
<mgrwt>
<rscale>  0 0.28030794E+03</rscale>
<asrwt>0</asrwt>
<pdfrwt beam="1">  1       21 0.25341200E-01 0.28030794E+03</pdfrwt>
<pdfrwt beam="2">  1       21 0.18346656E-01 0.28030794E+03</pdfrwt>
<totfact> 0.39271763E+05</totfact>
</mgrwt>
</event>
<event>
 8    1  0.9123825E-006  0.2882742E+03  0.7546771E-02  0.1091254E+00
         21   -1    0    0  504  503  0.00000000000E+00  0.00000000000E+00  0.24136989600E+03  0.24136989600E+03  0.00000000000E+00 0. -1.
         21   -1    0    0  503  504 -0.00000000000E+00 -0.00000000000E+00 -0.86073280041E+02  0.86073280041E+02  0.00000000000E+00 0. -1.
         25    2    1    2    0    0 -0.80433989869E+01  0.56663578309E+02  0.28443621743E+02  0.14039335730E+03  0.12500319109E+03 0.  0.
         25    2    1    2    0    0  0.80433989869E+01 -0.56663578309E+02  0.12685299422E+03  0.18704981874E+03  0.12498197940E+03 0.  0.
          5    1    3    3  501    0 -0.88364950301E+01  0.43230558804E+02 -0.46400962603E+02  0.64203615080E+02  0.47000000000E+01 0.  1.
         -5    1    3    3    0  501  0.79309604323E+00  0.13433019505E+02  0.74844584345E+02  0.76189742224E+02  0.47000000000E+01 0.  1.
          5    1    4    4  502    0 -0.26714298786E+02 -0.29733547466E+02 -0.11454390936E+02  0.41845318451E+02  0.47000000000E+01 0.  1.
         -5    1    4    4    0  502  0.34757697773E+02 -0.26930030842E+02  0.13830738515E+03  0.14520450029E+03  0.47000000000E+01 0.  1.
<mgrwt>
<rscale>  0 0.28827417E+03</rscale>
<asrwt>0</asrwt>
<pdfrwt beam="1">  1       21 0.37133830E-01 0.28827417E+03</pdfrwt>
<pdfrwt beam="2">  1       21 0.13242043E-01 0.28827417E+03</pdfrwt>
<totfact> 0.33658850E+05</totfact>
</mgrwt>
</event>
<event>
 8    1  0.9123825E-006  0.4035663E+03  0.7546771E-02  0.1042552E+00
         21   -1    0    0  504  503  0.00000000000E+00  0.00000000000E+00  0.97369649331E+03  0.97369649331E+03  0.00000000000E+00 0. -1.
         21   -1    0    0  503  504 -0.00000000000E+00 -0.00000000000E+00 -0.41816356952E+02  0.41816356952E+02  0.00000000000E+00 0. -1.
         25    2    1    2    0    0 -0.14609065625E+03  0.69318266607E+01  0.61901282772E+03  0.64822322850E+03  0.12500377204E+03 0.  0.
         25    2    1    2    0    0  0.14609065625E+03 -0.69318266607E+01  0.31286730864E+03  0.36728962176E+03  0.12500073350E+03 0.  0.
          5    1    3    3  501    0 -0.82256997712E+02 -0.56618316565E+02  0.37418927769E+03  0.38731324917E+03  0.47000000000E+01 0.  1.
         -5    1    3    3    0  501 -0.63833658535E+02  0.63550143226E+02  0.24482355002E+03  0.26090997933E+03  0.47000000000E+01 0.  1.
          5    1    4    4  502    0  0.12673208483E+03  0.37301660181E+02  0.16357115950E+03  0.21030941347E+03  0.47000000000E+01 0.  1.
         -5    1    4    4    0  502  0.19358571422E+02 -0.44233486842E+02  0.14929614914E+03  0.15698020829E+03  0.47000000000E+01 0.  1.
<mgrwt>
<rscale>  0 0.40356630E+03</rscale>
<asrwt>0</asrwt>
<pdfrwt beam="1">  1       21 0.14979944E+00 0.40356630E+03</pdfrwt>
<pdfrwt beam="2">  1       21 0.64332864E-02 0.40356630E+03</pdfrwt>
<totfact> 0.48231163E+04</totfact>
</mgrwt>
</event>
<event>
 8    1  0.9123825E-006  0.2677091E+03  0.7546771E-02  0.1102598E+00
         21   -1    0    0  504  503  0.00000000000E+00  0.00000000000E+00  0.56933846145E+03  0.56933846145E+03  0.00000000000E+00 0. -1.
         21   -1    0    0  503  504 -0.00000000000E+00 -0.00000000000E+00 -0.31469936272E+02  0.31469936272E+02  0.00000000000E+00 0. -1.
         25    2    1    2    0    0  0.13879190852E+02  0.30244197572E+02  0.34613979101E+03  0.36952270699E+03  0.12500773030E+03 0.  0.
         25    2    1    2    0    0 -0.13879190852E+02 -0.30244197572E+02  0.19172873417E+03  0.23128569073E+03  0.12500327918E+03 0.  0.
          5    1    3    3  501    0 -0.30377436759E+02  0.56627042674E+02  0.26921279711E+03  0.27681587880E+03  0.47000000000E+01 0. -1.
         -5    1    3    3    0  501  0.44256627611E+02 -0.26382845101E+02  0.76926993893E+02  0.92706828187E+02  0.47000000000E+01 0. -1.
          5    1    4    4  502    0  0.34144279280E+02 -0.29172330958E+02  0.17416683222E+03  0.17992507371E+03  0.47000000000E+01 0.  1.
         -5    1    4    4    0  502 -0.48023470132E+02 -0.10718666141E+01  0.17561901948E+02  0.51360617029E+02  0.47000000000E+01 0.  1.
<mgrwt>
<rscale>  0 0.26770913E+03</rscale>
<asrwt>0</asrwt>
<pdfrwt beam="1">  1       21 0.87590525E-01 0.26770913E+03</pdfrwt>
<pdfrwt beam="2">  1       21 0.48415291E-02 0.26770913E+03</pdfrwt>
<totfact> 0.31146883E+05</totfact>
</mgrwt>
</event>
<event>
 8    1  0.9123825E-006  0.2894878E+03  0.7546771E-02  0.1090617E+00
         21   -1    0    0  504  503  0.00000000000E+00  0.00000000000E+00  0.11039453044E+02  0.11039453044E+02  0.00000000000E+00 0. -1.
         21   -1    0    0  503  504 -0.00000000000E+00 -0.00000000000E+00 -0.18978107946E+04  0.18978107946E+04  0.00000000000E+00 0. -1.
         25    2    1    2    0    0 -0.69450992607E+02  0.18981968916E+02 -0.86488199313E+03  0.87682943330E+03  0.12500095018E+03 0.  0.
         25    2    1    2    0    0  0.69450992607E+02 -0.18981968916E+02 -0.10218893484E+04  0.10320208143E+04  0.12500146115E+03 0.  0.
          5    1    3    3  501    0 -0.32398777391E+02 -0.27313766215E+02 -0.70421999626E+03  0.70550947246E+03  0.47000000000E+01 0. -1.
         -5    1    3    3    0  501 -0.37052215217E+02  0.46295735131E+02 -0.16066199687E+03  0.17131996084E+03  0.47000000000E+01 0. -1.
          5    1    4    4  502    0  0.29825895179E+02  0.49147068615E+02 -0.60323636278E+03  0.60598780331E+03  0.47000000000E+01 0. -1.
         -5    1    4    4    0  502  0.39625097429E+02 -0.68129037531E+02 -0.41865298563E+03  0.42603301101E+03  0.47000000000E+01 0. -1.
<mgrwt>
<rscale>  0 0.28948778E+03</rscale>
<asrwt>0</asrwt>
<pdfrwt beam="1">  1       21 0.16983777E-02 0.28948778E+03</pdfrwt>
<pdfrwt beam="2">  1       21 0.29197084E+00 0.28948778E+03</pdfrwt>
<totfact> 0.56876183E+04</totfact>
</mgrwt>
</event>
<event>
 8    1  0.9123825E-006  0.2909967E+03  0.7546771E-02  0.1089830E+00
         21   -1    0    0  504  503  0.00000000000E+00  0.00000000000E+00  0.65387485939E+03  0.65387485939E+03  0.00000000000E+00 0.  1.
         21   -1    0    0  503  504 -0.00000000000E+00 -0.00000000000E+00 -0.32375875375E+02  0.32375875375E+02  0.00000000000E+00 0.  1.
         25    2    1    2    0    0  0.23810675639E+02 -0.49347338292E+02  0.42959176438E+03  0.45075120272E+03  0.12500181861E+03 0.  0.
         25    2    1    2    0    0 -0.23810675639E+02  0.49347338292E+02  0.19190721964E+03  0.23549953205E+03  0.12501816099E+03 0.  0.
          5    1    3    3  501    0  0.13778752248E+02 -0.91137032723E+02  0.31632761637E+03  0.32951640873E+03  0.47000000000E+01 0. -1.
         -5    1    3    3    0  501  0.10031923391E+02  0.41789694431E+02  0.11326414801E+03  0.12123479398E+03  0.47000000000E+01 0. -1.
          5    1    4    4  502    0 -0.57120183782E+02  0.14006146750E+02  0.17365797882E+03  0.18340684598E+03  0.47000000000E+01 0.  1.
         -5    1    4    4    0  502  0.33309508142E+02  0.35341191541E+02  0.18249240815E+02  0.52092686076E+02  0.47000000000E+01 0.  1.
<mgrwt>
<rscale>  0 0.29099671E+03</rscale>
<asrwt>0</asrwt>
<pdfrwt beam="1">  1       21 0.10059612E+00 0.29099671E+03</pdfrwt>
<pdfrwt beam="2">  1       21 0.49809044E-02 0.29099671E+03</pdfrwt>
<totfact> 0.21280022E+05</totfact>
</mgrwt>
</event>
<event>
 8    1  0.9123825E-006  0.3198313E+03  0.7546771E-02  0.1075727E+00
         21   -1    0    0  504  503  0.00000000000E+00  0.00000000000E+00  0.37076719859E+03  0.37076719859E+03  0.00000000000E+00 0.  1.
         21   -1    0    0  503  504 -0.00000000000E+00 -0.00000000000E+00 -0.68973224751E+02  0.68973224751E+02  0.00000000000E+00 0.  1.
         25    2    1    2    0    0  0.55142301029E+02 -0.82928663605E+02  0.14366900683E+03  0.21490435909E+03  0.12500105368E+03 0.  0.
         25    2    1    2    0    0 -0.55142301029E+02  0.82928663605E+02  0.15812496701E+03  0.22483606426E+03  0.12501965441E+03 0.  0.
          5    1    3    3  501    0  0.52039887024E+02 -0.11163192229E+03  0.13814342612E+03  0.18513652286E+03  0.47000000000E+01 0. -1.
         -5    1    3    3    0  501  0.31024140052E+01  0.28703258681E+02  0.55255807094E+01  0.29767836229E+02  0.47000000000E+01 0. -1.
          5    1    4    4  502    0 -0.93350034796E+02  0.71632737244E+02  0.10166699672E+03  0.15557553234E+03  0.47000000000E+01 0.  1.
         -5    1    4    4    0  502  0.38207733766E+02  0.11295926361E+02  0.56457970295E+02  0.69260531919E+02  0.47000000000E+01 0.  1.
<mgrwt>
<rscale>  0 0.31983126E+03</rscale>
<asrwt>0</asrwt>
<pdfrwt beam="1">  1       21 0.57041106E-01 0.31983126E+03</pdfrwt>
<pdfrwt beam="2">  1       21 0.10611266E-01 0.31983126E+03</pdfrwt>
<totfact> 0.20393859E+05</totfact>
</mgrwt>
</event>
<event>
 8    1  0.9123825E-006  0.2658339E+03  0.7546771E-02  0.1103688E+00
         21   -1    0    0  504  503  0.00000000000E+00  0.00000000000E+00  0.10696860352E+03  0.10696860352E+03  0.00000000000E+00 0.  1.
         21   -1    0    0  503  504 -0.00000000000E+00 -0.00000000000E+00 -0.16515988150E+03  0.16515988150E+03  0.00000000000E+00 0.  1.
         25    2    1    2    0    0  0.32580886262E+02  0.19429455816E+02 -0.39644601037E+01  0.13069046528E+03  0.12500105147E+03 0.  0.
         25    2    1    2    0    0 -0.32580886262E+02 -0.19429455816E+02 -0.54226817882E+02  0.14143801974E+03  0.12500059098E+03 0.  0.
          5    1    3    3  501    0  0.29763694529E+02  0.69775769942E+02  0.13352295512E+02  0.77168059315E+02  0.47000000000E+01 0.  1.
         -5    1    3    3    0  501  0.28171917332E+01 -0.50346314126E+02 -0.17316755616E+02  0.53522405966E+02  0.47000000000E+01 0.  1.
          5    1    4    4  502    0 -0.54870817950E+02  0.20035317367E+02  0.13186998317E+02  0.60068357137E+02  0.47000000000E+01 0.  1.
         -5    1    4    4    0  502  0.22289931688E+02 -0.39464773183E+02 -0.67413816199E+02  0.81369662599E+02  0.47000000000E+01 0.  1.
<mgrwt>
<rscale>  0 0.26583395E+03</rscale>
<asrwt>0</asrwt>
<pdfrwt beam="1">  1       21 0.16456708E-01 0.26583395E+03</pdfrwt>
<pdfrwt beam="2">  1       21 0.25409212E-01 0.26583395E+03</pdfrwt>
<totfact> 0.47937604E+05</totfact>
</mgrwt>
</event>
<event>
 8    1  0.9123825E-006  0.2668546E+03  0.7546771E-02  0.1103093E+00
         21   -1    0    0  504  503  0.00000000000E+00  0.00000000000E+00  0.99576992843E+02  0.99576992843E+02  0.00000000000E+00 0.  1.
         21   -1    0    0  503  504 -0.00000000000E+00 -0.00000000000E+00 -0.17878470636E+03  0.17878470636E+03  0.00000000000E+00 0.  1.
         25    2    1    2    0    0 -0.15741835253E+01 -0.36379907691E+02 -0.70047482378E+02  0.14784459396E+03  0.12500159374E+03 0.  0.
         25    2    1    2    0    0  0.15741835253E+01  0.36379907691E+02 -0.91602311412E+01  0.13051710525E+03  0.12499931676E+03 0.  0.
          5    1    3    3  501    0  0.48164414027E+02  0.22168142984E+02 -0.28276946319E+02  0.60273651250E+02  0.47000000000E+01 0. -1.
         -5    1    3    3    0  501 -0.49738597552E+02 -0.58548050676E+02 -0.41770536059E+02  0.87570942710E+02  0.47000000000E+01 0. -1.
          5    1    4    4  502    0  0.37685605585E+02 -0.33527641903E+02  0.30586602553E+01  0.50751877230E+02  0.47000000000E+01 0. -1.
         -5    1    4    4    0  502 -0.36111422060E+02  0.69907549594E+02 -0.12218891397E+02  0.79765228016E+02  0.47000000000E+01 0. -1.
<mgrwt>
<rscale>  0 0.26685459E+03</rscale>
<asrwt>0</asrwt>
<pdfrwt beam="1">  1       21 0.15319538E-01 0.26685459E+03</pdfrwt>
<pdfrwt beam="2">  1       21 0.27505339E-01 0.26685459E+03</pdfrwt>
<totfact> 0.46912438E+05</totfact>
</mgrwt>
</event>
<event>
 8    1  0.9123825E-006  0.3500816E+03  0.7546771E-02  0.1062582E+00
         21   -1    0    0  504  503  0.00000000000E+00  0.00000000000E+00  0.60574093467E+03  0.60574093467E+03  0.00000000000E+00 0.  1.
         21   -1    0    0  503  504 -0.00000000000E+00 -0.00000000000E+00 -0.50581491128E+02  0.50581491128E+02  0.00000000000E+00 0.  1.
         25    2    1    2    0    0 -0.79780144036E+02 -0.20134306723E+02  0.44780595493E+03  0.47215122122E+03  0.12500536281E+03 0.  0.
         25    2    1    2    0    0  0.79780144036E+02  0.20134306723E+02  0.10735348860E+03  0.18417120458E+03  0.12499599750E+03 0.  0.
          5    1    3    3  501    0 -0.51775635923E+02 -0.15200006392E+02  0.43854630306E+03  0.44187861071E+03  0.47000000000E+01 0. -1.
         -5    1    3    3    0  501 -0.28004508113E+02 -0.49343003314E+01  0.92596518723E+01  0.30272610512E+02  0.47000000000E+01 0. -1.
          5    1    4    4  502    0 -0.30234003427E+02  0.13118728421E+02  0.49315123258E+02  0.59500146055E+02  0.47000000000E+01 0. -1.
         -5    1    4    4    0  502  0.11001414746E+03  0.70155783024E+01  0.58038365345E+02  0.12467105852E+03  0.47000000000E+01 0. -1.
<mgrwt>
<rscale>  0 0.35008159E+03</rscale>
<asrwt>0</asrwt>
<pdfrwt beam="1">  1       21 0.93190908E-01 0.35008159E+03</pdfrwt>
<pdfrwt beam="2">  1       21 0.77817683E-02 0.35008159E+03</pdfrwt>
<totfact> 0.11608171E+05</totfact>
</mgrwt>
</event>
<event>
 8    1  0.9123825E-006  0.3750173E+03  0.7546771E-02  0.1052791E+00
         21   -1    0    0  504  503  0.00000000000E+00  0.00000000000E+00  0.38692977276E+03  0.38692977276E+03  0.00000000000E+00 0.  1.
         21   -1    0    0  503  504 -0.00000000000E+00 -0.00000000000E+00 -0.90867881310E+02  0.90867881310E+02  0.00000000000E+00 0.  1.
         25    2    1    2    0    0  0.75566605873E+02 -0.93757771836E+02  0.57635330057E+02  0.18288695095E+03  0.12499989541E+03 0.  0.
         25    2    1    2    0    0 -0.75566605873E+02  0.93757771836E+02  0.23842656139E+03  0.29491070312E+03  0.12499706371E+03 0.  0.
          5    1    3    3  501    0 -0.33961005515E+02 -0.34417968528E+02  0.11146548167E+02  0.49842572057E+02  0.47000000000E+01 0.  1.
         -5    1    3    3    0  501  0.10952761139E+03 -0.59339803308E+02  0.46488781890E+02  0.13304437889E+03  0.47000000000E+01 0.  1.
          5    1    4    4  502    0  0.21279799662E+02  0.22988288532E+02  0.12780634346E+03  0.13167324220E+03  0.47000000000E+01 0. -1.
         -5    1    4    4    0  502 -0.96846405535E+02  0.70769483305E+02  0.11062021793E+03  0.16323746092E+03  0.47000000000E+01 0. -1.
<mgrwt>
<rscale>  0 0.37501727E+03</rscale>
<asrwt>0</asrwt>
<pdfrwt beam="1">  1       21 0.59527656E-01 0.37501727E+03</pdfrwt>
<pdfrwt beam="2">  1       21 0.13979674E-01 0.37501727E+03</pdfrwt>
<totfact> 0.11138694E+05</totfact>
</mgrwt>
</event>
<event>
 8    1  0.9123825E-006  0.3695558E+03  0.7546771E-02  0.1054863E+00
         21   -1    0    0  504  503  0.00000000000E+00  0.00000000000E+00  0.82526691248E+02  0.82526691248E+02  0.00000000000E+00 0. -1.
         21   -1    0    0  503  504 -0.00000000000E+00 -0.00000000000E+00 -0.41371916625E+03  0.41371916625E+03  0.00000000000E+00 0. -1.
         25    2    1    2    0    0 -0.10637705909E+03 -0.48688301463E+02 -0.25893048833E+03  0.31041225630E+03  0.12499656663E+03 0.  0.
         25    2    1    2    0    0  0.10637705909E+03  0.48688301463E+02 -0.72261986669E+02  0.18583360120E+03  0.12500281284E+03 0.  0.
          5    1    3    3  501    0 -0.12396156641E+03 -0.32312848146E+02 -0.14352119695E+03  0.19243444098E+03  0.47000000000E+01 0. -1.
         -5    1    3    3    0  501  0.17584507316E+02 -0.16375453317E+02 -0.11540929138E+03  0.11797781531E+03  0.47000000000E+01 0. -1.
          5    1    4    4  502    0  0.85181908097E+02  0.89106853269E+02 -0.39771460804E+02  0.12961422708E+03  0.47000000000E+01 0. -1.
         -5    1    4    4    0  502  0.21195150998E+02 -0.40418551806E+02 -0.32490525866E+02  0.56219374125E+02  0.47000000000E+01 0. -1.
<mgrwt>
<rscale>  0 0.36955581E+03</rscale>
<asrwt>0</asrwt>
<pdfrwt beam="1">  1       21 0.12696414E-01 0.36955581E+03</pdfrwt>
<pdfrwt beam="2">  1       21 0.63649102E-01 0.36955581E+03</pdfrwt>
<totfact> 0.11486069E+05</totfact>
</mgrwt>
</event>
<event>
 8    1  0.9123825E-006  0.2844972E+03  0.7546771E-02  0.1093258E+00
         21   -1    0    0  504  503  0.00000000000E+00  0.00000000000E+00  0.33780094552E+02  0.33780094552E+02  0.00000000000E+00 0. -1.
         21   -1    0    0  503  504 -0.00000000000E+00 -0.00000000000E+00 -0.59901161444E+03  0.59901161444E+03  0.00000000000E+00 0. -1.
         25    2    1    2    0    0 -0.31403728172E+02  0.45031450658E+02 -0.37143398089E+03  0.39573001251E+03  0.12500005979E+03 0.  0.
         25    2    1    2    0    0  0.31403728172E+02 -0.45031450658E+02 -0.19379753899E+03  0.23706169648E+03  0.12500694432E+03 0.  0.
          5    1    3    3  501    0 -0.42473597499E+02  0.69445173907E+02 -0.35431953885E+03  0.36358089096E+03  0.47000000000E+01 0. -1.
         -5    1    3    3    0  501  0.11069869327E+02 -0.24413723250E+02 -0.17114442050E+02  0.32149121551E+02  0.47000000000E+01 0. -1.
          5    1    4    4  502    0 -0.14596453399E+02 -0.60583116617E+02 -0.17315871522E+03  0.18409074156E+03  0.47000000000E+01 0.  1.
         -5    1    4    4    0  502  0.46000181572E+02  0.15551665959E+02 -0.20638823774E+02  0.52970954923E+02  0.47000000000E+01 0.  1.
<mgrwt>
<rscale>  0 0.28449723E+03</rscale>
<asrwt>0</asrwt>
<pdfrwt beam="1">  1       21 0.51969376E-02 0.28449723E+03</pdfrwt>
<pdfrwt beam="2">  1       21 0.92155633E-01 0.28449723E+03</pdfrwt>
<totfact> 0.24408371E+05</totfact>
</mgrwt>
</event>
<event>
 8    1  0.9123825E-006  0.5916976E+03  0.7546771E-02  0.9922782E-01
         21   -1    0    0  504  503  0.00000000000E+00  0.00000000000E+00  0.22188665223E+03  0.22188665223E+03  0.00000000000E+00 0. -1.
         21   -1    0    0  503  504 -0.00000000000E+00 -0.00000000000E+00 -0.39446499946E+03  0.39446499946E+03  0.00000000000E+00 0. -1.
         25    2    1    2    0    0  0.17166328123E+02 -0.34746597804E+02 -0.36267372864E+03  0.38556423761E+03  0.12500215598E+03 0.  0.
         25    2    1    2    0    0 -0.17166328123E+02  0.34746597804E+02  0.19009538141E+03  0.23078741408E+03  0.12499827032E+03 0.  0.
          5    1    3    3  501    0  0.61015848362E+02 -0.46474242434E+02 -0.28778382909E+03  0.29786643189E+03  0.47000000000E+01 0. -1.
         -5    1    3    3    0  501 -0.43849520239E+02  0.11727644630E+02 -0.74889899552E+02  0.87697805724E+02  0.47000000000E+01 0. -1.
          5    1    4    4  502    0  0.17712229270E+02  0.53040941801E+02  0.25785874451E+02  0.61758124114E+02  0.47000000000E+01 0. -1.
         -5    1    4    4    0  502 -0.34878557394E+02 -0.18294343998E+02  0.16430950696E+03  0.16902928996E+03  0.47000000000E+01 0. -1.
<mgrwt>
<rscale>  0 0.59169762E+03</rscale>
<asrwt>0</asrwt>
<pdfrwt beam="1">  1       21 0.34136408E-01 0.59169762E+03</pdfrwt>
<pdfrwt beam="2">  1       21 0.60686922E-01 0.59169762E+03</pdfrwt>
<totfact> 0.18290829E+04</totfact>
</mgrwt>
</event>
<event>
 8    1  0.9123825E-006  0.2576309E+03  0.7546771E-02  0.1108575E+00
         21   -1    0    0  504  503  0.00000000000E+00  0.00000000000E+00  0.28986910556E+02  0.28986910556E+02  0.00000000000E+00 0. -1.
         21   -1    0    0  503  504 -0.00000000000E+00 -0.00000000000E+00 -0.57244550002E+03  0.57244550002E+03  0.00000000000E+00 0. -1.
         25    2    1    2    0    0 -0.30215969378E+02  0.45550592746E+01 -0.28616094008E+03  0.31375768907E+03  0.12498820124E+03 0.  0.
         25    2    1    2    0    0  0.30215969378E+02 -0.45550592746E+01 -0.25729764938E+03  0.28767472151E+03  0.12498364552E+03 0.  0.
          5    1    3    3  501    0 -0.24768367092E+02  0.51902200925E+02 -0.24141891548E+03  0.24821863995E+03  0.47000000000E+01 0. -1.
         -5    1    3    3    0  501 -0.54476022861E+01 -0.47347141650E+02 -0.44742024600E+02  0.65539049111E+02  0.47000000000E+01 0. -1.
          5    1    4    4  502    0 -0.24514357325E+02 -0.36212503623E+02 -0.34115832966E+02  0.55662188178E+02  0.47000000000E+01 0.  1.
         -5    1    4    4    0  502  0.54730326703E+02  0.31657444349E+02 -0.22318181641E+03  0.23201253333E+03  0.47000000000E+01 0.  1.
<mgrwt>
<rscale>  0 0.25763095E+03</rscale>
<asrwt>0</asrwt>
<pdfrwt beam="1">  1       21 0.44595251E-02 0.25763095E+03</pdfrwt>
<pdfrwt beam="2">  1       21 0.88068530E-01 0.25763095E+03</pdfrwt>
<totfact> 0.35451824E+05</totfact>
</mgrwt>
</event>
<event>
 8    1  0.9123825E-006  0.2645264E+03  0.7546771E-02  0.1104454E+00
         21   -1    0    0  504  503  0.00000000000E+00  0.00000000000E+00  0.56475667062E+02  0.56475667062E+02  0.00000000000E+00 0. -1.
         21   -1    0    0  503  504 -0.00000000000E+00 -0.00000000000E+00 -0.30975382973E+03  0.30975382973E+03  0.00000000000E+00 0. -1.
         25    2    1    2    0    0 -0.25673838639E+02 -0.29624131878E+02 -0.15192315760E+03  0.20060403080E+03  0.12499838470E+03 0.  0.
         25    2    1    2    0    0  0.25673838639E+02  0.29624131878E+02 -0.10135500507E+03  0.16562546600E+03  0.12498889052E+03 0.  0.
          5    1    3    3  501    0  0.30196674596E+02 -0.26854426133E+02 -0.22443471212E+01  0.40744649386E+02  0.47000000000E+01 0. -1.
         -5    1    3    3    0  501 -0.55870513235E+02 -0.27697057450E+01 -0.14967881048E+03  0.15985938141E+03  0.47000000000E+01 0. -1.
          5    1    4    4  502    0 -0.17549850551E+02  0.22216906410E+01  0.23977405753E+02  0.30165197667E+02  0.47000000000E+01 0.  1.
         -5    1    4    4    0  502  0.43223689189E+02  0.27402441237E+02 -0.12533241082E+03  0.13546026833E+03  0.47000000000E+01 0.  1.
<mgrwt>
<rscale>  0 0.26452640E+03</rscale>
<asrwt>0</asrwt>
<pdfrwt beam="1">  1       21 0.86885640E-02 0.26452640E+03</pdfrwt>
<pdfrwt beam="2">  1       21 0.47654436E-01 0.26452640E+03</pdfrwt>
<totfact> 0.43081165E+05</totfact>
</mgrwt>
</event>
<event>
 8    1  0.9123825E-006  0.3328558E+03  0.7546771E-02  0.1069880E+00
         21   -1    0    0  504  503  0.00000000000E+00  0.00000000000E+00  0.11005715922E+03  0.11005715922E+03  0.00000000000E+00 0.  1.
         21   -1    0    0  503  504 -0.00000000000E+00 -0.00000000000E+00 -0.25167146340E+03  0.25167146340E+03  0.00000000000E+00 0.  1.
         25    2    1    2    0    0  0.78478959964E+02  0.20124222138E+02 -0.15147188843E+03  0.21244164669E+03  0.12499515506E+03 0.  0.
         25    2    1    2    0    0 -0.78478959964E+02 -0.20124222138E+02  0.98575842487E+01  0.14928697594E+03  0.12500199096E+03 0.  0.
          5    1    3    3  501    0  0.83751521734E+02 -0.33697237888E+02 -0.69063723684E+02  0.11376163309E+03  0.47000000000E+01 0. -1.
         -5    1    3    3    0  501 -0.52725617698E+01  0.53821460027E+02 -0.82408164743E+02  0.98680013596E+02  0.47000000000E+01 0. -1.
          5    1    4    4  502    0 -0.48748488873E+02  0.44181545840E+02 -0.24560893195E+02  0.70382893054E+02  0.47000000000E+01 0.  1.
         -5    1    4    4    0  502 -0.29730471091E+02 -0.64305767978E+02  0.34418477443E+02  0.78904082886E+02  0.47000000000E+01 0.  1.
<mgrwt>
<rscale>  0 0.33285580E+03</rscale>
<asrwt>0</asrwt>
<pdfrwt beam="1">  1       21 0.16931871E-01 0.33285580E+03</pdfrwt>
<pdfrwt beam="2">  1       21 0.38718686E-01 0.33285580E+03</pdfrwt>
<totfact> 0.19496793E+05</totfact>
</mgrwt>
</event>
<event>
 8    1  0.9123825E-006  0.3215307E+03  0.7546771E-02  0.1074947E+00
         21   -1    0    0  504  503  0.00000000000E+00  0.00000000000E+00  0.17398448286E+03  0.17398448286E+03  0.00000000000E+00 0.  1.
         21   -1    0    0  503  504 -0.00000000000E+00 -0.00000000000E+00 -0.14855058420E+03  0.14855058420E+03  0.00000000000E+00 0.  1.
         25    2    1    2    0    0  0.94444848395E+02  0.31584364583E+01  0.48745800502E+02  0.16410864350E+03  0.12500275476E+03 0.  0.
         25    2    1    2    0    0 -0.94444848395E+02 -0.31584364583E+01 -0.23311901844E+02  0.15842642356E+03  0.12500272719E+03 0.  0.
          5    1    3    3  501    0  0.54053901902E+02  0.29870836532E+02 -0.32093446952E+02  0.69757942366E+02  0.47000000000E+01 0.  1.
         -5    1    3    3    0  501  0.40390946494E+02 -0.26712400074E+02  0.80839247454E+02  0.94350701139E+02  0.47000000000E+01 0.  1.
          5    1    4    4  502    0 -0.11132795674E+03 -0.37910077889E+02 -0.19725925403E+02  0.11934106624E+03  0.47000000000E+01 0.  1.
         -5    1    4    4    0  502  0.16883108347E+02  0.34751641430E+02 -0.35859764415E+01  0.39085357317E+02  0.47000000000E+01 0.  1.
<mgrwt>
<rscale>  0 0.32153069E+03</rscale>
<asrwt>0</asrwt>
<pdfrwt beam="1">  1       21 0.26766844E-01 0.32153069E+03</pdfrwt>
<pdfrwt beam="2">  1       21 0.22853936E-01 0.32153069E+03</pdfrwt>
<totfact> 0.23128758E+05</totfact>
</mgrwt>
</event>
<event>
 8    1  0.9123825E-006  0.3769527E+03  0.7546771E-02  0.1052066E+00
         21   -1    0    0  504  503  0.00000000000E+00  0.00000000000E+00  0.18709155433E+03  0.18709155433E+03  0.00000000000E+00 0. -1.
         21   -1    0    0  503  504 -0.00000000000E+00 -0.00000000000E+00 -0.18987142223E+03  0.18987142223E+03  0.00000000000E+00 0. -1.
         25    2    1    2    0    0  0.94340544598E+02 -0.78436018649E+02  0.68282196215E+02  0.18798865118E+03  0.12499970911E+03 0.  0.
         25    2    1    2    0    0 -0.94340544598E+02  0.78436018649E+02 -0.71062064123E+02  0.18897432537E+03  0.12493650914E+03 0.  0.
          5    1    3    3  501    0  0.41878642888E+02 -0.27067932716E+02  0.96873447868E+02  0.10905525486E+03  0.47000000000E+01 0.  1.
         -5    1    3    3    0  501  0.52461901710E+02 -0.51368085934E+02 -0.28591251653E+02  0.78933396320E+02  0.47000000000E+01 0.  1.
          5    1    4    4  502    0 -0.46921113284E+02  0.10880180073E+03 -0.49403707239E+02  0.12846104080E+03  0.47000000000E+01 0.  1.
         -5    1    4    4    0  502 -0.47419431315E+02 -0.30365782080E+02 -0.21658356883E+02  0.60513284578E+02  0.47000000000E+01 0.  1.
<mgrwt>
<rscale>  0 0.37695273E+03</rscale>
<asrwt>0</asrwt>
<pdfrwt beam="1">  1       21 0.28783316E-01 0.37695273E+03</pdfrwt>
<pdfrwt beam="2">  1       21 0.29210988E-01 0.37695273E+03</pdfrwt>
<totfact> 0.12314290E+05</totfact>
</mgrwt>
</event>
<event>
 8    1  0.9123825E-006  0.3294557E+03  0.7546771E-02  0.1071378E+00
         21   -1    0    0  504  503  0.00000000000E+00  0.00000000000E+00  0.20827597284E+02  0.20827597284E+02  0.00000000000E+00 0. -1.
         21   -1    0    0  503  504 -0.00000000000E+00 -0.00000000000E+00 -0.13028514960E+04  0.13028514960E+04  0.00000000000E+00 0. -1.
         25    2    1    2    0    0 -0.26181596126E+02  0.10403001761E+03 -0.64600317673E+03  0.66667483741E+03  0.12501005544E+03 0.  0.
         25    2    1    2    0    0  0.26181596126E+02 -0.10403001761E+03 -0.63602072195E+03  0.65700425583E+03  0.12499805155E+03 0.  0.
          5    1    3    3  501    0 -0.10614767524E+02  0.10696398383E+03 -0.64017544261E+03  0.64915379876E+03  0.47000000000E+01 0. -1.
         -5    1    3    3    0  501 -0.15566828601E+02 -0.29339662244E+01 -0.58277341177E+01  0.17521038652E+02  0.47000000000E+01 0. -1.
          5    1    4    4  502    0 -0.26560806075E+02  0.75806860197E+00 -0.32844104553E+02  0.42507367493E+02  0.47000000000E+01 0.  1.
         -5    1    4    4    0  502  0.52742402201E+02 -0.10478808621E+03 -0.60317661740E+03  0.61449688834E+03  0.47000000000E+01 0.  1.
<mgrwt>
<rscale>  0 0.32945571E+03</rscale>
<asrwt>0</asrwt>
<pdfrwt beam="1">  1       21 0.32042454E-02 0.32945571E+03</pdfrwt>
<pdfrwt beam="2">  1       21 0.20043871E+00 0.32945571E+03</pdfrwt>
<totfact> 0.70827203E+04</totfact>
</mgrwt>
</event>
<event>
 8    1  0.9123825E-006  0.4192770E+03  0.7546771E-02  0.1037302E+00
         21   -1    0    0  504  503  0.00000000000E+00  0.00000000000E+00  0.92209864368E+02  0.92209864368E+02  0.00000000000E+00 0. -1.
         21   -1    0    0  503  504 -0.00000000000E+00 -0.00000000000E+00 -0.47661178691E+03  0.47661178691E+03  0.00000000000E+00 0. -1.
         25    2    1    2    0    0  0.10508634939E+03 -0.51155423262E+02 -0.27920998204E+02  0.17339235200E+03  0.12500122973E+03 0.  0.
         25    2    1    2    0    0 -0.10508634939E+03  0.51155423262E+02 -0.35648092434E+03  0.39542929928E+03  0.12500265260E+03 0.  0.
          5    1    3    3  501    0  0.11698124543E+03 -0.36753333826E+02 -0.59522577237E+02  0.13638345402E+03  0.47000000000E+01 0. -1.
         -5    1    3    3    0  501 -0.11894896043E+02 -0.14402089436E+02  0.31601579033E+02  0.37008897976E+02  0.47000000000E+01 0. -1.
          5    1    4    4  502    0 -0.26898790653E+02  0.56274833086E+02 -0.27603046591E+03  0.28302881459E+03  0.47000000000E+01 0.  1.
         -5    1    4    4    0  502 -0.78187558734E+02 -0.51194098236E+01 -0.80450458429E+02  0.11240048469E+03  0.47000000000E+01 0.  1.
<mgrwt>
<rscale>  0 0.41927704E+03</rscale>
<asrwt>0</asrwt>
<pdfrwt beam="1">  1       21 0.14186133E-01 0.41927704E+03</pdfrwt>
<pdfrwt beam="2">  1       21 0.73324890E-01 0.41927704E+03</pdfrwt>
<totfact> 0.67554436E+04</totfact>
</mgrwt>
</event>
<event>
 8    1  0.9123825E-006  0.3473819E+03  0.7546771E-02  0.1063695E+00
         21   -1    0    0  504  503  0.00000000000E+00  0.00000000000E+00  0.23330619794E+03  0.23330619794E+03  0.00000000000E+00 0. -1.
         21   -1    0    0  503  504 -0.00000000000E+00 -0.00000000000E+00 -0.12930877570E+03  0.12930877570E+03  0.00000000000E+00 0. -1.
         25    2    1    2    0    0 -0.75795178433E+02 -0.87129357370E+02  0.88288736667E+02  0.19171092110E+03  0.12498696835E+03 0.  0.
         25    2    1    2    0    0  0.75795178433E+02  0.87129357370E+02  0.15708685575E+02  0.17090405254E+03  0.12499999354E+03 0.  0.
          5    1    3    3  501    0 -0.10295901948E+01 -0.56348891577E+02  0.94876544603E+02  0.11045318625E+03  0.47000000000E+01 0.  1.
         -5    1    3    3    0  501 -0.74765588238E+02 -0.30780465793E+02 -0.65878079365E+01  0.81257734847E+02  0.47000000000E+01 0.  1.
          5    1    4    4  502    0  0.54306442786E+02 -0.21869207761E+02  0.10159864027E+01  0.58741588372E+02  0.47000000000E+01 0. -1.
         -5    1    4    4    0  502  0.21488735647E+02  0.10899856513E+03  0.14692699172E+02  0.11216246417E+03  0.47000000000E+01 0. -1.
<mgrwt>
<rscale>  0 0.34738186E+03</rscale>
<asrwt>0</asrwt>
<pdfrwt beam="1">  1       21 0.35893261E-01 0.34738186E+03</pdfrwt>
<pdfrwt beam="2">  1       21 0.19893658E-01 0.34738186E+03</pdfrwt>
<totfact> 0.16749561E+05</totfact>
</mgrwt>
</event>
<event>
 8    1  0.9123825E-006  0.3405635E+03  0.7546771E-02  0.1066556E+00
         21   -1    0    0  504  503  0.00000000000E+00  0.00000000000E+00  0.50996240129E+02  0.50996240129E+02  0.00000000000E+00 0.  1.
         21   -1    0    0  503  504 -0.00000000000E+00 -0.00000000000E+00 -0.56858844316E+03  0.56858844316E+03  0.00000000000E+00 0.  1.
         25    2    1    2    0    0  0.63099060036E+02  0.46376055752E+02 -0.10401164516E+03  0.18048939913E+03  0.12500308375E+03 0.  0.
         25    2    1    2    0    0 -0.63099060036E+02 -0.46376055752E+02 -0.41358055788E+03  0.43909528416E+03  0.12499424302E+03 0.  0.
          5    1    3    3  501    0 -0.15251125329E+02  0.36381712374E+02  0.10692473233E+02  0.41141764704E+02  0.47000000000E+01 0.  1.
         -5    1    3    3    0  501  0.78350185365E+02  0.99943433779E+01 -0.11470411839E+03  0.13934763443E+03  0.47000000000E+01 0.  1.
          5    1    4    4  502    0 -0.10083360310E+03 -0.26458697812E+02 -0.28191296772E+03  0.30060686880E+03  0.47000000000E+01 0. -1.
         -5    1    4    4    0  502  0.37734543068E+02 -0.19917357941E+02 -0.13166759016E+03  0.13848841535E+03  0.47000000000E+01 0. -1.
<mgrwt>
<rscale>  0 0.34056349E+03</rscale>
<asrwt>0</asrwt>
<pdfrwt beam="1">  1       21 0.78455750E-02 0.34056349E+03</pdfrwt>
<pdfrwt beam="2">  1       21 0.87475150E-01 0.34056349E+03</pdfrwt>
<totfact> 0.13311131E+05</totfact>
</mgrwt>
</event>
<event>
 8    1  0.9123825E-006  0.2555149E+03  0.7546771E-02  0.1109868E+00
         21   -1    0    0  504  503  0.00000000000E+00  0.00000000000E+00  0.11206075869E+04  0.11206075869E+04  0.00000000000E+00 0.  1.
         21   -1    0    0  503  504 -0.00000000000E+00 -0.00000000000E+00 -0.14565278054E+02  0.14565278054E+02  0.00000000000E+00 0.  1.
         25    2    1    2    0    0  0.13516017142E+02  0.30002185878E+00  0.45225887105E+03  0.46940925688E+03  0.12499676503E+03 0.  0.
         25    2    1    2    0    0 -0.13516017142E+02 -0.30002185878E+00  0.65378343779E+03  0.66576360807E+03  0.12500250225E+03 0.  0.
          5    1    3    3  501    0 -0.43329419994E+02 -0.30990687418E+02  0.12859877201E+03  0.13927525087E+03  0.47000000000E+01 0.  1.
         -5    1    3    3    0  501  0.56845437136E+02  0.31290709277E+02  0.32366009905E+03  0.33013400601E+03  0.47000000000E+01 0.  1.
          5    1    4    4  502    0  0.30165272123E+02 -0.30817409971E+02  0.51815158874E+03  0.51996424426E+03  0.47000000000E+01 0.  1.
         -5    1    4    4    0  502 -0.43681289265E+02  0.30517388113E+02  0.13563184905E+03  0.14579936380E+03  0.47000000000E+01 0.  1.
<mgrwt>
<rscale>  0 0.25551486E+03</rscale>
<asrwt>0</asrwt>
<pdfrwt beam="1">  1       21 0.17240110E+00 0.25551486E+03</pdfrwt>
<pdfrwt beam="2">  1       21 0.22408129E-02 0.25551486E+03</pdfrwt>
<totfact> 0.20456760E+05</totfact>
</mgrwt>
</event>
<event>
 8    1  0.9123825E-006  0.3344191E+03  0.7546771E-02  0.1069198E+00
         21   -1    0    0  504  503  0.00000000000E+00  0.00000000000E+00  0.57292072632E+02  0.57292072632E+02  0.00000000000E+00 0. -1.
         21   -1    0    0  503  504 -0.00000000000E+00 -0.00000000000E+00 -0.48800886970E+03  0.48800886970E+03  0.00000000000E+00 0. -1.
         25    2    1    2    0    0  0.10854005522E+02  0.11044219550E+03 -0.20901481416E+03  0.26763886031E+03  0.12501231552E+03 0.  0.
         25    2    1    2    0    0 -0.10854005522E+02 -0.11044219550E+03 -0.22170198291E+03  0.27766208201E+03  0.12501669721E+03 0.  0.
          5    1    3    3  501    0 -0.22868255313E+02  0.15445874423E+02 -0.14601541083E+03  0.14867455175E+03  0.47000000000E+01 0. -1.
         -5    1    3    3    0  501  0.33722260835E+02  0.94996321072E+02 -0.62999403329E+02  0.11896430857E+03  0.47000000000E+01 0. -1.
          5    1    4    4  502    0  0.48833867105E+02 -0.10161018694E+02 -0.59459114323E+02  0.77752615090E+02  0.47000000000E+01 0. -1.
         -5    1    4    4    0  502 -0.59687872627E+02 -0.10028117680E+03 -0.16224286858E+03  0.19990946692E+03  0.47000000000E+01 0. -1.
<mgrwt>
<rscale>  0 0.33441914E+03</rscale>
<asrwt>0</asrwt>
<pdfrwt beam="1">  1       21 0.88141649E-02 0.33441914E+03</pdfrwt>
<pdfrwt beam="2">  1       21 0.75078288E-01 0.33441914E+03</pdfrwt>
<totfact> 0.15424747E+05</totfact>
</mgrwt>
</event>
<event>
 8    1  0.9123825E-006  0.3401176E+03  0.7546771E-02  0.1066746E+00
         21   -1    0    0  504  503  0.00000000000E+00  0.00000000000E+00  0.12166113369E+04  0.12166113369E+04  0.00000000000E+00 0. -1.
         21   -1    0    0  503  504 -0.00000000000E+00 -0.00000000000E+00 -0.23770939720E+02  0.23770939720E+02  0.00000000000E+00 0. -1.
         25    2    1    2    0    0 -0.74731905469E+02 -0.80860460294E+02  0.47158788261E+03  0.50014387355E+03  0.12500196594E+03 0.  0.
         25    2    1    2    0    0  0.74731905469E+02  0.80860460294E+02  0.72125251455E+03  0.74023840305E+03  0.12499772748E+03 0.  0.
          5    1    3    3  501    0  0.46654711012E+01 -0.74019005258E+02  0.32332235483E+03  0.33175294256E+03  0.47000000000E+01 0.  1.
         -5    1    3    3    0  501 -0.79397376570E+02 -0.68414550359E+01  0.14826552778E+03  0.16839093099E+03  0.47000000000E+01 0.  1.
          5    1    4    4  502    0  0.83352950463E+02  0.10074547740E+03  0.46587487627E+03  0.48389963412E+03  0.47000000000E+01 0.  1.
         -5    1    4    4    0  502 -0.86210449939E+01 -0.19885017103E+02  0.25537763828E+03  0.25633876893E+03  0.47000000000E+01 0.  1.
<mgrwt>
<rscale>  0 0.34011760E+03</rscale>
<asrwt>0</asrwt>
<pdfrwt beam="1">  1       21 0.18717093E+00 0.34011760E+03</pdfrwt>
<pdfrwt beam="2">  1       21 0.36570686E-02 0.34011760E+03</pdfrwt>
<totfact> 0.69283660E+04</totfact>
</mgrwt>
</event>
<event>
 8    1  0.9123825E-006  0.3133451E+03  0.7546771E-02  0.1078753E+00
         21   -1    0    0  504  503  0.00000000000E+00  0.00000000000E+00  0.28635822017E+03  0.28635822017E+03  0.00000000000E+00 0.  1.
         21   -1    0    0  503  504 -0.00000000000E+00 -0.00000000000E+00 -0.85718818047E+02  0.85718818047E+02  0.00000000000E+00 0.  1.
         25    2    1    2    0    0 -0.79557482962E+02  0.36500658850E+02  0.58185220067E+02  0.16331705085E+03  0.12500099229E+03 0.  0.
         25    2    1    2    0    0  0.79557482962E+02 -0.36500658850E+02  0.14245418205E+03  0.20875998736E+03  0.12500338854E+03 0.  0.
          5    1    3    3  501    0 -0.50508740525E+02  0.57069075267E+02  0.88101162231E+02  0.11658437720E+03  0.47000000000E+01 0.  1.
         -5    1    3    3    0  501 -0.29048742437E+02 -0.20568416417E+02 -0.29915942164E+02  0.46732673652E+02  0.47000000000E+01 0.  1.
          5    1    4    4  502    0 -0.25778789032E+02  0.19765412283E+02  0.35901886738E+02  0.48644146185E+02  0.47000000000E+01 0. -1.
         -5    1    4    4    0  502  0.10533627199E+03 -0.56266071133E+02  0.10655229531E+03  0.16011584117E+03  0.47000000000E+01 0. -1.
<mgrwt>
<rscale>  0 0.31334510E+03</rscale>
<asrwt>0</asrwt>
<pdfrwt beam="1">  1       21 0.44055110E-01 0.31334510E+03</pdfrwt>
<pdfrwt beam="2">  1       21 0.13187511E-01 0.31334510E+03</pdfrwt>
<totfact> 0.23790650E+05</totfact>
</mgrwt>
</event>
<event>
 8    1  0.9123825E-006  0.3004194E+03  0.7546771E-02  0.1085031E+00
         21   -1    0    0  504  503  0.00000000000E+00  0.00000000000E+00  0.12553953961E+03  0.12553953961E+03  0.00000000000E+00 0.  1.
         21   -1    0    0  503  504 -0.00000000000E+00 -0.00000000000E+00 -0.17972784766E+03  0.17972784766E+03  0.00000000000E+00 0.  1.
         25    2    1    2    0    0  0.73966663311E+02  0.18128324240E+02  0.71914936516E+01  0.14654672685E+03  0.12499808858E+03 0.  0.
         25    2    1    2    0    0 -0.73966663311E+02 -0.18128324240E+02 -0.61379801703E+02  0.15872066041E+03  0.12500025825E+03 0.  0.
          5    1    3    3  501    0  0.41156333397E+02 -0.19132951833E+02  0.59033472035E+02  0.74612026142E+02  0.47000000000E+01 0.  1.
         -5    1    3    3    0  501  0.32810329914E+02  0.37261276073E+02 -0.51841978383E+02  0.71934700711E+02  0.47000000000E+01 0.  1.
          5    1    4    4  502    0 -0.48198155093E+02  0.51035305738E+02 -0.16681545922E+02  0.72305107430E+02  0.47000000000E+01 0.  1.
         -5    1    4    4    0  502 -0.25768508218E+02 -0.69163629978E+02 -0.44698255781E+02  0.86415552983E+02  0.47000000000E+01 0.  1.
<mgrwt>
<rscale>  0 0.30041938E+03</rscale>
<asrwt>0</asrwt>
<pdfrwt beam="1">  1       21 0.19313776E-01 0.30041938E+03</pdfrwt>
<pdfrwt beam="2">  1       21 0.27650438E-01 0.30041938E+03</pdfrwt>
<totfact> 0.30002147E+05</totfact>
</mgrwt>
</event>
<event>
 8    1  0.9123825E-006  0.2883029E+03  0.7546771E-02  0.1091239E+00
         21   -1    0    0  504  503  0.00000000000E+00  0.00000000000E+00  0.84242218183E+02  0.84242218183E+02  0.00000000000E+00 0. -1.
         21   -1    0    0  503  504 -0.00000000000E+00 -0.00000000000E+00 -0.24666547626E+03  0.24666547626E+03  0.00000000000E+00 0. -1.
         25    2    1    2    0    0 -0.25324370920E+02  0.47444645948E+02 -0.26614428103E+02  0.13865483018E+03  0.12499806381E+03 0.  0.
         25    2    1    2    0    0  0.25324370920E+02 -0.47444645948E+02 -0.13580882997E+03  0.19225286426E+03  0.12499922930E+03 0.  0.
          5    1    3    3  501    0 -0.59074549719E+02  0.37055214486E+01 -0.50819789000E+02  0.78155449380E+02  0.47000000000E+01 0. -1.
         -5    1    3    3    0  501  0.33750178799E+02  0.43739124499E+02  0.24205360898E+02  0.60499380799E+02  0.47000000000E+01 0. -1.
          5    1    4    4  502    0 -0.44915726963E+02 -0.38564224171E+02 -0.89890683242E+02  0.10773600535E+03  0.47000000000E+01 0.  1.
         -5    1    4    4    0  502  0.70240097883E+02 -0.88804217772E+01 -0.45918146732E+02  0.84516858915E+02  0.47000000000E+01 0.  1.
<mgrwt>
<rscale>  0 0.28830294E+03</rscale>
<asrwt>0</asrwt>
<pdfrwt beam="1">  1       21 0.12960341E-01 0.28830294E+03</pdfrwt>
<pdfrwt beam="2">  1       21 0.37948535E-01 0.28830294E+03</pdfrwt>
<totfact> 0.33498253E+05</totfact>
</mgrwt>
</event>
<event>
 8    1  0.9123825E-006  0.3673545E+03  0.7546771E-02  0.1055709E+00
         21   -1    0    0  504  503  0.00000000000E+00  0.00000000000E+00  0.56001531977E+03  0.56001531977E+03  0.00000000000E+00 0.  1.
         21   -1    0    0  503  504 -0.00000000000E+00 -0.00000000000E+00 -0.60243592747E+02  0.60243592747E+02  0.00000000000E+00 0.  1.
         25    2    1    2    0    0 -0.21256081172E+02 -0.11761914618E+03  0.35428261330E+03  0.39424349245E+03  0.12500270683E+03 0.  0.
         25    2    1    2    0    0  0.21256081172E+02  0.11761914618E+03  0.14548911372E+03  0.22601542006E+03  0.12501921196E+03 0.  0.
          5    1    3    3  501    0 -0.37761538126E+02  0.28504450445E+01  0.16398260463E+03  0.16836402056E+03  0.47000000000E+01 0.  1.
         -5    1    3    3    0  501  0.16505456954E+02 -0.12046959123E+03  0.19030000867E+03  0.22587947189E+03  0.47000000000E+01 0.  1.
          5    1    4    4  502    0  0.25189839745E+02  0.14196413126E+03  0.13843939164E+03  0.19993973529E+03  0.47000000000E+01 0. -1.
         -5    1    4    4    0  502 -0.39337585734E+01 -0.24344985076E+02  0.70497220746E+01  0.26075684769E+02  0.47000000000E+01 0. -1.
<mgrwt>
<rscale>  0 0.36735451E+03</rscale>
<asrwt>0</asrwt>
<pdfrwt beam="1">  1       21 0.86156200E-01 0.36735451E+03</pdfrwt>
<pdfrwt beam="2">  1       21 0.92682454E-02 0.36735451E+03</pdfrwt>
<totfact> 0.10202488E+05</totfact>
</mgrwt>
</event>
<event>
 8    1  0.9123825E-006  0.3400065E+03  0.7546771E-02  0.1066793E+00
         21   -1    0    0  504  503  0.00000000000E+00  0.00000000000E+00  0.48803185994E+03  0.48803185994E+03  0.00000000000E+00 0. -1.
         21   -1    0    0  503  504 -0.00000000000E+00 -0.00000000000E+00 -0.59219706835E+02  0.59219706835E+02  0.00000000000E+00 0. -1.
         25    2    1    2    0    0  0.29819163693E+02 -0.11025641730E+03  0.19010788988E+03  0.25458982645E+03  0.12501723824E+03 0.  0.
         25    2    1    2    0    0 -0.29819163693E+02  0.11025641730E+03  0.23870426322E+03  0.29266174032E+03  0.12500203553E+03 0.  0.
          5    1    3    3  501    0  0.69739836814E+02 -0.93245661311E+02  0.96490632215E+02  0.15129748939E+03  0.47000000000E+01 0. -1.
         -5    1    3    3    0  501 -0.39920673121E+02 -0.17010755993E+02  0.93617257664E+02  0.10329233706E+03  0.47000000000E+01 0. -1.
          5    1    4    4  502    0 -0.46072573416E+02  0.16060038982E+02  0.16424725600E+03  0.17140553660E+03  0.47000000000E+01 0.  1.
         -5    1    4    4    0  502  0.16253409723E+02  0.94196378321E+02  0.74457007221E+02  0.12125620372E+03  0.47000000000E+01 0.  1.
<mgrwt>
<rscale>  0 0.34000649E+03</rscale>
<asrwt>0</asrwt>
<pdfrwt beam="1">  1       21 0.75081822E-01 0.34000649E+03</pdfrwt>
<pdfrwt beam="2">  1       21 0.91107245E-02 0.34000649E+03</pdfrwt>
<totfact> 0.14524548E+05</totfact>
</mgrwt>
</event>
<event>
 8    1  0.9123825E-006  0.3211564E+03  0.7546771E-02  0.1075118E+00
         21   -1    0    0  504  503  0.00000000000E+00  0.00000000000E+00  0.51005397570E+03  0.51005397570E+03  0.00000000000E+00 0.  1.
         21   -1    0    0  503  504 -0.00000000000E+00 -0.00000000000E+00 -0.50554178613E+02  0.50554178613E+02  0.00000000000E+00 0.  1.
         25    2    1    2    0    0 -0.18861161285E+02  0.61551835799E+01  0.40230816566E+03  0.42174666090E+03  0.12499902456E+03 0.  0.
         25    2    1    2    0    0  0.18861161285E+02 -0.61551835799E+01  0.57191631429E+02  0.13886149341E+03  0.12497200469E+03 0.  0.
          5    1    3    3  501    0 -0.26817539964E+02 -0.50279948805E+02  0.11081503627E+03  0.12469689637E+03  0.47000000000E+01 0.  1.
         -5    1    3    3    0  501  0.79563786788E+01  0.56435132385E+02  0.29149312939E+03  0.29704976453E+03  0.47000000000E+01 0.  1.
          5    1    4    4  502    0 -0.25792988044E+00  0.31009157764E+02  0.83539051585E+02  0.89232827663E+02  0.47000000000E+01 0. -1.
         -5    1    4    4    0  502  0.19119091166E+02 -0.37164341344E+02 -0.26347420156E+02  0.49628665743E+02  0.47000000000E+01 0. -1.
<mgrwt>
<rscale>  0 0.32115641E+03</rscale>
<asrwt>0</asrwt>
<pdfrwt beam="1">  1       21 0.78469839E-01 0.32115641E+03</pdfrwt>
<pdfrwt beam="2">  1       21 0.77775663E-02 0.32115641E+03</pdfrwt>
<totfact> 0.17450368E+05</totfact>
</mgrwt>
</event>
<event>
 8    1  0.9123825E-006  0.4597804E+03  0.7546771E-02  0.1024845E+00
         21   -1    0    0  504  503  0.00000000000E+00  0.00000000000E+00  0.31313406837E+03  0.31313406837E+03  0.00000000000E+00 0. -1.
         21   -1    0    0  503  504 -0.00000000000E+00 -0.00000000000E+00 -0.16877594303E+03  0.16877594303E+03  0.00000000000E+00 0. -1.
         25    2    1    2    0    0 -0.12457146646E+03  0.42357912004E+02 -0.75714507346E+02  0.19664702463E+03  0.12500049083E+03 0.  0.
         25    2    1    2    0    0  0.12457146646E+03 -0.42357912004E+02  0.22007263269E+03  0.28526298677E+03  0.12502305785E+03 0.  0.
          5    1    3    3  501    0 -0.14641125999E+03  0.28819656735E+02 -0.81210701671E+02  0.16995322219E+03  0.47000000000E+01 0. -1.
         -5    1    3    3    0  501  0.21839793527E+02  0.13538255269E+02  0.54961943247E+01  0.26693802447E+02  0.47000000000E+01 0. -1.
          5    1    4    4  502    0  0.11951536521E+01 -0.51285301442E+02  0.33812609051E+02  0.61619745756E+02  0.47000000000E+01 0. -1.
         -5    1    4    4    0  502  0.12337631281E+03  0.89273894380E+01  0.18626002364E+03  0.22364324101E+03  0.47000000000E+01 0. -1.
<mgrwt>
<rscale>  0 0.45978037E+03</rscale>
<asrwt>0</asrwt>
<pdfrwt beam="1">  1       21 0.48174472E-01 0.45978037E+03</pdfrwt>
<pdfrwt beam="2">  1       21 0.25965530E-01 0.45978037E+03</pdfrwt>
<totfact> 0.53367428E+04</totfact>
</mgrwt>
</event>
<event>
 8    1  0.9123825E-006  0.3634995E+03  0.7546771E-02  0.1057207E+00
         21   -1    0    0  504  503  0.00000000000E+00  0.00000000000E+00  0.37456561330E+03  0.37456561330E+03  0.00000000000E+00 0.  1.
         21   -1    0    0  503  504 -0.00000000000E+00 -0.00000000000E+00 -0.88190094164E+02  0.88190094164E+02  0.00000000000E+00 0.  1.
         25    2    1    2    0    0 -0.51447234078E+01 -0.85293965679E+02  0.15200154723E+02  0.15217223628E+03  0.12499526403E+03 0.  0.
         25    2    1    2    0    0  0.51447234078E+01  0.85293965679E+02  0.27117536441E+03  0.31058347118E+03  0.12499794218E+03 0.  0.
          5    1    3    3  501    0 -0.81152022912E+01 -0.41602722731E+01  0.58943787861E+02  0.59829963237E+02  0.47000000000E+01 0.  1.
         -5    1    3    3    0  501  0.29704788834E+01 -0.81133693405E+02 -0.43743633137E+02  0.92342273041E+02  0.47000000000E+01 0.  1.
          5    1    4    4  502    0  0.39290748482E+02  0.95993088185E+02  0.24472002295E+03  0.26583531655E+03  0.47000000000E+01 0. -1.
         -5    1    4    4    0  502 -0.34146025074E+02 -0.10699122506E+02  0.26455341463E+02  0.44748154629E+02  0.47000000000E+01 0. -1.
<mgrwt>
<rscale>  0 0.36349953E+03</rscale>
<asrwt>0</asrwt>
<pdfrwt beam="1">  1       21 0.57625478E-01 0.36349953E+03</pdfrwt>
<pdfrwt beam="2">  1       21 0.13567707E-01 0.36349953E+03</pdfrwt>
<totfact> 0.12659283E+05</totfact>
</mgrwt>
</event>
<event>
 8    1  0.9123825E-006  0.3277527E+03  0.7546771E-02  0.1072136E+00
         21   -1    0    0  504  503  0.00000000000E+00  0.00000000000E+00  0.13758415924E+02  0.13758415924E+02  0.00000000000E+00 0.  1.
         21   -1    0    0  503  504 -0.00000000000E+00 -0.00000000000E+00 -0.19519295311E+04  0.19519295311E+04  0.00000000000E+00 0.  1.
         25    2    1    2    0    0 -0.11784573215E+02 -0.56269641994E+02 -0.15029747782E+04  0.15092600096E+04  0.12500977577E+03 0.  0.
         25    2    1    2    0    0  0.11784573215E+02  0.56269641994E+02 -0.43519633707E+03  0.45642793747E+03  0.12500184610E+03 0.  0.
          5    1    3    3  501    0 -0.80977124215E+01 -0.37095488825E+02 -0.14710254163E+04  0.14715228553E+04  0.47000000000E+01 0.  1.
         -5    1    3    3    0  501 -0.36868607938E+01 -0.19174153169E+02 -0.31949361815E+02  0.37737154273E+02  0.47000000000E+01 0.  1.
          5    1    4    4  502    0 -0.20764038280E+02 -0.64333045761E+01 -0.32295876135E+03  0.32372362322E+03  0.47000000000E+01 0. -1.
         -5    1    4    4    0  502  0.32548611495E+02  0.62702946570E+02 -0.11223757572E+03  0.13270431426E+03  0.47000000000E+01 0. -1.
<mgrwt>
<rscale>  0 0.32775270E+03</rscale>
<asrwt>0</asrwt>
<pdfrwt beam="1">  1       21 0.21166788E-02 0.32775270E+03</pdfrwt>
<pdfrwt beam="2">  1       21 0.30029694E+00 0.32775270E+03</pdfrwt>
<totfact> 0.34643460E+04</totfact>
</mgrwt>
</event>
<event>
 8    1  0.9123825E-006  0.3427819E+03  0.7546771E-02  0.1065617E+00
         21   -1    0    0  504  503  0.00000000000E+00  0.00000000000E+00  0.60834262514E+03  0.60834262514E+03  0.00000000000E+00 0. -1.
         21   -1    0    0  503  504 -0.00000000000E+00 -0.00000000000E+00 -0.48286712856E+02  0.48286712856E+02  0.00000000000E+00 0. -1.
         25    2    1    2    0    0 -0.11769462568E+02 -0.11027038869E+03  0.35307034065E+03  0.39061618750E+03  0.12499704644E+03 0.  0.
         25    2    1    2    0    0  0.11769462568E+02  0.11027038869E+03  0.20698557163E+03  0.26601315050E+03  0.12498756138E+03 0.  0.
          5    1    3    3  501    0 -0.37165318294E+02 -0.12073545371E+03  0.21207269957E+03  0.24689113101E+03  0.47000000000E+01 0.  1.
         -5    1    3    3    0  501  0.25395855726E+02  0.10465065020E+02  0.14099764108E+03  0.14372505649E+03  0.47000000000E+01 0.  1.
          5    1    4    4  502    0 -0.10245976069E+02  0.31857492161E+02  0.17524850189E+03  0.17847690956E+03  0.47000000000E+01 0.  1.
         -5    1    4    4    0  502  0.22015438637E+02  0.78412896532E+02  0.31737069745E+02  0.87536240934E+02  0.47000000000E+01 0.  1.
<mgrwt>
<rscale>  0 0.34278195E+03</rscale>
<asrwt>0</asrwt>
<pdfrwt beam="1">  1       21 0.93591168E-01 0.34278195E+03</pdfrwt>
<pdfrwt beam="2">  1       21 0.74287255E-02 0.34278195E+03</pdfrwt>
<totfact> 0.12489813E+05</totfact>
</mgrwt>
</event>
<event>
 8    1  0.9123825E-006  0.2897181E+03  0.7546771E-02  0.1090496E+00
         21   -1    0    0  504  503  0.00000000000E+00  0.00000000000E+00  0.93361971394E+03  0.93361971394E+03  0.00000000000E+00 0.  1.
         21   -1    0    0  503  504 -0.00000000000E+00 -0.00000000000E+00 -0.22476113372E+02  0.22476113372E+02  0.00000000000E+00 0.  1.
         25    2    1    2    0    0  0.16319203308E+02 -0.64168400571E+02  0.55864947788E+03  0.57627933531E+03  0.12499893255E+03 0.  0.
         25    2    1    2    0    0 -0.16319203308E+02  0.64168400571E+02  0.35249412269E+03  0.37981649201E+03  0.12499824415E+03 0.  0.
          5    1    3    3  501    0 -0.44535375815E+02 -0.54145522856E+02  0.19209177624E+03  0.20453967303E+03  0.47000000000E+01 0.  1.
         -5    1    3    3    0  501  0.60854579123E+02 -0.10022877715E+02  0.36655770164E+03  0.37173966227E+03  0.47000000000E+01 0.  1.
          5    1    4    4  502    0  0.51787849295E+02  0.49142198861E+02  0.17767208724E+03  0.19153693542E+03  0.47000000000E+01 0. -1.
         -5    1    4    4    0  502 -0.68107052603E+02  0.15026201710E+02  0.17482203545E+03  0.18827955659E+03  0.47000000000E+01 0. -1.
<mgrwt>
<rscale>  0 0.28971809E+03</rscale>
<asrwt>0</asrwt>
<pdfrwt beam="1">  1       21 0.14363377E+00 0.28971809E+03</pdfrwt>
<pdfrwt beam="2">  1       21 0.34578643E-02 0.28971809E+03</pdfrwt>
<totfact> 0.16150430E+05</totfact>
</mgrwt>
</event>
<event>
 8    1  0.9123825E-006  0.2631518E+03  0.7546771E-02  0.1105264E+00
         21   -1    0    0  504  503  0.00000000000E+00  0.00000000000E+00  0.69157589185E+02  0.69157589185E+02  0.00000000000E+00 0. -1.
         21   -1    0    0  503  504 -0.00000000000E+00 -0.00000000000E+00 -0.25033004192E+03  0.25033004192E+03  0.00000000000E+00 0. -1.
         25    2    1    2    0    0 -0.19887338039E+02  0.46092728666E+01 -0.47312724010E+02  0.13521647892E+03  0.12501300216E+03 0.  0.
         25    2    1    2    0    0  0.19887338039E+02 -0.46092728666E+01 -0.13385972872E+03  0.18427115218E+03  0.12498271457E+03 0.  0.
          5    1    3    3  501    0 -0.38667814334E+02 -0.52528087125E+02 -0.32836013166E+02  0.73175771694E+02  0.47000000000E+01 0. -1.
         -5    1    3    3    0  501  0.18780476295E+02  0.57137359992E+02 -0.14476710844E+02  0.62040707230E+02  0.47000000000E+01 0. -1.
          5    1    4    4  502    0  0.67247913525E+02 -0.17776275143E+02 -0.46123280796E+02  0.83592612489E+02  0.47000000000E+01 0. -1.
         -5    1    4    4    0  502 -0.47360575486E+02  0.13167002276E+02 -0.87736447927E+02  0.10067853969E+03  0.47000000000E+01 0. -1.
<mgrwt>
<rscale>  0 0.26315184E+03</rscale>
<asrwt>0</asrwt>
<pdfrwt beam="1">  1       21 0.10639629E-01 0.26315184E+03</pdfrwt>
<pdfrwt beam="2">  1       21 0.38512314E-01 0.26315184E+03</pdfrwt>
<totfact> 0.46602899E+05</totfact>
</mgrwt>
</event>
<event>
 8    1  0.9123825E-006  0.3437658E+03  0.7546771E-02  0.1065203E+00
         21   -1    0    0  504  503  0.00000000000E+00  0.00000000000E+00  0.16131696223E+04  0.16131696223E+04  0.00000000000E+00 0. -1.
         21   -1    0    0  503  504 -0.00000000000E+00 -0.00000000000E+00 -0.18314083676E+02  0.18314083676E+02  0.00000000000E+00 0. -1.
         25    2    1    2    0    0 -0.11660676411E+03 -0.64388564877E+00  0.88248344963E+03  0.89888791043E+03  0.12499953843E+03 0.  0.
         25    2    1    2    0    0  0.11660676411E+03  0.64388564877E+00  0.71237208901E+03  0.73259579557E+03  0.12500021784E+03 0.  0.
          5    1    3    3  501    0 -0.53835401090E+02 -0.35564791760E+02  0.69589001633E+03  0.69889062781E+03  0.47000000000E+01 0.  1.
         -5    1    3    3    0  501 -0.62771363019E+02  0.34920906111E+02  0.18659343331E+03  0.19999728261E+03  0.47000000000E+01 0.  1.
          5    1    4    4  502    0  0.48289036219E+02  0.42490638649E+02  0.13433587139E+03  0.14901510573E+03  0.47000000000E+01 0. -1.
         -5    1    4    4    0  502  0.68317727891E+02 -0.41846753001E+02  0.57803621762E+03  0.58358068985E+03  0.47000000000E+01 0. -1.
<mgrwt>
<rscale>  0 0.34376575E+03</rscale>
<asrwt>0</asrwt>
<pdfrwt beam="1">  1       21 0.24817983E+00 0.34376575E+03</pdfrwt>
<pdfrwt beam="2">  1       21 0.28175526E-02 0.34376575E+03</pdfrwt>
<totfact> 0.43769073E+04</totfact>
</mgrwt>
</event>
<event>
 8    1  0.9123825E-006  0.3489271E+03  0.7546771E-02  0.1063056E+00
         21   -1    0    0  504  503  0.00000000000E+00  0.00000000000E+00  0.18845092773E+03  0.18845092773E+03  0.00000000000E+00 0. -1.
         21   -1    0    0  503  504 -0.00000000000E+00 -0.00000000000E+00 -0.16151431772E+03  0.16151431772E+03  0.00000000000E+00 0. -1.
         25    2    1    2    0    0 -0.54725064913E+02 -0.76951922378E+02 -0.63545519375E+02  0.16905602570E+03  0.12500190281E+03 0.  0.
         25    2    1    2    0    0  0.54725064913E+02  0.76951922378E+02  0.90482129386E+02  0.18090921975E+03  0.12499879585E+03 0.  0.
          5    1    3    3  501    0 -0.42378441913E+02 -0.30070182181E+02  0.32427093993E+02  0.61430893044E+02  0.47000000000E+01 0. -1.
         -5    1    3    3    0  501 -0.12346623000E+02 -0.46881740197E+02 -0.95972613368E+02  0.10762513266E+03  0.47000000000E+01 0. -1.
          5    1    4    4  502    0 -0.50693749814E+00 -0.18110361921E+02 -0.18297888478E+02  0.26175273013E+02  0.47000000000E+01 0. -1.
         -5    1    4    4    0  502  0.55232002411E+02  0.95062284299E+02  0.10878001786E+03  0.15473394674E+03  0.47000000000E+01 0. -1.
<mgrwt>
<rscale>  0 0.34892706E+03</rscale>
<asrwt>0</asrwt>
<pdfrwt beam="1">  1       21 0.28992451E-01 0.34892706E+03</pdfrwt>
<pdfrwt beam="2">  1       21 0.24848356E-01 0.34892706E+03</pdfrwt>
<totfact> 0.16747019E+05</totfact>
</mgrwt>
</event>
<event>
 8    1  0.9123825E-006  0.2725452E+03  0.7546771E-02  0.1099832E+00
         21   -1    0    0  504  503  0.00000000000E+00  0.00000000000E+00  0.11502149833E+04  0.11502149833E+04  0.00000000000E+00 0.  1.
         21   -1    0    0  503  504 -0.00000000000E+00 -0.00000000000E+00 -0.16144998302E+02  0.16144998302E+02  0.00000000000E+00 0.  1.
         25    2    1    2    0    0 -0.13804892386E+02  0.47158907829E+02  0.46840296797E+03  0.48727800157E+03  0.12499589102E+03 0.  0.
         25    2    1    2    0    0  0.13804892386E+02 -0.47158907829E+02  0.66566701706E+03  0.67908198006E+03  0.12500088161E+03 0.  0.
          5    1    3    3  501    0 -0.32998273211E+02 -0.30630478760E+02  0.93522485382E+02  0.10390215366E+03  0.47000000000E+01 0.  1.
         -5    1    3    3    0  501  0.19193380825E+02  0.77789386590E+02  0.37488048259E+03  0.38337584791E+03  0.47000000000E+01 0.  1.
          5    1    4    4  502    0 -0.43246311275E+02 -0.51504097949E+02  0.48087346788E+03  0.48557625319E+03  0.47000000000E+01 0. -1.
         -5    1    4    4    0  502  0.57051203661E+02  0.43451901200E+01  0.18479354917E+03  0.19350572687E+03  0.47000000000E+01 0. -1.
<mgrwt>
<rscale>  0 0.27254518E+03</rscale>
<asrwt>0</asrwt>
<pdfrwt beam="1">  1       21 0.17695609E+00 0.27254518E+03</pdfrwt>
<pdfrwt beam="2">  1       21 0.24838468E-02 0.27254518E+03</pdfrwt>
<totfact> 0.15936615E+05</totfact>
</mgrwt>
</event>
<event>
 8    1  0.9123825E-006  0.2831138E+03  0.7546771E-02  0.1094000E+00
         21   -1    0    0  504  503  0.00000000000E+00  0.00000000000E+00  0.34153877375E+02  0.34153877375E+02  0.00000000000E+00 0. -1.
         21   -1    0    0  503  504 -0.00000000000E+00 -0.00000000000E+00 -0.58670815274E+03  0.58670815274E+03  0.00000000000E+00 0. -1.
         25    2    1    2    0    0  0.15002318986E+02 -0.41208140704E+02 -0.38577456346E+03  0.40787349610E+03  0.12496237265E+03 0.  0.
         25    2    1    2    0    0 -0.15002318986E+02  0.41208140704E+02 -0.16677971191E+03  0.21298853401E+03  0.12500185151E+03 0.  0.
          5    1    3    3  501    0 -0.39693149524E+01 -0.41763147023E+02 -0.30543745048E+02  0.52104954391E+02  0.47000000000E+01 0.  1.
         -5    1    3    3    0  501  0.18971633939E+02  0.55500631932E+00 -0.35523081841E+03  0.35576854171E+03  0.47000000000E+01 0.  1.
          5    1    4    4  502    0 -0.44208591855E+02 -0.16466335255E+02 -0.18016038689E+02  0.50716934456E+02  0.47000000000E+01 0. -1.
         -5    1    4    4    0  502  0.29206272869E+02  0.57674475959E+02 -0.14876367322E+03  0.16227159955E+03  0.47000000000E+01 0. -1.
<mgrwt>
<rscale>  0 0.28311382E+03</rscale>
<asrwt>0</asrwt>
<pdfrwt beam="1">  1       21 0.52544425E-02 0.28311382E+03</pdfrwt>
<pdfrwt beam="2">  1       21 0.90262795E-01 0.28311382E+03</pdfrwt>
<totfact> 0.25156078E+05</totfact>
</mgrwt>
</event>
<event>
 8    1  0.9123825E-006  0.2798287E+03  0.7546771E-02  0.1095783E+00
         21   -1    0    0  504  503  0.00000000000E+00  0.00000000000E+00  0.68081778504E+02  0.68081778504E+02  0.00000000000E+00 0. -1.
         21   -1    0    0  503  504 -0.00000000000E+00 -0.00000000000E+00 -0.28753693982E+03  0.28753693982E+03  0.00000000000E+00 0. -1.
         25    2    1    2    0    0 -0.20761012528E+01  0.62713868949E+02 -0.11439911376E+03  0.18069160215E+03  0.12499983322E+03 0.  0.
         25    2    1    2    0    0  0.20761012528E+01 -0.62713868949E+02 -0.10505604756E+03  0.17492711617E+03  0.12500153315E+03 0.  0.
          5    1    3    3  501    0  0.41680561895E+02 -0.18588516122E+02 -0.25767908581E+02  0.52620122426E+02  0.47000000000E+01 0. -1.
         -5    1    3    3    0  501 -0.43756663148E+02  0.81302385071E+02 -0.88631205178E+02  0.12807147973E+03  0.47000000000E+01 0. -1.
          5    1    4    4  502    0  0.20414075762E+02 -0.17987684272E+02  0.24282886187E+02  0.36770094320E+02  0.47000000000E+01 0. -1.
         -5    1    4    4    0  502 -0.18337974509E+02 -0.44726184677E+02 -0.12933893375E+03  0.13815702185E+03  0.47000000000E+01 0. -1.
<mgrwt>
<rscale>  0 0.27982871E+03</rscale>
<asrwt>0</asrwt>
<pdfrwt beam="1">  1       21 0.10474120E-01 0.27982871E+03</pdfrwt>
<pdfrwt beam="2">  1       21 0.44236453E-01 0.27982871E+03</pdfrwt>
<totfact> 0.35983194E+05</totfact>
</mgrwt>
</event>
<event>
 8    1  0.9123825E-006  0.2767635E+03  0.7546771E-02  0.1097470E+00
         21   -1    0    0  504  503  0.00000000000E+00  0.00000000000E+00  0.64167058590E+02  0.64167058590E+02  0.00000000000E+00 0. -1.
         21   -1    0    0  503  504 -0.00000000000E+00 -0.00000000000E+00 -0.29843204687E+03  0.29843204687E+03  0.00000000000E+00 0. -1.
         25    2    1    2    0    0 -0.40423219617E+02  0.40887449588E+02 -0.13648681034E+03  0.19380715094E+03  0.12500696837E+03 0.  0.
         25    2    1    2    0    0  0.40423219617E+02 -0.40887449588E+02 -0.97778177937E+02  0.16879195451E+03  0.12499732641E+03 0.  0.
          5    1    3    3  501    0  0.10075936054E+02 -0.37743120273E+02 -0.19233492982E+02  0.43795945790E+02  0.47000000000E+01 0. -1.
         -5    1    3    3    0  501 -0.50499155671E+02  0.78630569862E+02 -0.11725331736E+03  0.15001120515E+03  0.47000000000E+01 0. -1.
          5    1    4    4  502    0  0.55212893952E+02 -0.76265132827E+02 -0.48015777738E+02  0.10579432431E+03  0.47000000000E+01 0.  1.
         -5    1    4    4    0  502 -0.14789674335E+02  0.35377683239E+02 -0.49762400199E+02  0.62997630208E+02  0.47000000000E+01 0.  1.
<mgrwt>
<rscale>  0 0.27676348E+03</rscale>
<asrwt>0</asrwt>
<pdfrwt beam="1">  1       21 0.98718549E-02 0.27676348E+03</pdfrwt>
<pdfrwt beam="2">  1       21 0.45912624E-01 0.27676348E+03</pdfrwt>
<totfact> 0.37046162E+05</totfact>
</mgrwt>
</event>
<event>
 8    1  0.9123825E-006  0.2707061E+03  0.7546771E-02  0.1100876E+00
         21   -1    0    0  504  503  0.00000000000E+00  0.00000000000E+00  0.38366497686E+03  0.38366497686E+03  0.00000000000E+00 0.  1.
         21   -1    0    0  503  504 -0.00000000000E+00 -0.00000000000E+00 -0.47751156914E+02  0.47751156914E+02  0.00000000000E+00 0.  1.
         25    2    1    2    0    0  0.13210674413E+02 -0.50220058558E+02  0.16892090685E+03  0.21645358517E+03  0.12498522138E+03 0.  0.
         25    2    1    2    0    0 -0.13210674413E+02  0.50220058558E+02  0.16699291310E+03  0.21496254861E+03  0.12500275228E+03 0.  0.
          5    1    3    3  501    0  0.52981510570E+02 -0.43140442850E+02  0.35838079807E+02  0.77295512391E+02  0.47000000000E+01 0.  1.
         -5    1    3    3    0  501 -0.39770836157E+02 -0.70796157083E+01  0.13308282704E+03  0.13915807278E+03  0.47000000000E+01 0.  1.
          5    1    4    4  502    0  0.34811314540E+02 -0.11778077002E+02  0.84176524339E+01  0.37993388772E+02  0.47000000000E+01 0. -1.
         -5    1    4    4    0  502 -0.48021988953E+02  0.61998135561E+02  0.15857526067E+03  0.17696915983E+03  0.47000000000E+01 0. -1.
<mgrwt>
<rscale>  0 0.27070609E+03</rscale>
<asrwt>0</asrwt>
<pdfrwt beam="1">  1       21 0.59025379E-01 0.27070609E+03</pdfrwt>
<pdfrwt beam="2">  1       21 0.73463321E-02 0.27070609E+03</pdfrwt>
<totfact> 0.36675211E+05</totfact>
</mgrwt>
</event>
<event>
 8    1  0.9123825E-006  0.3728932E+03  0.7546771E-02  0.1053592E+00
         21   -1    0    0  504  503  0.00000000000E+00  0.00000000000E+00  0.21131657946E+02  0.21131657946E+02  0.00000000000E+00 0.  1.
         21   -1    0    0  503  504 -0.00000000000E+00 -0.00000000000E+00 -0.16450357745E+04  0.16450357745E+04  0.00000000000E+00 0.  1.
         25    2    1    2    0    0 -0.11845377005E+03 -0.69906458664E+02 -0.74563840389E+03  0.76845185800E+03  0.12499368027E+03 0.  0.
         25    2    1    2    0    0  0.11845377005E+03  0.69906458664E+02 -0.87826571263E+03  0.89771557441E+03  0.12499752779E+03 0.  0.
          5    1    3    3  501    0 -0.48788373593E+02  0.34604193095E+02 -0.25633342756E+03  0.26326160309E+03  0.47000000000E+01 0. -1.
         -5    1    3    3    0  501 -0.69665396462E+02 -0.10451065176E+03 -0.48930497632E+03  0.50519025491E+03  0.47000000000E+01 0. -1.
          5    1    4    4  502    0 -0.12596427343E+02  0.34328732405E+02 -0.36186801247E+03  0.36374122711E+03  0.47000000000E+01 0. -1.
         -5    1    4    4    0  502  0.13105019740E+03  0.35577726259E+02 -0.51639770016E+03  0.53397434730E+03  0.47000000000E+01 0. -1.
<mgrwt>
<rscale>  0 0.37289319E+03</rscale>
<asrwt>0</asrwt>
<pdfrwt beam="1">  1       21 0.32510237E-02 0.37289319E+03</pdfrwt>
<pdfrwt beam="2">  1       21 0.25308247E+00 0.37289319E+03</pdfrwt>
<totfact> 0.31749783E+04</totfact>
</mgrwt>
</event>
<event>
 8    1  0.9123825E-006  0.2677173E+03  0.7546771E-02  0.1102593E+00
         21   -1    0    0  504  503  0.00000000000E+00  0.00000000000E+00  0.44418104174E+02  0.44418104174E+02  0.00000000000E+00 0. -1.
         21   -1    0    0  503  504 -0.00000000000E+00 -0.00000000000E+00 -0.40339714361E+03  0.40339714361E+03  0.00000000000E+00 0. -1.
         25    2    1    2    0    0 -0.33336197509E+02 -0.33869036866E+02 -0.16991105666E+03  0.21622913618E+03  0.12500743351E+03 0.  0.
         25    2    1    2    0    0  0.33336197509E+02  0.33869036866E+02 -0.18906798278E+03  0.23158611161E+03  0.12500804476E+03 0.  0.
          5    1    3    3  501    0  0.14167722672E+02 -0.40280045687E+02 -0.36266151874E+01  0.43109729574E+02  0.47000000000E+01 0. -1.
         -5    1    3    3    0  501 -0.47503920181E+02  0.64110088209E+01 -0.16628444147E+03  0.17311940660E+03  0.47000000000E+01 0. -1.
          5    1    4    4  502    0 -0.16659261587E+02 -0.27125418826E+02 -0.12728998791E+03  0.13129413683E+03  0.47000000000E+01 0. -1.
         -5    1    4    4    0  502  0.49995459097E+02  0.60994455692E+02 -0.61777994867E+02  0.10029197478E+03  0.47000000000E+01 0. -1.
<mgrwt>
<rscale>  0 0.26771729E+03</rscale>
<asrwt>0</asrwt>
<pdfrwt beam="1">  1       21 0.68335545E-02 0.26771729E+03</pdfrwt>
<pdfrwt beam="2">  1       21 0.62061099E-01 0.26771729E+03</pdfrwt>
<totfact> 0.37335057E+05</totfact>
</mgrwt>
</event>
<event>
 8    1  0.9123825E-006  0.4230746E+03  0.7546771E-02  0.1036070E+00
         21   -1    0    0  504  503  0.00000000000E+00  0.00000000000E+00  0.62068275969E+03  0.62068275969E+03  0.00000000000E+00 0.  1.
         21   -1    0    0  503  504 -0.00000000000E+00 -0.00000000000E+00 -0.72094863693E+02  0.72094863693E+02  0.00000000000E+00 0.  1.
         25    2    1    2    0    0  0.16459495782E+03 -0.76358264912E+01  0.34700572442E+03  0.40396924669E+03  0.12501349329E+03 0.  0.
         25    2    1    2    0    0 -0.16459495782E+03  0.76358264912E+01  0.20158217158E+03  0.28880837669E+03  0.12500040225E+03 0.  0.
          5    1    3    3  501    0  0.13918891206E+03  0.39652865530E+02  0.29716208657E+03  0.33056512018E+03  0.47000000000E+01 0.  1.
         -5    1    3    3    0  501  0.25406045762E+02 -0.47288692021E+02  0.49843637844E+02  0.73404126504E+02  0.47000000000E+01 0.  1.
          5    1    4    4  502    0 -0.67191210780E+02  0.10866557450E+02  0.17477883403E+03  0.18762321738E+03  0.47000000000E+01 0.  1.
         -5    1    4    4    0  502 -0.97403747044E+02 -0.32307309587E+01  0.26803337549E+02  0.10118515931E+03  0.47000000000E+01 0.  1.
<mgrwt>
<rscale>  0 0.42307465E+03</rscale>
<asrwt>0</asrwt>
<pdfrwt beam="1">  1       21 0.95489652E-01 0.42307465E+03</pdfrwt>
<pdfrwt beam="2">  1       21 0.11091518E-01 0.42307465E+03</pdfrwt>
<totfact> 0.57186211E+04</totfact>
</mgrwt>
</event>
<event>
 8    1  0.9123825E-006  0.3717405E+03  0.7546771E-02  0.1054029E+00
         21   -1    0    0  504  503  0.00000000000E+00  0.00000000000E+00  0.28265447556E+03  0.28265447556E+03  0.00000000000E+00 0. -1.
         21   -1    0    0  503  504 -0.00000000000E+00 -0.00000000000E+00 -0.12222609526E+03  0.12222609526E+03  0.00000000000E+00 0. -1.
         25    2    1    2    0    0  0.44220438023E+02  0.65694133020E+02  0.20271425384E+03  0.25097894505E+03  0.12500478349E+03 0.  0.
         25    2    1    2    0    0 -0.44220438023E+02 -0.65694133020E+02 -0.42285873542E+02  0.15390162577E+03  0.12500579612E+03 0.  0.
          5    1    3    3  501    0 -0.70827481783E+00  0.83408273956E+02  0.67765841577E+02  0.10757202751E+03  0.47000000000E+01 0.  1.
         -5    1    3    3    0  501  0.44928712841E+02 -0.17714140936E+02  0.13494841226E+03  0.14340691754E+03  0.47000000000E+01 0.  1.
          5    1    4    4  502    0 -0.44577882842E+02  0.27423205442E+02 -0.27235911212E+01  0.52618701847E+02  0.47000000000E+01 0.  1.
         -5    1    4    4    0  502  0.35744481881E+00 -0.93117338462E+02 -0.39562282421E+02  0.10128292393E+03  0.47000000000E+01 0.  1.
<mgrwt>
<rscale>  0 0.37174052E+03</rscale>
<asrwt>0</asrwt>
<pdfrwt beam="1">  1       21 0.43485304E-01 0.37174052E+03</pdfrwt>
<pdfrwt beam="2">  1       21 0.18804015E-01 0.37174052E+03</pdfrwt>
<totfact> 0.12515846E+05</totfact>
</mgrwt>
</event>
<event>
 8    1  0.9123825E-006  0.2793266E+03  0.7546771E-02  0.1096057E+00
         21   -1    0    0  504  503  0.00000000000E+00  0.00000000000E+00  0.85454712695E+03  0.85454712695E+03  0.00000000000E+00 0. -1.
         21   -1    0    0  503  504 -0.00000000000E+00 -0.00000000000E+00 -0.22825934257E+02  0.22825934257E+02  0.00000000000E+00 0. -1.
         25    2    1    2    0    0  0.51930587993E+02 -0.34448077081E+02  0.41671514938E+03  0.43949646061E+03  0.12498866821E+03 0.  0.
         25    2    1    2    0    0 -0.51930587993E+02  0.34448077081E+02  0.41500604331E+03  0.43787660060E+03  0.12498978111E+03 0.  0.
          5    1    3    3  501    0  0.44109443234E+01  0.10918014319E+01  0.35009892413E+03  0.35015995650E+03  0.47000000000E+01 0.  1.
         -5    1    3    3    0  501  0.47519643670E+02 -0.35539878513E+02  0.66616225249E+02  0.89336504105E+02  0.47000000000E+01 0.  1.
          5    1    4    4  502    0 -0.25639624131E+02 -0.35556465264E+02  0.28020204017E+03  0.28364930083E+03  0.47000000000E+01 0. -1.
         -5    1    4    4    0  502 -0.26290963863E+02  0.70004542346E+02  0.13480400314E+03  0.15422729977E+03  0.47000000000E+01 0. -1.
<mgrwt>
<rscale>  0 0.27932659E+03</rscale>
<asrwt>0</asrwt>
<pdfrwt beam="1">  1       21 0.13146876E+00 0.27932659E+03</pdfrwt>
<pdfrwt beam="2">  1       21 0.35116829E-02 0.27932659E+03</pdfrwt>
<totfact> 0.19871185E+05</totfact>
</mgrwt>
</event>
<event>
 8    1  0.9123825E-006  0.3532267E+03  0.7546771E-02  0.1061298E+00
         21   -1    0    0  504  503  0.00000000000E+00  0.00000000000E+00  0.22686289817E+02  0.22686289817E+02  0.00000000000E+00 0.  1.
         21   -1    0    0  503  504 -0.00000000000E+00 -0.00000000000E+00 -0.13749397637E+04  0.13749397637E+04  0.00000000000E+00 0.  1.
         25    2    1    2    0    0 -0.27521678148E+02  0.11687138862E+03 -0.54184967101E+03  0.56889486808E+03  0.12499576279E+03 0.  0.
         25    2    1    2    0    0  0.27521678148E+02 -0.11687138862E+03 -0.81040380289E+03  0.82873118545E+03  0.12499875900E+03 0.  0.
          5    1    3    3  501    0 -0.31070112853E+02  0.17390294796E+02 -0.28188207076E+02  0.45655659933E+02  0.47000000000E+01 0.  1.
         -5    1    3    3    0  501  0.35484347045E+01  0.99481093821E+02 -0.51366146393E+03  0.52323920815E+03  0.47000000000E+01 0.  1.
          5    1    4    4  502    0  0.21077451324E+02  0.23587481311E+02 -0.12392772953E+03  0.12798750086E+03  0.47000000000E+01 0. -1.
         -5    1    4    4    0  502  0.64442268241E+01 -0.14045886993E+03 -0.68647607335E+03  0.70074368459E+03  0.47000000000E+01 0. -1.
<mgrwt>
<rscale>  0 0.35322674E+03</rscale>
<asrwt>0</asrwt>
<pdfrwt beam="1">  1       21 0.34901994E-02 0.35322674E+03</pdfrwt>
<pdfrwt beam="2">  1       21 0.21152914E+00 0.35322674E+03</pdfrwt>
<totfact> 0.51497655E+04</totfact>
</mgrwt>
</event>
<event>
 8    1  0.9123825E-006  0.3663583E+03  0.7546771E-02  0.1056094E+00
         21   -1    0    0  504  503  0.00000000000E+00  0.00000000000E+00  0.49440756302E+02  0.49440756302E+02  0.00000000000E+00 0. -1.
         21   -1    0    0  503  504 -0.00000000000E+00 -0.00000000000E+00 -0.67868292690E+03  0.67868292690E+03  0.00000000000E+00 0. -1.
         25    2    1    2    0    0  0.28180348277E+02 -0.99146817074E+02 -0.14473623978E+03  0.21724730955E+03  0.12499436401E+03 0.  0.
         25    2    1    2    0    0 -0.28180348277E+02  0.99146817074E+02 -0.48450593081E+03  0.51087637365E+03  0.12499779517E+03 0.  0.
          5    1    3    3  501    0  0.69766879561E+02 -0.30399422389E+02 -0.43040713261E+02  0.87556469568E+02  0.47000000000E+01 0. -1.
         -5    1    3    3    0  501 -0.41586531284E+02 -0.68747394685E+02 -0.10169552652E+03  0.12969083998E+03  0.47000000000E+01 0. -1.
          5    1    4    4  502    0 -0.40899980365E+02  0.51554769400E+02 -0.81563711646E+02  0.10490677623E+03  0.47000000000E+01 0.  1.
         -5    1    4    4    0  502  0.12719632088E+02  0.47592047674E+02 -0.40294221917E+03  0.40596959742E+03  0.47000000000E+01 0.  1.
<mgrwt>
<rscale>  0 0.36635828E+03</rscale>
<asrwt>0</asrwt>
<pdfrwt beam="1">  1       21 0.76062706E-02 0.36635828E+03</pdfrwt>
<pdfrwt beam="2">  1       21 0.10441275E+00 0.36635828E+03</pdfrwt>
<totfact> 0.91541139E+04</totfact>
</mgrwt>
</event>
<event>
 8    1  0.9123825E-006  0.5618254E+03  0.7546771E-02  0.9987933E-01
         21   -1    0    0  504  503  0.00000000000E+00  0.00000000000E+00  0.65881686013E+02  0.65881686013E+02  0.00000000000E+00 0. -1.
         21   -1    0    0  503  504 -0.00000000000E+00 -0.00000000000E+00 -0.11977825783E+04  0.11977825783E+04  0.00000000000E+00 0. -1.
         25    2    1    2    0    0  0.72241366183E+02 -0.18110542234E+03 -0.92349514511E+03  0.95209573927E+03  0.12500009881E+03 0.  0.
         25    2    1    2    0    0 -0.72241366183E+02  0.18110542234E+03 -0.20840574714E+03  0.31156852501E+03  0.12499600532E+03 0.  0.
          5    1    3    3  501    0 -0.20922054768E+02 -0.42340916092E+02 -0.39348308405E+03  0.39633510189E+03  0.47000000000E+01 0.  1.
         -5    1    3    3    0  501  0.93163420951E+02 -0.13876450625E+03 -0.53001206105E+03  0.55576063738E+03  0.47000000000E+01 0.  1.
          5    1    4    4  502    0 -0.32825448585E+02  0.90879261066E+02 -0.18723279790E+03  0.21074809792E+03  0.47000000000E+01 0. -1.
         -5    1    4    4    0  502 -0.39415917599E+02  0.90226161275E+02 -0.21172949236E+02  0.10082042709E+03  0.47000000000E+01 0. -1.
<mgrwt>
<rscale>  0 0.56182537E+03</rscale>
<asrwt>0</asrwt>
<pdfrwt beam="1">  1       21 0.10135645E-01 0.56182537E+03</pdfrwt>
<pdfrwt beam="2">  1       21 0.18427423E+00 0.56182537E+03</pdfrwt>
<totfact> 0.11450695E+04</totfact>
</mgrwt>
</event>
<event>
 8    1  0.9123825E-006  0.2961822E+03  0.7546771E-02  0.1087165E+00
         21   -1    0    0  504  503  0.00000000000E+00  0.00000000000E+00  0.73837877349E+03  0.73837877349E+03  0.00000000000E+00 0. -1.
         21   -1    0    0  503  504 -0.00000000000E+00 -0.00000000000E+00 -0.29701527089E+02  0.29701527089E+02  0.00000000000E+00 0. -1.
         25    2    1    2    0    0 -0.55899379149E+02  0.48485576565E+02  0.42905144900E+03  0.45297546515E+03  0.12500413757E+03 0.  0.
         25    2    1    2    0    0  0.55899379149E+02 -0.48485576565E+02  0.27962579739E+03  0.31510483543E+03  0.12499951607E+03 0.  0.
          5    1    3    3  501    0 -0.20131751735E+02  0.87942533923E+02  0.23744052937E+03  0.25404580628E+03  0.47000000000E+01 0. -1.
         -5    1    3    3    0  501 -0.35767627414E+02 -0.39456957358E+02  0.19161091963E+03  0.19892965887E+03  0.47000000000E+01 0. -1.
          5    1    4    4  502    0  0.36509113726E+02 -0.17089368078E+02  0.85324321475E+01  0.41471125916E+02  0.47000000000E+01 0.  1.
         -5    1    4    4    0  502  0.19390265423E+02 -0.31396208487E+02  0.27109336525E+03  0.27363370951E+03  0.47000000000E+01 0.  1.
<mgrwt>
<rscale>  0 0.29618222E+03</rscale>
<asrwt>0</asrwt>
<pdfrwt beam="1">  1       21 0.11359672E+00 0.29618222E+03</pdfrwt>
<pdfrwt beam="2">  1       21 0.45694663E-02 0.29618222E+03</pdfrwt>
<totfact> 0.18304647E+05</totfact>
</mgrwt>
</event>
<event>
 8    1  0.9123825E-006  0.2601860E+03  0.7546771E-02  0.1107032E+00
         21   -1    0    0  504  503  0.00000000000E+00  0.00000000000E+00  0.12662241101E+03  0.12662241101E+03  0.00000000000E+00 0. -1.
         21   -1    0    0  503  504 -0.00000000000E+00 -0.00000000000E+00 -0.13365870722E+03  0.13365870722E+03  0.00000000000E+00 0. -1.
         25    2    1    2    0    0  0.84822015205E+01  0.45426738254E+01 -0.38299537169E+02  0.13107745929E+03  0.12498744801E+03 0.  0.
         25    2    1    2    0    0 -0.84822015205E+01 -0.45426738254E+01  0.31263240961E+02  0.12920365893E+03  0.12499444635E+03 0.  0.
          5    1    3    3  501    0 -0.37207486597E+02  0.40862532289E+02  0.85081761881E+01  0.56112589194E+02  0.47000000000E+01 0.  1.
         -5    1    3    3    0  501  0.45689688118E+02 -0.36319858464E+02 -0.46807713357E+02  0.74964870098E+02  0.47000000000E+01 0.  1.
          5    1    4    4  502    0  0.21380899178E+02 -0.16691461914E+02  0.71975165200E+02  0.77060120401E+02  0.47000000000E+01 0.  1.
         -5    1    4    4    0  502 -0.29863100699E+02  0.12148788089E+02 -0.40711924239E+02  0.52143538532E+02  0.47000000000E+01 0.  1.
<mgrwt>
<rscale>  0 0.26018599E+03</rscale>
<asrwt>0</asrwt>
<pdfrwt beam="1">  1       21 0.19480371E-01 0.26018599E+03</pdfrwt>
<pdfrwt beam="2">  1       21 0.20562878E-01 0.26018599E+03</pdfrwt>
<totfact> 0.52466852E+05</totfact>
</mgrwt>
</event>
<event>
 8    1  0.9123825E-006  0.3109805E+03  0.7546771E-02  0.1079877E+00
         21   -1    0    0  504  503  0.00000000000E+00  0.00000000000E+00  0.45205216666E+02  0.45205216666E+02  0.00000000000E+00 0. -1.
         21   -1    0    0  503  504 -0.00000000000E+00 -0.00000000000E+00 -0.53483236398E+03  0.53483236398E+03  0.00000000000E+00 0. -1.
         25    2    1    2    0    0 -0.68421717288E+00  0.42403622598E+02 -0.39808329023E+03  0.41940439204E+03  0.12502480851E+03 0.  0.
         25    2    1    2    0    0  0.68421717288E+00 -0.42403622598E+02 -0.91543857089E+02  0.16063318861E+03  0.12499683255E+03 0.  0.
          5    1    3    3  501    0 -0.42254682058E+02 -0.26953636197E+02 -0.17380667323E+03  0.18094973423E+03  0.47000000000E+01 0.  1.
         -5    1    3    3    0  501  0.41570464885E+02  0.69357258795E+02 -0.22427661700E+03  0.23845465781E+03  0.47000000000E+01 0.  1.
          5    1    4    4  502    0  0.32743780728E+02  0.31029488613E+02 -0.10468338501E+02  0.46547400045E+02  0.47000000000E+01 0.  1.
         -5    1    4    4    0  502 -0.32059563556E+02 -0.73433111211E+02 -0.81075518588E+02  0.11408578856E+03  0.47000000000E+01 0.  1.
<mgrwt>
<rscale>  0 0.31098047E+03</rscale>
<asrwt>0</asrwt>
<pdfrwt beam="1">  1       21 0.69546483E-02 0.31098047E+03</pdfrwt>
<pdfrwt beam="2">  1       21 0.82281907E-01 0.31098047E+03</pdfrwt>
<totfact> 0.19083075E+05</totfact>
</mgrwt>
</event>
<event>
 8    1  0.9123825E-006  0.2656068E+03  0.7546771E-02  0.1103821E+00
         21   -1    0    0  504  503  0.00000000000E+00  0.00000000000E+00  0.87816226956E+02  0.87816226956E+02  0.00000000000E+00 0.  1.
         21   -1    0    0  503  504 -0.00000000000E+00 -0.00000000000E+00 -0.20083694329E+03  0.20083694329E+03  0.00000000000E+00 0.  1.
         25    2    1    2    0    0 -0.54104035779E+01 -0.21394382481E+02 -0.14074258354E+02  0.12771018258E+03  0.12499925566E+03 0.  0.
         25    2    1    2    0    0  0.54104035779E+01  0.21394382481E+02 -0.98946457982E+02  0.16094298767E+03  0.12500100666E+03 0.  0.
          5    1    3    3  501    0  0.43605527774E+02 -0.13900429610E+02 -0.48741110839E+02  0.67025740441E+02  0.47000000000E+01 0. -1.
         -5    1    3    3    0  501 -0.49015931352E+02 -0.74939528716E+01  0.34666852485E+02  0.60684442134E+02  0.47000000000E+01 0. -1.
          5    1    4    4  502    0  0.91821052758E+01  0.29193432265E+01  0.29317104948E+02  0.31215641347E+02  0.47000000000E+01 0.  1.
         -5    1    4    4    0  502 -0.37717016979E+01  0.18475039255E+02 -0.12826356293E+03  0.12972734633E+03  0.47000000000E+01 0.  1.
<mgrwt>
<rscale>  0 0.26560680E+03</rscale>
<asrwt>0</asrwt>
<pdfrwt beam="1">  1       21 0.13510189E-01 0.26560680E+03</pdfrwt>
<pdfrwt beam="2">  1       21 0.30897991E-01 0.26560680E+03</pdfrwt>
<totfact> 0.47021389E+05</totfact>
</mgrwt>
</event>
<event>
 8    1  0.9123825E-006  0.3887752E+03  0.7546771E-02  0.1047737E+00
         21   -1    0    0  504  503  0.00000000000E+00  0.00000000000E+00  0.66423528668E+02  0.66423528668E+02  0.00000000000E+00 0.  1.
         21   -1    0    0  503  504 -0.00000000000E+00 -0.00000000000E+00 -0.56887273356E+03  0.56887273356E+03  0.00000000000E+00 0.  1.
         25    2    1    2    0    0  0.90823231852E+02 -0.19751090709E+02 -0.61195228343E+02  0.16735833671E+03  0.12499996747E+03 0.  0.
         25    2    1    2    0    0 -0.90823231852E+02  0.19751090709E+02 -0.44125397655E+03  0.46793792551E+03  0.12498746051E+03 0.  0.
          5    1    3    3  501    0  0.12221518621E+03 -0.11245952575E+02 -0.50526940504E+02  0.13280845194E+03  0.47000000000E+01 0.  1.
         -5    1    3    3    0  501 -0.31391954354E+02 -0.85051381335E+01 -0.10668287839E+02  0.34549884779E+02  0.47000000000E+01 0.  1.
          5    1    4    4  502    0 -0.11242088621E+03  0.45655157606E+02 -0.33261117351E+03  0.35408350967E+03  0.47000000000E+01 0.  1.
         -5    1    4    4    0  502  0.21597654362E+02 -0.25904066898E+02 -0.10864280303E+03  0.11385441584E+03  0.47000000000E+01 0.  1.
<mgrwt>
<rscale>  0 0.38877518E+03</rscale>
<asrwt>0</asrwt>
<pdfrwt beam="1">  1       21 0.10219004E-01 0.38877518E+03</pdfrwt>
<pdfrwt beam="2">  1       21 0.87518883E-01 0.38877518E+03</pdfrwt>
<totfact> 0.82163150E+04</totfact>
</mgrwt>
</event>
<event>
 8    1  0.9123825E-006  0.2703645E+03  0.7546771E-02  0.1101071E+00
         21   -1    0    0  504  503  0.00000000000E+00  0.00000000000E+00  0.29476543766E+03  0.29476543766E+03  0.00000000000E+00 0.  1.
         21   -1    0    0  503  504 -0.00000000000E+00 -0.00000000000E+00 -0.61995876799E+02  0.61995876799E+02  0.00000000000E+00 0.  1.
         25    2    1    2    0    0 -0.79650308813E+01 -0.29074067114E+02  0.17144237275E+03  0.21430295046E+03  0.12499809721E+03 0.  0.
         25    2    1    2    0    0  0.79650308813E+01  0.29074067114E+02  0.61327188110E+02  0.14245836400E+03  0.12499847349E+03 0.  0.
          5    1    3    3  501    0 -0.38038730180E+02 -0.32996519734E+02  0.12060211564E+02  0.51992826537E+02  0.47000000000E+01 0.  1.
         -5    1    3    3    0  501  0.30073699299E+02  0.39224526208E+01  0.15938216119E+03  0.16231012393E+03  0.47000000000E+01 0.  1.
          5    1    4    4  502    0 -0.42903149989E+02 -0.13978932095E+02  0.60532465082E+02  0.75646283123E+02  0.47000000000E+01 0. -1.
         -5    1    4    4    0  502  0.50868180870E+02  0.43052999209E+02  0.79472302809E+00  0.66812080873E+02  0.47000000000E+01 0. -1.
<mgrwt>
<rscale>  0 0.27036451E+03</rscale>
<asrwt>0</asrwt>
<pdfrwt beam="1">  1       21 0.45348528E-01 0.27036451E+03</pdfrwt>
<pdfrwt beam="2">  1       21 0.95378274E-02 0.27036451E+03</pdfrwt>
<totfact> 0.40455846E+05</totfact>
</mgrwt>
</event>
<event>
 8    1  0.9123825E-006  0.2530394E+03  0.7546771E-02  0.1111399E+00
         21   -1    0    0  504  503  0.00000000000E+00  0.00000000000E+00  0.17352896929E+03  0.17352896929E+03  0.00000000000E+00 0. -1.
         21   -1    0    0  503  504 -0.00000000000E+00 -0.00000000000E+00 -0.92245344058E+02  0.92245344058E+02  0.00000000000E+00 0. -1.
         25    2    1    2    0    0 -0.16157522157E+02  0.46597054730E+01  0.51077329402E+02  0.13608113035E+03  0.12500560820E+03 0.  0.
         25    2    1    2    0    0  0.16157522157E+02 -0.46597054730E+01  0.30206295825E+02  0.12969318300E+03  0.12500049212E+03 0.  0.
          5    1    3    3  501    0  0.32626272266E+02 -0.14437994797E+02  0.71189336666E+02  0.79768044922E+02  0.47000000000E+01 0.  1.
         -5    1    3    3    0  501 -0.48783794423E+02  0.19097700270E+02 -0.20112007263E+02  0.56313085425E+02  0.47000000000E+01 0.  1.
          5    1    4    4  502    0  0.40939837631E+02  0.37683206308E+02 -0.20022592767E+02  0.59321906274E+02  0.47000000000E+01 0. -1.
         -5    1    4    4    0  502 -0.24782315474E+02 -0.42342911781E+02  0.50228888593E+02  0.70371276723E+02  0.47000000000E+01 0. -1.
<mgrwt>
<rscale>  0 0.25303944E+03</rscale>
<asrwt>0</asrwt>
<pdfrwt beam="1">  1       21 0.26696765E-01 0.25303944E+03</pdfrwt>
<pdfrwt beam="2">  1       21 0.14191591E-01 0.25303944E+03</pdfrwt>
<totfact> 0.57313814E+05</totfact>
</mgrwt>
</event>
<event>
 8    1  0.9123825E-006  0.2513379E+03  0.7546771E-02  0.1112462E+00
         21   -1    0    0  504  503  0.00000000000E+00  0.00000000000E+00  0.12932753001E+04  0.12932753001E+04  0.00000000000E+00 0.  1.
         21   -1    0    0  503  504 -0.00000000000E+00 -0.00000000000E+00 -0.12211382342E+02  0.12211382342E+02  0.00000000000E+00 0.  1.
         25    2    1    2    0    0  0.79561785155E+01 -0.17475643197E+00  0.69347912636E+03  0.70469946626E+03  0.12499883094E+03 0.  0.
         25    2    1    2    0    0 -0.79561785155E+01  0.17475643197E+00  0.58758479142E+03  0.60078721620E+03  0.12500424283E+03 0.  0.
          5    1    3    3  501    0  0.28535177266E+02 -0.56469285566E+02  0.41340932199E+03  0.41824920091E+03  0.47000000000E+01 0.  1.
         -5    1    3    3    0  501 -0.20578998751E+02  0.56294529134E+02  0.28006980437E+03  0.28645026535E+03  0.47000000000E+01 0.  1.
          5    1    4    4  502    0 -0.27789311638E+02  0.35708799947E+02  0.83899887468E+02  0.95439223342E+02  0.47000000000E+01 0.  1.
         -5    1    4    4    0  502  0.19833133123E+02 -0.35534043515E+02  0.50368490395E+03  0.50534799286E+03  0.47000000000E+01 0.  1.
<mgrwt>
<rscale>  0 0.25133785E+03</rscale>
<asrwt>0</asrwt>
<pdfrwt beam="1">  1       21 0.19896532E+00 0.25133785E+03</pdfrwt>
<pdfrwt beam="2">  1       21 0.18786752E-02 0.25133785E+03</pdfrwt>
<totfact> 0.18074395E+05</totfact>
</mgrwt>
</event>
<event>
 8    1  0.9123825E-006  0.3469648E+03  0.7546771E-02  0.1063868E+00
         21   -1    0    0  504  503  0.00000000000E+00  0.00000000000E+00  0.42995321210E+02  0.42995321210E+02  0.00000000000E+00 0. -1.
         21   -1    0    0  503  504 -0.00000000000E+00 -0.00000000000E+00 -0.69998630100E+03  0.69998630100E+03  0.00000000000E+00 0. -1.
         25    2    1    2    0    0  0.64142418811E+02 -0.98019396689E+02 -0.38709120757E+03  0.42330580640E+03  0.12500460286E+03 0.  0.
         25    2    1    2    0    0 -0.64142418811E+02  0.98019396689E+02 -0.26989977222E+03  0.31967581581E+03  0.12499875260E+03 0.  0.
          5    1    3    3  501    0  0.94445252524E+01 -0.10647706299E+03 -0.31245635889E+03  0.33026902703E+03  0.47000000000E+01 0.  1.
         -5    1    3    3    0  501  0.54697893558E+02  0.84576663028E+01 -0.74634848677E+02  0.93036779372E+02  0.47000000000E+01 0.  1.
          5    1    4    4  502    0 -0.62891889703E+02  0.28346298805E+02 -0.41064315710E+02  0.80419341399E+02  0.47000000000E+01 0. -1.
         -5    1    4    4    0  502 -0.12505291077E+01  0.69673097884E+02 -0.22883545651E+03  0.23925647441E+03  0.47000000000E+01 0. -1.
<mgrwt>
<rscale>  0 0.34696476E+03</rscale>
<asrwt>0</asrwt>
<pdfrwt beam="1">  1       21 0.66146654E-02 0.34696476E+03</pdfrwt>
<pdfrwt beam="2">  1       21 0.10769019E+00 0.34696476E+03</pdfrwt>
<totfact> 0.10892069E+05</totfact>
</mgrwt>
</event>
<event>
 8    1  0.9123825E-006  0.2923016E+03  0.7546771E-02  0.1089154E+00
         21   -1    0    0  504  503  0.00000000000E+00  0.00000000000E+00  0.36851144698E+03  0.36851144698E+03  0.00000000000E+00 0.  1.
         21   -1    0    0  503  504 -0.00000000000E+00 -0.00000000000E+00 -0.57963083466E+02  0.57963083466E+02  0.00000000000E+00 0.  1.
         25    2    1    2    0    0  0.63338450149E+02 -0.27356371553E+02  0.20078996616E+03  0.24637873197E+03  0.12500295486E+03 0.  0.
         25    2    1    2    0    0 -0.63338450149E+02  0.27356371553E+02  0.10975839735E+03  0.18009579848E+03  0.12500984165E+03 0.  0.
          5    1    3    3  501    0  0.99758227905E+02 -0.33652246613E+02  0.15296477931E+03  0.18575384639E+03  0.47000000000E+01 0. -1.
         -5    1    3    3    0  501 -0.36419777756E+02  0.62958750601E+01  0.47825186850E+02  0.60624885582E+02  0.47000000000E+01 0. -1.
          5    1    4    4  502    0  0.27251916292E+02  0.29292745334E+02  0.70576682345E+02  0.81264321578E+02  0.47000000000E+01 0.  1.
         -5    1    4    4    0  502 -0.90590366442E+02 -0.19363737806E+01  0.39181715006E+02  0.98831476900E+02  0.47000000000E+01 0.  1.
<mgrwt>
<rscale>  0 0.29230162E+03</rscale>
<asrwt>0</asrwt>
<pdfrwt beam="1">  1       21 0.56694067E-01 0.29230162E+03</pdfrwt>
<pdfrwt beam="2">  1       21 0.89173977E-02 0.29230162E+03</pdfrwt>
<totfact> 0.28332676E+05</totfact>
</mgrwt>
</event>
<event>
 8    1  0.9123825E-006  0.3685347E+03  0.7546771E-02  0.1055255E+00
         21   -1    0    0  504  503  0.00000000000E+00  0.00000000000E+00  0.13476214478E+04  0.13476214478E+04  0.00000000000E+00 0.  1.
         21   -1    0    0  503  504 -0.00000000000E+00 -0.00000000000E+00 -0.25195844650E+02  0.25195844650E+02  0.00000000000E+00 0.  1.
         25    2    1    2    0    0  0.58171222875E+02 -0.11231536150E+03  0.84089206443E+03  0.85948979637E+03  0.12499845774E+03 0.  0.
         25    2    1    2    0    0 -0.58171222875E+02  0.11231536150E+03  0.48153353869E+03  0.51332749605E+03  0.12502774781E+03 0.  0.
          5    1    3    3  501    0  0.58398825613E+02  0.64761163254E+01  0.27922378367E+03  0.28537759948E+03  0.47000000000E+01 0. -1.
         -5    1    3    3    0  501 -0.22760273748E+00 -0.11879147782E+03  0.56166828076E+03  0.57411219689E+03  0.47000000000E+01 0. -1.
          5    1    4    4  502    0 -0.18468677929E+02  0.27311237108E+02  0.35062438795E+03  0.35220242356E+03  0.47000000000E+01 0. -1.
         -5    1    4    4    0  502 -0.39702544946E+02  0.85004124387E+02  0.13090915073E+03  0.16112507249E+03  0.47000000000E+01 0. -1.
<mgrwt>
<rscale>  0 0.36853472E+03</rscale>
<asrwt>0</asrwt>
<pdfrwt beam="1">  1       21 0.20732632E+00 0.36853472E+03</pdfrwt>
<pdfrwt beam="2">  1       21 0.38762848E-02 0.36853472E+03</pdfrwt>
<totfact> 0.45646753E+04</totfact>
</mgrwt>
</event>
<event>
 8    1  0.9123825E-006  0.3190940E+03  0.7546771E-02  0.1076067E+00
         21   -1    0    0  504  503  0.00000000000E+00  0.00000000000E+00  0.21068432631E+02  0.21068432631E+02  0.00000000000E+00 0. -1.
         21   -1    0    0  503  504 -0.00000000000E+00 -0.00000000000E+00 -0.12082173018E+04  0.12082173018E+04  0.00000000000E+00 0. -1.
         25    2    1    2    0    0 -0.69550437952E+02  0.58700332182E+02 -0.74510433538E+03  0.76097890640E+03  0.12500173186E+03 0.  0.
         25    2    1    2    0    0  0.69550437952E+02 -0.58700332182E+02 -0.44204453377E+03  0.46830682801E+03  0.12499969163E+03 0.  0.
          5    1    3    3  501    0 -0.82636249282E+02 -0.16391670162E+01 -0.28675906175E+03  0.29846990813E+03  0.47000000000E+01 0. -1.
         -5    1    3    3    0  501  0.13085811331E+02  0.60339499198E+02 -0.45834527363E+03  0.46250899827E+03  0.47000000000E+01 0. -1.
          5    1    4    4  502    0  0.16769427165E+02  0.28784269340E+02 -0.23478899130E+03  0.23718707444E+03  0.47000000000E+01 0.  1.
         -5    1    4    4    0  502  0.52781010787E+02 -0.87484601522E+02 -0.20725554248E+03  0.23111975357E+03  0.47000000000E+01 0.  1.
<mgrwt>
<rscale>  0 0.31909400E+03</rscale>
<asrwt>0</asrwt>
<pdfrwt beam="1">  1       21 0.32412961E-02 0.31909400E+03</pdfrwt>
<pdfrwt beam="2">  1       21 0.18587965E+00 0.31909400E+03</pdfrwt>
<totfact> 0.87291354E+04</totfact>
</mgrwt>
</event>
<event>
 8    1  0.9123825E-006  0.2756387E+03  0.7546771E-02  0.1098095E+00
         21   -1    0    0  504  503  0.00000000000E+00  0.00000000000E+00  0.29530467691E+03  0.29530467691E+03  0.00000000000E+00 0.  1.
         21   -1    0    0  503  504 -0.00000000000E+00 -0.00000000000E+00 -0.64320605152E+02  0.64320605152E+02  0.00000000000E+00 0.  1.
         25    2    1    2    0    0 -0.33111987418E+02 -0.63935450890E+01  0.17714923983E+03  0.21940976709E+03  0.12498604559E+03 0.  0.
         25    2    1    2    0    0  0.33111987418E+02  0.63935450890E+01  0.53834831933E+02  0.14021551498E+03  0.12499968153E+03 0.  0.
          5    1    3    3  501    0 -0.56498184159E+01 -0.62598991086E+02  0.62749267289E+02  0.88938825484E+02  0.47000000000E+01 0.  1.
         -5    1    3    3    0  501 -0.27462169002E+02  0.56205445997E+02  0.11439997254E+03  0.13047094161E+03  0.47000000000E+01 0.  1.
          5    1    4    4  502    0  0.76887956512E+01  0.51275099219E+02  0.68822294206E+02  0.86295142147E+02  0.47000000000E+01 0.  1.
         -5    1    4    4    0  502  0.25423191766E+02 -0.44881554130E+02 -0.14987462273E+02  0.53920372830E+02  0.47000000000E+01 0.  1.
<mgrwt>
<rscale>  0 0.27563872E+03</rscale>
<asrwt>0</asrwt>
<pdfrwt beam="1">  1       21 0.45431488E-01 0.27563872E+03</pdfrwt>
<pdfrwt beam="2">  1       21 0.98954779E-02 0.27563872E+03</pdfrwt>
<totfact> 0.37712762E+05</totfact>
</mgrwt>
</event>
<event>
 8    1  0.9123825E-006  0.3900236E+03  0.7546771E-02  0.1047290E+00
         21   -1    0    0  504  503  0.00000000000E+00  0.00000000000E+00  0.31290859240E+03  0.31290859240E+03  0.00000000000E+00 0. -1.
         21   -1    0    0  503  504 -0.00000000000E+00 -0.00000000000E+00 -0.12153583111E+03  0.12153583111E+03  0.00000000000E+00 0. -1.
         25    2    1    2    0    0  0.60222645436E+02  0.13352591548E+03  0.61391083622E+02  0.20211159478E+03  0.12499717785E+03 0.  0.
         25    2    1    2    0    0 -0.60222645436E+02 -0.13352591548E+03  0.12998167767E+03  0.23233282873E+03  0.12500947822E+03 0.  0.
          5    1    3    3  501    0 -0.25881005246E+02  0.61329885354E+00  0.31221033524E+02  0.40829468553E+02  0.47000000000E+01 0.  1.
         -5    1    3    3    0  501  0.86103650682E+02  0.13291261662E+03  0.30170050099E+02  0.16128212623E+03  0.47000000000E+01 0.  1.
          5    1    4    4  502    0 -0.36683915382E+02  0.11690010209E+02  0.54575364367E+02  0.66954659152E+02  0.47000000000E+01 0. -1.
         -5    1    4    4    0  502 -0.23538730054E+02 -0.14521592569E+03  0.75406313307E+02  0.16537816957E+03  0.47000000000E+01 0. -1.
<mgrwt>
<rscale>  0 0.39002362E+03</rscale>
<asrwt>0</asrwt>
<pdfrwt beam="1">  1       21 0.48139783E-01 0.39002362E+03</pdfrwt>
<pdfrwt beam="2">  1       21 0.18697820E-01 0.39002362E+03</pdfrwt>
<totfact> 0.10186604E+05</totfact>
</mgrwt>
</event>
<event>
 8    1  0.9123825E-006  0.2750080E+03  0.7546771E-02  0.1098447E+00
         21   -1    0    0  504  503  0.00000000000E+00  0.00000000000E+00  0.30325016589E+03  0.30325016589E+03  0.00000000000E+00 0. -1.
         21   -1    0    0  503  504 -0.00000000000E+00 -0.00000000000E+00 -0.62349007036E+02  0.62349007036E+02  0.00000000000E+00 0. -1.
         25    2    1    2    0    0 -0.53073090682E+01 -0.45167895021E+02  0.16673859251E+03  0.21330482757E+03  0.12501553887E+03 0.  0.
         25    2    1    2    0    0  0.53073090682E+01  0.45167895021E+02  0.74162566345E+02  0.15229434536E+03  0.12500070045E+03 0.  0.
          5    1    3    3  501    0 -0.39148280112E+02 -0.55945286999E+02  0.16360261287E+03  0.17734251580E+03  0.47000000000E+01 0. -1.
         -5    1    3    3    0  501  0.33840971043E+02  0.10777391978E+02  0.31359796400E+01  0.35962311763E+02  0.47000000000E+01 0. -1.
          5    1    4    4  502    0  0.11812366751E+02  0.59523285806E+02 -0.14128921189E+02  0.62484157795E+02  0.47000000000E+01 0.  1.
         -5    1    4    4    0  502 -0.65050576824E+01 -0.14355390785E+02  0.88291487534E+02  0.89810187568E+02  0.47000000000E+01 0.  1.
<mgrwt>
<rscale>  0 0.27500798E+03</rscale>
<asrwt>0</asrwt>
<pdfrwt beam="1">  1       21 0.46653871E-01 0.27500798E+03</pdfrwt>
<pdfrwt beam="2">  1       21 0.95921551E-02 0.27500798E+03</pdfrwt>
<totfact> 0.37723530E+05</totfact>
</mgrwt>
</event>
<event>
 8    1  0.9123825E-006  0.2750015E+03  0.7546771E-02  0.1098451E+00
         21   -1    0    0  504  503  0.00000000000E+00  0.00000000000E+00  0.64441521123E+02  0.64441521123E+02  0.00000000000E+00 0. -1.
         21   -1    0    0  503  504 -0.00000000000E+00 -0.00000000000E+00 -0.29338931667E+03  0.29338931667E+03  0.00000000000E+00 0. -1.
         25    2    1    2    0    0 -0.69603823772E+01 -0.36685002503E+02 -0.57940666660E+02  0.14274300640E+03  0.12499683473E+03 0.  0.
         25    2    1    2    0    0  0.69603823772E+01  0.36685002503E+02 -0.17100712889E+03  0.21508783139E+03  0.12500040301E+03 0.  0.
          5    1    3    3  501    0 -0.14292673145E+02 -0.51224731210E+02 -0.91049702156E+02  0.10554805472E+03  0.47000000000E+01 0. -1.
         -5    1    3    3    0  501  0.73322907679E+01  0.14539728708E+02  0.33109035496E+02  0.37194951677E+02  0.47000000000E+01 0. -1.
          5    1    4    4  502    0  0.35756910526E+02 -0.26417465055E+02 -0.20259128160E+02  0.49081171381E+02  0.47000000000E+01 0. -1.
         -5    1    4    4    0  502 -0.28796528149E+02  0.63102467557E+02 -0.15074800073E+03  0.16600666001E+03  0.47000000000E+01 0. -1.
<mgrwt>
<rscale>  0 0.27500148E+03</rscale>
<asrwt>0</asrwt>
<pdfrwt beam="1">  1       21 0.99140802E-02 0.27500148E+03</pdfrwt>
<pdfrwt beam="2">  1       21 0.45136818E-01 0.27500148E+03</pdfrwt>
<totfact> 0.38102130E+05</totfact>
</mgrwt>
</event>
<event>
 8    1  0.9123825E-006  0.3208955E+03  0.7546771E-02  0.1075238E+00
         21   -1    0    0  504  503  0.00000000000E+00  0.00000000000E+00  0.69578170411E+02  0.69578170411E+02  0.00000000000E+00 0.  1.
         21   -1    0    0  503  504 -0.00000000000E+00 -0.00000000000E+00 -0.36999356423E+03  0.36999356423E+03  0.00000000000E+00 0.  1.
         25    2    1    2    0    0 -0.97943617714E+02 -0.22585503959E+01 -0.11895702784E+03  0.19842752121E+03  0.12499861359E+03 0.  0.
         25    2    1    2    0    0  0.97943617714E+02  0.22585503959E+01 -0.18145836598E+03  0.24114421343E+03  0.12500135913E+03 0.  0.
          5    1    3    3  501    0 -0.12003626351E+03 -0.54161953373E+01 -0.58326137477E+02  0.13364904804E+03  0.47000000000E+01 0. -1.
         -5    1    3    3    0  501  0.22092645797E+02  0.31576449415E+01 -0.60630890360E+02  0.64778473167E+02  0.47000000000E+01 0. -1.
          5    1    4    4  502    0  0.12065440240E+03  0.31983067468E+01 -0.18139742136E+03  0.21793308253E+03  0.47000000000E+01 0. -1.
         -5    1    4    4    0  502 -0.22710784691E+02 -0.93975635092E+00 -0.60944619472E-01  0.23211130897E+02  0.47000000000E+01 0. -1.
<mgrwt>
<rscale>  0 0.32089547E+03</rscale>
<asrwt>0</asrwt>
<pdfrwt beam="1">  1       21 0.10704334E-01 0.32089547E+03</pdfrwt>
<pdfrwt beam="2">  1       21 0.56922087E-01 0.32089547E+03</pdfrwt>
<totfact> 0.20162752E+05</totfact>
</mgrwt>
</event>
<event>
 8    1  0.9123825E-006  0.3461282E+03  0.7546771E-02  0.1064216E+00
         21   -1    0    0  504  503  0.00000000000E+00  0.00000000000E+00  0.62561946859E+02  0.62561946859E+02  0.00000000000E+00 0. -1.
         21   -1    0    0  503  504 -0.00000000000E+00 -0.00000000000E+00 -0.47874432188E+03  0.47874432188E+03  0.00000000000E+00 0. -1.
         25    2    1    2    0    0  0.43691533731E+02  0.19939342822E+01 -0.33853889302E+02  0.13669328109E+03  0.12500416545E+03 0.  0.
         25    2    1    2    0    0 -0.43691533731E+02 -0.19939342822E+01 -0.38232848572E+03  0.40461298765E+03  0.12499469145E+03 0.  0.
          5    1    3    3  501    0  0.55497202324E+02  0.13774092429E+01 -0.75111819090E+02  0.93518512013E+02  0.47000000000E+01 0. -1.
         -5    1    3    3    0  501 -0.11805668593E+02  0.61652503928E+00  0.41257929789E+02  0.43174769073E+02  0.47000000000E+01 0. -1.
          5    1    4    4  502    0 -0.44078515243E+02 -0.16315184770E+02 -0.38617438290E+03  0.38905249616E+03  0.47000000000E+01 0.  1.
         -5    1    4    4    0  502  0.38698151220E+00  0.14321250488E+02  0.38458971843E+01  0.15560491489E+02  0.47000000000E+01 0.  1.
<mgrwt>
<rscale>  0 0.34612817E+03</rscale>
<asrwt>0</asrwt>
<pdfrwt beam="1">  1       21 0.96249150E-02 0.34612817E+03</pdfrwt>
<pdfrwt beam="2">  1       21 0.73652972E-01 0.34612817E+03</pdfrwt>
<totfact> 0.13737417E+05</totfact>
</mgrwt>
</event>
<event>
 8    1  0.9123825E-006  0.4402475E+03  0.7546771E-02  0.1030671E+00
         21   -1    0    0  504  503  0.00000000000E+00  0.00000000000E+00  0.81056746192E+03  0.81056746192E+03  0.00000000000E+00 0.  1.
         21   -1    0    0  503  504 -0.00000000000E+00 -0.00000000000E+00 -0.59778436319E+02  0.59778436319E+02  0.00000000000E+00 0.  1.
         25    2    1    2    0    0 -0.98949793816E+02  0.13240330635E+03  0.52209896837E+03  0.56172413661E+03  0.12499990258E+03 0.  0.
         25    2    1    2    0    0  0.98949793816E+02 -0.13240330635E+03  0.22869005724E+03  0.30862176164E+03  0.12500620883E+03 0.  0.
          5    1    3    3  501    0 -0.44722988280E+01  0.23314191903E+00 -0.62069227509E+01  0.89817427038E+01  0.47000000000E+01 0. -1.
         -5    1    3    3    0  501 -0.94477494988E+02  0.13217016443E+03  0.52830589112E+03  0.55274239390E+03  0.47000000000E+01 0. -1.
          5    1    4    4  502    0  0.89527029811E+02 -0.27952084674E+02  0.15178562077E+03  0.17848633779E+03  0.47000000000E+01 0.  1.
         -5    1    4    4    0  502  0.94227640051E+01 -0.10445122168E+03  0.76904436467E+02  0.13013542385E+03  0.47000000000E+01 0.  1.
<mgrwt>
<rscale>  0 0.44024745E+03</rscale>
<asrwt>0</asrwt>
<pdfrwt beam="1">  1       21 0.12470268E+00 0.44024745E+03</pdfrwt>
<pdfrwt beam="2">  1       21 0.91966831E-02 0.44024745E+03</pdfrwt>
<totfact> 0.41173368E+04</totfact>
</mgrwt>
</event>
<event>
 8    1  0.9123825E-006  0.2999916E+03  0.7546771E-02  0.1085245E+00
         21   -1    0    0  504  503  0.00000000000E+00  0.00000000000E+00  0.28762428182E+03  0.28762428182E+03  0.00000000000E+00 0.  1.
         21   -1    0    0  503  504 -0.00000000000E+00 -0.00000000000E+00 -0.78222650814E+02  0.78222650814E+02  0.00000000000E+00 0.  1.
         25    2    1    2    0    0 -0.23654346575E+02 -0.76355162501E+02  0.13152708757E+03  0.19827825458E+03  0.12500101008E+03 0.  0.
         25    2    1    2    0    0  0.23654346575E+02  0.76355162501E+02  0.77874543434E+02  0.16756867806E+03  0.12500071359E+03 0.  0.
          5    1    3    3  501    0 -0.38322355468E+02  0.79790753317E+01 -0.21379412704E+01  0.39483279558E+02  0.47000000000E+01 0. -1.
         -5    1    3    3    0  501  0.14668008893E+02 -0.84334237833E+02  0.13366502884E+03  0.15879497502E+03  0.47000000000E+01 0. -1.
          5    1    4    4  502    0 -0.44241438295E+02  0.15999645492E+02 -0.82090487279E+00  0.47286968639E+02  0.47000000000E+01 0.  1.
         -5    1    4    4    0  502  0.67895784870E+02  0.60355517009E+02  0.78695448307E+02  0.12028170942E+03  0.47000000000E+01 0.  1.
<mgrwt>
<rscale>  0 0.29999156E+03</rscale>
<asrwt>0</asrwt>
<pdfrwt beam="1">  1       21 0.44249889E-01 0.29999156E+03</pdfrwt>
<pdfrwt beam="2">  1       21 0.12034254E-01 0.29999156E+03</pdfrwt>
<totfact> 0.27907841E+05</totfact>
</mgrwt>
</event>
<event>
 8    1  0.9123825E-006  0.3083703E+03  0.7546771E-02  0.1081130E+00
         21   -1    0    0  504  503  0.00000000000E+00  0.00000000000E+00  0.88909575190E+03  0.88909575190E+03  0.00000000000E+00 0. -1.
         21   -1    0    0  503  504 -0.00000000000E+00 -0.00000000000E+00 -0.26738473554E+02  0.26738473554E+02  0.00000000000E+00 0. -1.
         25    2    1    2    0    0 -0.51655733254E+02  0.11970672076E+02  0.21423242991E+03  0.25363754467E+03  0.12499943308E+03 0.  0.
         25    2    1    2    0    0  0.51655733254E+02 -0.11970672076E+02  0.64812484843E+03  0.66219668079E+03  0.12500805224E+03 0.  0.
          5    1    3    3  501    0 -0.81751674494E+02  0.22412805784E+02  0.20213314811E+03  0.21923861364E+03  0.47000000000E+01 0. -1.
         -5    1    3    3    0  501  0.30095941240E+02 -0.10442133708E+02  0.12099281802E+02  0.34398931024E+02  0.47000000000E+01 0. -1.
          5    1    4    4  502    0 -0.25801242299E+02  0.46042800018E+01  0.41662948553E+03  0.41747948657E+03  0.47000000000E+01 0. -1.
         -5    1    4    4    0  502  0.77456975553E+02 -0.16574952078E+02  0.23149536290E+03  0.24471719421E+03  0.47000000000E+01 0. -1.
<mgrwt>
<rscale>  0 0.30837032E+03</rscale>
<asrwt>0</asrwt>
<pdfrwt beam="1">  1       21 0.13678394E+00 0.30837032E+03</pdfrwt>
<pdfrwt beam="2">  1       21 0.41136120E-02 0.30837032E+03</pdfrwt>
<totfact> 0.13622399E+05</totfact>
</mgrwt>
</event>
<event>
 8    1  0.9123825E-006  0.3188072E+03  0.7546771E-02  0.1076200E+00
         21   -1    0    0  504  503  0.00000000000E+00  0.00000000000E+00  0.48407573232E+03  0.48407573232E+03  0.00000000000E+00 0.  1.
         21   -1    0    0  503  504 -0.00000000000E+00 -0.00000000000E+00 -0.52490772831E+02  0.52490772831E+02  0.00000000000E+00 0.  1.
         25    2    1    2    0    0 -0.24219691922E+02  0.88803027410E+02  0.27673410930E+03  0.31730291098E+03  0.12500719546E+03 0.  0.
         25    2    1    2    0    0  0.24219691922E+02 -0.88803027410E+02  0.15485085020E+03  0.21926359417E+03  0.12500066707E+03 0.  0.
          5    1    3    3  501    0  0.73150350077E+01 -0.15651927470E+02 -0.19236733189E+01  0.18007861887E+02  0.47000000000E+01 0.  1.
         -5    1    3    3    0  501 -0.31534726929E+02  0.10445495488E+03  0.27865778261E+03  0.29929504910E+03  0.47000000000E+01 0.  1.
          5    1    4    4  502    0  0.33988861298E+01  0.27676876346E+02  0.57476474050E+01  0.28856322736E+02  0.47000000000E+01 0. -1.
         -5    1    4    4    0  502  0.20820805792E+02 -0.11647990376E+03  0.14910320279E+03  0.19040727144E+03  0.47000000000E+01 0. -1.
<mgrwt>
<rscale>  0 0.31880721E+03</rscale>
<asrwt>0</asrwt>
<pdfrwt beam="1">  1       21 0.74473187E-01 0.31880721E+03</pdfrwt>
<pdfrwt beam="2">  1       21 0.80755038E-02 0.31880721E+03</pdfrwt>
<totfact> 0.18402111E+05</totfact>
</mgrwt>
</event>
<event>
 8    1  0.9123825E-006  0.2749432E+03  0.7546771E-02  0.1098483E+00
         21   -1    0    0  504  503  0.00000000000E+00  0.00000000000E+00  0.23986687865E+02  0.23986687865E+02  0.00000000000E+00 0.  1.
         21   -1    0    0  503  504 -0.00000000000E+00 -0.00000000000E+00 -0.78787182034E+03  0.78787182034E+03  0.00000000000E+00 0.  1.
         25    2    1    2    0    0 -0.23956083766E+02  0.15332568822E+02 -0.23533874615E+03  0.26798867483E+03  0.12499849110E+03 0.  0.
         25    2    1    2    0    0  0.23956083766E+02 -0.15332568822E+02 -0.52854638632E+03  0.54386983338E+03  0.12499652615E+03 0.  0.
          5    1    3    3  501    0  0.43840005060E+02 -0.79439204252E+01 -0.14944453279E+03  0.15601541685E+03  0.47000000000E+01 0.  1.
         -5    1    3    3    0  501 -0.67796088826E+02  0.23276489247E+02 -0.85894213366E+02  0.11197325797E+03  0.47000000000E+01 0.  1.
          5    1    4    4  502    0 -0.33787180009E+02 -0.23956931460E+02 -0.40502854820E+03  0.40716792967E+03  0.47000000000E+01 0.  1.
         -5    1    4    4    0  502  0.57743263775E+02  0.86243626380E+01 -0.12351783812E+03  0.13670190371E+03  0.47000000000E+01 0.  1.
<mgrwt>
<rscale>  0 0.27494316E+03</rscale>
<asrwt>0</asrwt>
<pdfrwt beam="1">  1       21 0.36902601E-02 0.27494316E+03</pdfrwt>
<pdfrwt beam="2">  1       21 0.12121104E+00 0.27494316E+03</pdfrwt>
<totfact> 0.22496345E+05</totfact>
</mgrwt>
</event>
<event>
 8    1  0.9123825E-006  0.2970552E+03  0.7546771E-02  0.1086722E+00
         21   -1    0    0  504  503  0.00000000000E+00  0.00000000000E+00  0.24707868884E+03  0.24707868884E+03  0.00000000000E+00 0.  1.
         21   -1    0    0  503  504 -0.00000000000E+00 -0.00000000000E+00 -0.89285085419E+02  0.89285085419E+02  0.00000000000E+00 0.  1.
         25    2    1    2    0    0  0.40500474720E+01  0.79728002545E+02  0.70003129659E+02  0.16401116622E+03  0.12500506873E+03 0.  0.
         25    2    1    2    0    0 -0.40500474720E+01 -0.79728002545E+02  0.87790473763E+02  0.17235260804E+03  0.12500118775E+03 0.  0.
          5    1    3    3  501    0 -0.34789510246E+02  0.77312590952E+02  0.86747749858E+02  0.12138702092E+03  0.47000000000E+01 0.  1.
         -5    1    3    3    0  501  0.38839557718E+02  0.24154115935E+01 -0.16744620199E+02  0.42624145300E+02  0.47000000000E+01 0.  1.
          5    1    4    4  502    0 -0.42023066258E+01  0.17445582191E+02 -0.19913545206E+02  0.27214830545E+02  0.47000000000E+01 0.  1.
         -5    1    4    4    0  502  0.15225915375E+00 -0.97173584736E+02  0.10770401897E+03  0.14513777749E+03  0.47000000000E+01 0.  1.
<mgrwt>
<rscale>  0 0.29705516E+03</rscale>
<asrwt>0</asrwt>
<pdfrwt beam="1">  1       21 0.38012106E-01 0.29705516E+03</pdfrwt>
<pdfrwt beam="2">  1       21 0.13736167E-01 0.29705516E+03</pdfrwt>
<totfact> 0.29979089E+05</totfact>
</mgrwt>
</event>
<event>
 8    1  0.9123825E-006  0.2701286E+03  0.7546771E-02  0.1101206E+00
         21   -1    0    0  504  503  0.00000000000E+00  0.00000000000E+00  0.57166414862E+02  0.57166414862E+02  0.00000000000E+00 0. -1.
         21   -1    0    0  503  504 -0.00000000000E+00 -0.00000000000E+00 -0.31910991904E+03  0.31910991904E+03  0.00000000000E+00 0. -1.
         25    2    1    2    0    0 -0.47665708589E+02  0.18584246884E+02 -0.13050085840E+03  0.18781128354E+03  0.12500084069E+03 0.  0.
         25    2    1    2    0    0  0.47665708589E+02 -0.18584246884E+02 -0.13144264578E+03  0.18846505036E+03  0.12499804827E+03 0.  0.
          5    1    3    3  501    0 -0.60503493694E+02 -0.29217533155E+02 -0.11906443187E+03  0.13679461221E+03  0.47000000000E+01 0.  1.
         -5    1    3    3    0  501  0.12837785105E+02  0.47801780039E+02 -0.11436426523E+02  0.51016671323E+02  0.47000000000E+01 0.  1.
          5    1    4    4  502    0  0.54023063143E+02 -0.47442939221E+02 -0.13990580673E+03  0.15736914752E+03  0.47000000000E+01 0.  1.
         -5    1    4    4    0  502 -0.63573545539E+01  0.28858692338E+02  0.84631609547E+01  0.31095902844E+02  0.47000000000E+01 0.  1.
<mgrwt>
<rscale>  0 0.27012864E+03</rscale>
<asrwt>0</asrwt>
<pdfrwt beam="1">  1       21 0.87948331E-02 0.27012864E+03</pdfrwt>
<pdfrwt beam="2">  1       21 0.49093833E-01 0.27012864E+03</pdfrwt>
<totfact> 0.39580545E+05</totfact>
</mgrwt>
</event>
<event>
 8    1  0.9123825E-006  0.2777681E+03  0.7546771E-02  0.1096914E+00
         21   -1    0    0  504  503  0.00000000000E+00  0.00000000000E+00  0.16718086156E+02  0.16718086156E+02  0.00000000000E+00 0.  1.
         21   -1    0    0  503  504 -0.00000000000E+00 -0.00000000000E+00 -0.11537673352E+04  0.11537673352E+04  0.00000000000E+00 0.  1.
         25    2    1    2    0    0 -0.23276913105E+02  0.19771134221E+01 -0.80386452877E+03  0.81385997646E+03  0.12499662804E+03 0.  0.
         25    2    1    2    0    0  0.23276913105E+02 -0.19771134221E+01 -0.33318472032E+03  0.35662544493E+03  0.12499570576E+03 0.  0.
          5    1    3    3  501    0 -0.34763605788E+01 -0.30089753721E+02 -0.47431018410E+02  0.56473621004E+02  0.47000000000E+01 0. -1.
         -5    1    3    3    0  501 -0.19800552526E+02  0.32066867143E+02 -0.75643351036E+03  0.75738635546E+03  0.47000000000E+01 0. -1.
          5    1    4    4  502    0 -0.28338562328E+01  0.59155130761E+02 -0.18066989597E+03  0.19018691214E+03  0.47000000000E+01 0. -1.
         -5    1    4    4    0  502  0.26110769337E+02 -0.61132244183E+02 -0.15251482434E+03  0.16643853279E+03  0.47000000000E+01 0. -1.
<mgrwt>
<rscale>  0 0.27776812E+03</rscale>
<asrwt>0</asrwt>
<pdfrwt beam="1">  1       21 0.25720114E-02 0.27776812E+03</pdfrwt>
<pdfrwt beam="2">  1       21 0.17750280E+00 0.27776812E+03</pdfrwt>
<totfact> 0.14882294E+05</totfact>
</mgrwt>
</event>
<event>
 8    1  0.9123825E-006  0.4159357E+03  0.7546771E-02  0.1038397E+00
         21   -1    0    0  504  503  0.00000000000E+00  0.00000000000E+00  0.61829733444E+03  0.61829733444E+03  0.00000000000E+00 0. -1.
         21   -1    0    0  503  504 -0.00000000000E+00 -0.00000000000E+00 -0.69951167678E+02  0.69951167678E+02  0.00000000000E+00 0. -1.
         25    2    1    2    0    0 -0.27149715919E+02  0.37827254104E+02  0.53818247386E+03  0.55446595251E+03  0.12499643631E+03 0.  0.
         25    2    1    2    0    0  0.27149715919E+02 -0.37827254104E+02  0.10163692901E+02  0.13378254961E+03  0.12500584666E+03 0.  0.
          5    1    3    3  501    0 -0.54245950946E+02  0.31538282503E+02  0.51239771608E+03  0.51624683621E+03  0.47000000000E+01 0.  1.
         -5    1    3    3    0  501  0.27096235027E+02  0.62889716012E+01  0.25784757786E+02  0.38219116297E+02  0.47000000000E+01 0.  1.
          5    1    4    4  502    0 -0.48815478060E+02 -0.11106112805E+02 -0.84751289635E+01  0.50992297956E+02  0.47000000000E+01 0.  1.
         -5    1    4    4    0  502  0.75965193980E+02 -0.26721141300E+02  0.18638821864E+02  0.82790251655E+02  0.47000000000E+01 0.  1.
<mgrwt>
<rscale>  0 0.41593567E+03</rscale>
<asrwt>0</asrwt>
<pdfrwt beam="1">  1       21 0.95122663E-01 0.41593567E+03</pdfrwt>
<pdfrwt beam="2">  1       21 0.10761719E-01 0.41593567E+03</pdfrwt>
<totfact> 0.61054271E+04</totfact>
</mgrwt>
</event>
<event>
 8    1  0.9123825E-006  0.4055935E+03  0.7546771E-02  0.1041860E+00
         21   -1    0    0  504  503  0.00000000000E+00  0.00000000000E+00  0.45398733455E+03  0.45398733455E+03  0.00000000000E+00 0.  1.
         21   -1    0    0  503  504 -0.00000000000E+00 -0.00000000000E+00 -0.90589571623E+02  0.90589571623E+02  0.00000000000E+00 0.  1.
         25    2    1    2    0    0 -0.12837502842E+03 -0.94052853863E+02  0.16387550131E+03  0.26039306223E+03  0.12499311857E+03 0.  0.
         25    2    1    2    0    0  0.12837502842E+03  0.94052853863E+02  0.19952226162E+03  0.28418384394E+03  0.12500094812E+03 0.  0.
          5    1    3    3  501    0 -0.69373539047E+02  0.20837755246E+02  0.50008535767E+02  0.88146716406E+02  0.47000000000E+01 0. -1.
         -5    1    3    3    0  501 -0.59001489375E+02 -0.11489060911E+03  0.11386696554E+03  0.17224634583E+03  0.47000000000E+01 0. -1.
          5    1    4    4  502    0  0.11180139668E+03  0.11295354887E+03  0.20355725735E+03  0.25829383175E+03  0.47000000000E+01 0. -1.
         -5    1    4    4    0  502  0.16573631740E+02 -0.18900695003E+02 -0.40349957254E+01  0.25890012190E+02  0.47000000000E+01 0. -1.
<mgrwt>
<rscale>  0 0.40559348E+03</rscale>
<asrwt>0</asrwt>
<pdfrwt beam="1">  1       21 0.69844204E-01 0.40559348E+03</pdfrwt>
<pdfrwt beam="2">  1       21 0.13936857E-01 0.40559348E+03</pdfrwt>
<totfact> 0.78129566E+04</totfact>
</mgrwt>
</event>
<event>
 8    1  0.9123825E-006  0.3565130E+03  0.7546771E-02  0.1059973E+00
         21   -1    0    0  504  503  0.00000000000E+00  0.00000000000E+00  0.31773308851E+02  0.31773308851E+02  0.00000000000E+00 0. -1.
         21   -1    0    0  503  504 -0.00000000000E+00 -0.00000000000E+00 -0.10000651533E+04  0.10000651533E+04  0.00000000000E+00 0. -1.
         25    2    1    2    0    0 -0.49041110089E+01  0.75313689629E+02 -0.18819048231E+03  0.23818888160E+03  0.12498833361E+03 0.  0.
         25    2    1    2    0    0  0.49041110089E+01 -0.75313689629E+02 -0.78010136214E+03  0.79364958055E+03  0.12500127735E+03 0.  0.
          5    1    3    3  501    0  0.47510669804E+02 -0.59764103676E+01 -0.49449647422E+02  0.68995208937E+02  0.47000000000E+01 0. -1.
         -5    1    3    3    0  501 -0.52414780813E+02  0.81290099996E+02 -0.13874083488E+03  0.16919367266E+03  0.47000000000E+01 0. -1.
          5    1    4    4  502    0  0.58474197817E+02 -0.29018290041E+02 -0.51779926495E+03  0.52191901838E+03  0.47000000000E+01 0.  1.
         -5    1    4    4    0  502 -0.53570086808E+02 -0.46295399587E+02 -0.26230209719E+03  0.27173056217E+03  0.47000000000E+01 0.  1.
<mgrwt>
<rscale>  0 0.35651300E+03</rscale>
<asrwt>0</asrwt>
<pdfrwt beam="1">  1       21 0.48882015E-02 0.35651300E+03</pdfrwt>
<pdfrwt beam="2">  1       21 0.15385617E+00 0.35651300E+03</pdfrwt>
<totfact> 0.73159283E+04</totfact>
</mgrwt>
</event>
<event>
 8    1  0.9123825E-006  0.3448537E+03  0.7546771E-02  0.1064747E+00
         21   -1    0    0  504  503  0.00000000000E+00  0.00000000000E+00  0.46390735895E+03  0.46390735895E+03  0.00000000000E+00 0. -1.
         21   -1    0    0  503  504 -0.00000000000E+00 -0.00000000000E+00 -0.64088261940E+02  0.64088261940E+02  0.00000000000E+00 0. -1.
         25    2    1    2    0    0  0.33678518393E+02 -0.29425359474E+02  0.36837236494E+03  0.39156786268E+03  0.12500838955E+03 0.  0.
         25    2    1    2    0    0 -0.33678518393E+02  0.29425359474E+02  0.31446732069E+02  0.13642775820E+03  0.12499416734E+03 0.  0.
          5    1    3    3  501    0  0.81161139427E+02 -0.13492833857E+02  0.23411475602E+03  0.24819547962E+03  0.47000000000E+01 0.  1.
         -5    1    3    3    0  501 -0.47482621035E+02 -0.15932525617E+02  0.13425760892E+03  0.14337238307E+03  0.47000000000E+01 0.  1.
          5    1    4    4  502    0  0.36739808172E+01  0.73768350557E+02  0.23894349170E+02  0.77770801727E+02  0.47000000000E+01 0.  1.
         -5    1    4    4    0  502 -0.37352499210E+02 -0.44342991083E+02  0.75523828992E+01  0.58656956475E+02  0.47000000000E+01 0.  1.
<mgrwt>
<rscale>  0 0.34485369E+03</rscale>
<asrwt>0</asrwt>
<pdfrwt beam="1">  1       21 0.71370361E-01 0.34485369E+03</pdfrwt>
<pdfrwt beam="2">  1       21 0.98597329E-02 0.34485369E+03</pdfrwt>
<totfact> 0.14129447E+05</totfact>
</mgrwt>
</event>
<event>
 8    1  0.9123825E-006  0.6262674E+03  0.7546771E-02  0.9852360E-01
         21   -1    0    0  504  503  0.00000000000E+00  0.00000000000E+00  0.22510704875E+03  0.22510704875E+03  0.00000000000E+00 0. -1.
         21   -1    0    0  503  504 -0.00000000000E+00 -0.00000000000E+00 -0.43558263901E+03  0.43558263901E+03  0.00000000000E+00 0. -1.
         25    2    1    2    0    0 -0.16379607172E+03  0.13569406434E+03  0.98196344875E+02  0.26553636713E+03  0.12500003166E+03 0.  0.
         25    2    1    2    0    0  0.16379607172E+03 -0.13569406434E+03 -0.30867193513E+03  0.39515332062E+03  0.12500300418E+03 0.  0.
          5    1    3    3  501    0 -0.93446466695E+02  0.31723463896E+01  0.58030496711E+02  0.11014506102E+03  0.47000000000E+01 0. -1.
         -5    1    3    3    0  501 -0.70349605028E+02  0.13252171795E+03  0.40165848164E+02  0.15539130611E+03  0.47000000000E+01 0. -1.
          5    1    4    4  502    0  0.10641788916E+02 -0.55333696379E+02 -0.22733239115E+02  0.60942233197E+02  0.47000000000E+01 0. -1.
         -5    1    4    4    0  502  0.15315428281E+03 -0.80360367956E+02 -0.28593869602E+03  0.33421108743E+03  0.47000000000E+01 0. -1.
<mgrwt>
<rscale>  0 0.62626743E+03</rscale>
<asrwt>0</asrwt>
<pdfrwt beam="1">  1       21 0.34631854E-01 0.62626743E+03</pdfrwt>
<pdfrwt beam="2">  1       21 0.67012714E-01 0.62626743E+03</pdfrwt>
<totfact> 0.14143185E+04</totfact>
</mgrwt>
</event>
<event>
 8    1  0.9123825E-006  0.2743891E+03  0.7546771E-02  0.1098794E+00
         21   -1    0    0  504  503  0.00000000000E+00  0.00000000000E+00  0.57633535826E+02  0.57633535826E+02  0.00000000000E+00 0.  1.
         21   -1    0    0  503  504 -0.00000000000E+00 -0.00000000000E+00 -0.32658658821E+03  0.32658658821E+03  0.00000000000E+00 0.  1.
         25    2    1    2    0    0  0.23773049238E+01 -0.20904514977E+02 -0.60954983404E+02  0.14064029395E+03  0.12498612705E+03 0.  0.
         25    2    1    2    0    0 -0.23773049238E+01  0.20904514977E+02 -0.20799806898E+03  0.24357983008E+03  0.12500114639E+03 0.  0.
          5    1    3    3  501    0 -0.46504774315E+02 -0.11244377762E+02  0.14394265358E+02  0.50183811539E+02  0.47000000000E+01 0. -1.
         -5    1    3    3    0  501  0.48882079239E+02 -0.96601372147E+01 -0.75349248761E+02  0.90456482413E+02  0.47000000000E+01 0. -1.
          5    1    4    4  502    0 -0.15468148399E+02  0.26965061646E+02 -0.22122729300E+03  0.22345018087E+03  0.47000000000E+01 0. -1.
         -5    1    4    4    0  502  0.13090843476E+02 -0.60605466688E+01  0.13229224025E+02  0.20129649205E+02  0.47000000000E+01 0. -1.
<mgrwt>
<rscale>  0 0.27438907E+03</rscale>
<asrwt>0</asrwt>
<pdfrwt beam="1">  1       21 0.88666977E-02 0.27438907E+03</pdfrwt>
<pdfrwt beam="2">  1       21 0.50244091E-01 0.27438907E+03</pdfrwt>
<totfact> 0.37132527E+05</totfact>
</mgrwt>
</event>
<event>
 8    1  0.9123825E-006  0.4433000E+03  0.7546771E-02  0.1029739E+00
         21   -1    0    0  504  503  0.00000000000E+00  0.00000000000E+00  0.13457063063E+03  0.13457063063E+03  0.00000000000E+00 0. -1.
         21   -1    0    0  503  504 -0.00000000000E+00 -0.00000000000E+00 -0.36507764636E+03  0.36507764636E+03  0.00000000000E+00 0. -1.
         25    2    1    2    0    0 -0.78764606065E+02  0.16486179387E+03 -0.10290710548E+03  0.24412723109E+03  0.12499983340E+03 0.  0.
         25    2    1    2    0    0  0.78764606065E+02 -0.16486179387E+03 -0.12759991024E+03  0.25552104591E+03  0.12500397417E+03 0.  0.
          5    1    3    3  501    0 -0.44152338750E+02  0.12521601256E+01 -0.53809018781E+02  0.69774618768E+02  0.47000000000E+01 0. -1.
         -5    1    3    3    0  501 -0.34612267315E+02  0.16360963375E+03 -0.49098086703E+02  0.17435261232E+03  0.47000000000E+01 0. -1.
          5    1    4    4  502    0  0.55053713597E+02 -0.13907776895E+03 -0.15142552618E+03  0.21289743347E+03  0.47000000000E+01 0. -1.
         -5    1    4    4    0  502  0.23710892468E+02 -0.25784024923E+02  0.23825615936E+02  0.42623612442E+02  0.47000000000E+01 0. -1.
<mgrwt>
<rscale>  0 0.44330003E+03</rscale>
<asrwt>0</asrwt>
<pdfrwt beam="1">  1       21 0.20703174E-01 0.44330003E+03</pdfrwt>
<pdfrwt beam="2">  1       21 0.56165792E-01 0.44330003E+03</pdfrwt>
<totfact> 0.59714838E+04</totfact>
</mgrwt>
</event>
<event>
 8    1  0.9123825E-006  0.2647205E+03  0.7546771E-02  0.1104340E+00
         21   -1    0    0  504  503  0.00000000000E+00  0.00000000000E+00  0.22469882846E+03  0.22469882846E+03  0.00000000000E+00 0. -1.
         21   -1    0    0  503  504 -0.00000000000E+00 -0.00000000000E+00 -0.77967651813E+02  0.77967651813E+02  0.00000000000E+00 0. -1.
         25    2    1    2    0    0  0.78966790037E+01  0.18593720064E+02  0.11742537977E+03  0.17269244609E+03  0.12500350858E+03 0.  0.
         25    2    1    2    0    0 -0.78966790037E+01 -0.18593720064E+02  0.29305796869E+02  0.12997403418E+03  0.12500534335E+03 0.  0.
          5    1    3    3  501    0 -0.23208531496E+02  0.54476395076E+02  0.10914145126E+03  0.12425884249E+03  0.47000000000E+01 0. -1.
         -5    1    3    3    0  501  0.31105210500E+02 -0.35882675012E+02  0.82839285187E+01  0.48433603603E+02  0.47000000000E+01 0. -1.
          5    1    4    4  502    0 -0.52021565818E+02 -0.14002423748E+02  0.56111364202E+02  0.77928726241E+02  0.47000000000E+01 0.  1.
         -5    1    4    4    0  502  0.44124886814E+02 -0.45912963156E+01 -0.26805567332E+02  0.52045307937E+02  0.47000000000E+01 0.  1.
<mgrwt>
<rscale>  0 0.26472053E+03</rscale>
<asrwt>0</asrwt>
<pdfrwt beam="1">  1       21 0.34569050E-01 0.26472053E+03</pdfrwt>
<pdfrwt beam="2">  1       21 0.11995023E-01 0.26472053E+03</pdfrwt>
<totfact> 0.46684258E+05</totfact>
</mgrwt>
</event>
<event>
 8    1  0.9123825E-006  0.2874670E+03  0.7546771E-02  0.1091679E+00
         21   -1    0    0  504  503  0.00000000000E+00  0.00000000000E+00  0.20266110858E+03  0.20266110858E+03  0.00000000000E+00 0.  1.
         21   -1    0    0  503  504 -0.00000000000E+00 -0.00000000000E+00 -0.10194025413E+03  0.10194025413E+03  0.00000000000E+00 0.  1.
         25    2    1    2    0    0  0.31924295792E+02 -0.62232210972E+02  0.37708523756E+02  0.14811758728E+03  0.12499951262E+03 0.  0.
         25    2    1    2    0    0 -0.31924295792E+02  0.62232210972E+02  0.63012330700E+02  0.15648377542E+03  0.12499843762E+03 0.  0.
          5    1    3    3  501    0 -0.23242937092E+01 -0.46515473624E+02 -0.40034911805E+02  0.61595257861E+02  0.47000000000E+01 0.  1.
         -5    1    3    3    0  501  0.34248589502E+02 -0.15716737348E+02  0.77743435561E+02  0.86522329422E+02  0.47000000000E+01 0.  1.
          5    1    4    4  502    0 -0.40185830022E+02  0.97378206297E+02  0.56034371571E+02  0.11941254873E+03  0.47000000000E+01 0. -1.
         -5    1    4    4    0  502  0.82615342299E+01 -0.35145995325E+02  0.69779591289E+01  0.37071226697E+02  0.47000000000E+01 0. -1.
<mgrwt>
<rscale>  0 0.28746704E+03</rscale>
<asrwt>0</asrwt>
<pdfrwt beam="1">  1       21 0.31178632E-01 0.28746704E+03</pdfrwt>
<pdfrwt beam="2">  1       21 0.15683116E-01 0.28746704E+03</pdfrwt>
<totfact> 0.35008853E+05</totfact>
</mgrwt>
</event>
<event>
 8    1  0.9123825E-006  0.3925257E+03  0.7546771E-02  0.1046399E+00
         21   -1    0    0  504  503  0.00000000000E+00  0.00000000000E+00  0.18481458350E+03  0.18481458350E+03  0.00000000000E+00 0. -1.
         21   -1    0    0  503  504 -0.00000000000E+00 -0.00000000000E+00 -0.20842032233E+03  0.20842032233E+03  0.00000000000E+00 0. -1.
         25    2    1    2    0    0  0.91688149321E+02  0.11424649823E+03 -0.49771989826E+02  0.19889530213E+03  0.12499244439E+03 0.  0.
         25    2    1    2    0    0 -0.91688149321E+02 -0.11424649823E+03  0.26166250998E+02  0.19433960371E+03  0.12499691914E+03 0.  0.
          5    1    3    3  501    0  0.87269920978E+02  0.27277129951E+02 -0.62372662083E+02  0.11078140594E+03  0.47000000000E+01 0.  1.
         -5    1    3    3    0  501  0.44182283430E+01  0.86969368281E+02  0.12600672257E+02  0.88113896193E+02  0.47000000000E+01 0.  1.
          5    1    4    4  502    0 -0.27165823168E+02  0.15198286060E+02 -0.25674882181E+02  0.40623385169E+02  0.47000000000E+01 0.  1.
         -5    1    4    4    0  502 -0.64522326152E+02 -0.12944478429E+03  0.51841133179E+02  0.15371621854E+03  0.47000000000E+01 0.  1.
<mgrwt>
<rscale>  0 0.39252574E+03</rscale>
<asrwt>0</asrwt>
<pdfrwt beam="1">  1       21 0.28433013E-01 0.39252574E+03</pdfrwt>
<pdfrwt beam="2">  1       21 0.32064665E-01 0.39252574E+03</pdfrwt>
<totfact> 0.10450345E+05</totfact>
</mgrwt>
</event>
<event>
 8    1  0.9123825E-006  0.4710058E+03  0.7546771E-02  0.1021637E+00
         21   -1    0    0  504  503  0.00000000000E+00  0.00000000000E+00  0.11075490981E+04  0.11075490981E+04  0.00000000000E+00 0. -1.
         21   -1    0    0  503  504 -0.00000000000E+00 -0.00000000000E+00 -0.50075983112E+02  0.50075983112E+02  0.00000000000E+00 0. -1.
         25    2    1    2    0    0  0.17235439281E+03 -0.51354576864E+02  0.74149094940E+03  0.77316030678E+03  0.12499881061E+03 0.  0.
         25    2    1    2    0    0 -0.17235439281E+03  0.51354576864E+02  0.31598216558E+03  0.38446477442E+03  0.12500041808E+03 0.  0.
          5    1    3    3  501    0  0.16186296213E+03 -0.25915437868E+02  0.42660838504E+03  0.45704270327E+03  0.47000000000E+01 0.  1.
         -5    1    3    3    0  501  0.10491430688E+02 -0.25439138996E+02  0.31488256436E+03  0.31611760351E+03  0.47000000000E+01 0.  1.
          5    1    4    4  502    0 -0.10306532861E+03  0.51770780694E+02  0.85231042093E+02  0.14348901084E+03  0.47000000000E+01 0. -1.
         -5    1    4    4    0  502 -0.69289064201E+02 -0.41620382966E+00  0.23075112349E+03  0.24097576358E+03  0.47000000000E+01 0. -1.
<mgrwt>
<rscale>  0 0.47100577E+03</rscale>
<asrwt>0</asrwt>
<pdfrwt beam="1">  1       21 0.17039215E+00 0.47100577E+03</pdfrwt>
<pdfrwt beam="2">  1       21 0.77039982E-02 0.47100577E+03</pdfrwt>
<totfact> 0.24097429E+04</totfact>
</mgrwt>
</event>
<event>
 8    1  0.9123825E-006  0.2969713E+03  0.7546771E-02  0.1086765E+00
         21   -1    0    0  504  503  0.00000000000E+00  0.00000000000E+00  0.15553539005E+02  0.15553539005E+02  0.00000000000E+00 0. -1.
         21   -1    0    0  503  504 -0.00000000000E+00 -0.00000000000E+00 -0.14175542286E+04  0.14175542286E+04  0.00000000000E+00 0. -1.
         25    2    1    2    0    0  0.30150301389E+02  0.33163601699E+02 -0.10215496203E+04  0.10301446195E+04  0.12500178020E+03 0.  0.
         25    2    1    2    0    0 -0.30150301389E+02 -0.33163601699E+02 -0.38045106927E+03  0.40296314815E+03  0.12500966965E+03 0.  0.
          5    1    3    3  501    0  0.40918173059E+02 -0.27989546678E+02 -0.74537350674E+03  0.74703511708E+03  0.47000000000E+01 0.  1.
         -5    1    3    3    0  501 -0.10767871670E+02  0.61153148377E+02 -0.27617611359E+03  0.28310950237E+03  0.47000000000E+01 0.  1.
          5    1    4    4  502    0 -0.10336923490E+02 -0.77893538792E+02 -0.17794281058E+03  0.19457643540E+03  0.47000000000E+01 0.  1.
         -5    1    4    4    0  502 -0.19813377899E+02  0.44729937093E+02 -0.20250825869E+03  0.20838671275E+03  0.47000000000E+01 0.  1.
<mgrwt>
<rscale>  0 0.29697128E+03</rscale>
<asrwt>0</asrwt>
<pdfrwt beam="1">  1       21 0.23928516E-02 0.29697128E+03</pdfrwt>
<pdfrwt beam="2">  1       21 0.21808531E+00 0.29697128E+03</pdfrwt>
<totfact> 0.89880334E+04</totfact>
</mgrwt>
</event>
<event>
 8    1  0.9123825E-006  0.3434215E+03  0.7546771E-02  0.1065348E+00
         21   -1    0    0  504  503  0.00000000000E+00  0.00000000000E+00  0.30540194549E+03  0.30540194549E+03  0.00000000000E+00 0.  1.
         21   -1    0    0  503  504 -0.00000000000E+00 -0.00000000000E+00 -0.96543542684E+02  0.96543542684E+02  0.00000000000E+00 0.  1.
         25    2    1    2    0    0  0.59478340643E+01 -0.82006427313E+02  0.20303264409E+03  0.25220607679E+03  0.12500087902E+03 0.  0.
         25    2    1    2    0    0 -0.59478340643E+01  0.82006427313E+02  0.58257587163E+01  0.14973941138E+03  0.12501008361E+03 0.  0.
          5    1    3    3  501    0 -0.35909591414E+02 -0.44405162440E+02  0.20045662318E+02  0.60706142891E+02  0.47000000000E+01 0.  1.
         -5    1    3    3    0  501  0.41857425479E+02 -0.37601264873E+02  0.18298698177E+03  0.19149993390E+03  0.47000000000E+01 0.  1.
          5    1    4    4  502    0 -0.22237578956E+02 -0.24307953447E+02  0.23365369749E+02  0.40662230904E+02  0.47000000000E+01 0. -1.
         -5    1    4    4    0  502  0.16289744892E+02  0.10631438076E+03 -0.17539611033E+02  0.10907718047E+03  0.47000000000E+01 0. -1.
<mgrwt>
<rscale>  0 0.34342152E+03</rscale>
<asrwt>0</asrwt>
<pdfrwt beam="1">  1       21 0.46984914E-01 0.34342152E+03</pdfrwt>
<pdfrwt beam="2">  1       21 0.14852853E-01 0.34342152E+03</pdfrwt>
<totfact> 0.16626104E+05</totfact>
</mgrwt>
</event>
<event>
 8    1  0.9123825E-006  0.3668454E+03  0.7546771E-02  0.1055906E+00
         21   -1    0    0  504  503  0.00000000000E+00  0.00000000000E+00  0.51681822995E+02  0.51681822995E+02  0.00000000000E+00 0.  1.
         21   -1    0    0  503  504 -0.00000000000E+00 -0.00000000000E+00 -0.65098103433E+03  0.65098103433E+03  0.00000000000E+00 0.  1.
         25    2    1    2    0    0  0.49577671624E+02 -0.58867428696E+02 -0.51029613354E+03  0.53099064395E+03  0.12500240149E+03 0.  0.
         25    2    1    2    0    0 -0.49577671624E+02  0.58867428696E+02 -0.89003077793E+02  0.17167221337E+03  0.12500592506E+03 0.  0.
          5    1    3    3  501    0  0.97587728170E+01 -0.75669128018E+01  0.30265067914E+01  0.13555130379E+02  0.47000000000E+01 0. -1.
         -5    1    3    3    0  501  0.39818898807E+02 -0.51300515895E+02 -0.51332264033E+03  0.51743551357E+03  0.47000000000E+01 0. -1.
          5    1    4    4  502    0 -0.71028060085E+02  0.82288368840E+02 -0.46298926469E+02  0.11824568304E+03  0.47000000000E+01 0.  1.
         -5    1    4    4    0  502  0.21450388460E+02 -0.23420940143E+02 -0.42704151324E+02  0.53426530326E+02  0.47000000000E+01 0.  1.
<mgrwt>
<rscale>  0 0.36684540E+03</rscale>
<asrwt>0</asrwt>
<pdfrwt beam="1">  1       21 0.79510497E-02 0.36684540E+03</pdfrwt>
<pdfrwt beam="2">  1       21 0.10015093E+00 0.36684540E+03</pdfrwt>
<totfact> 0.93691494E+04</totfact>
</mgrwt>
</event>
<event>
 8    1  0.9123825E-006  0.2639087E+03  0.7546771E-02  0.1104817E+00
         21   -1    0    0  504  503  0.00000000000E+00  0.00000000000E+00  0.16466134450E+03  0.16466134450E+03  0.00000000000E+00 0. -1.
         21   -1    0    0  503  504 -0.00000000000E+00 -0.00000000000E+00 -0.10574404645E+03  0.10574404645E+03  0.00000000000E+00 0. -1.
         25    2    1    2    0    0  0.26444907943E+02  0.32376975770E+02  0.35883604011E+02  0.13660315224E+03  0.12500074579E+03 0.  0.
         25    2    1    2    0    0 -0.26444907943E+02 -0.32376975770E+02  0.23033694037E+02  0.13380223871E+03  0.12499954523E+03 0.  0.
          5    1    3    3  501    0  0.22613468946E+02 -0.40339481522E+02 -0.13606799982E+02  0.48434262181E+02  0.47000000000E+01 0.  1.
         -5    1    3    3    0  501  0.38314389976E+01  0.72716457292E+02  0.49490403994E+02  0.88168890054E+02  0.47000000000E+01 0.  1.
          5    1    4    4  502    0  0.13479358661E+02  0.18565935322E+02  0.56228771498E+02  0.60911015493E+02  0.47000000000E+01 0.  1.
         -5    1    4    4    0  502 -0.39924266604E+02 -0.50942911092E+02 -0.33195077461E+02  0.72891223217E+02  0.47000000000E+01 0.  1.
<mgrwt>
<rscale>  0 0.26390875E+03</rscale>
<asrwt>0</asrwt>
<pdfrwt beam="1">  1       21 0.25332515E-01 0.26390875E+03</pdfrwt>
<pdfrwt beam="2">  1       21 0.16268315E-01 0.26390875E+03</pdfrwt>
<totfact> 0.49270518E+05</totfact>
</mgrwt>
</event>
<event>
 8    1  0.9123825E-006  0.3807126E+03  0.7546771E-02  0.1050671E+00
         21   -1    0    0  504  503  0.00000000000E+00  0.00000000000E+00  0.91100836217E+02  0.91100836217E+02  0.00000000000E+00 0. -1.
         21   -1    0    0  503  504 -0.00000000000E+00 -0.00000000000E+00 -0.39775176240E+03  0.39775176240E+03  0.00000000000E+00 0. -1.
         25    2    1    2    0    0 -0.66023291264E+02 -0.12736951014E+03 -0.14632061905E+03  0.24003327583E+03  0.12499673133E+03 0.  0.
         25    2    1    2    0    0  0.66023291264E+02  0.12736951014E+03 -0.16033030713E+03  0.24881932279E+03  0.12499272341E+03 0.  0.
          5    1    3    3  501    0 -0.39087085034E+02 -0.14858103686E+03 -0.13189796013E+03  0.20254206136E+03  0.47000000000E+01 0.  1.
         -5    1    3    3    0  501 -0.26936206230E+02  0.21211526725E+02 -0.14422658921E+02  0.37491214470E+02  0.47000000000E+01 0.  1.
          5    1    4    4  502    0  0.62127046269E+02  0.91412606245E+02 -0.31641553395E+02  0.11506221082E+03  0.47000000000E+01 0. -1.
         -5    1    4    4    0  502  0.38962449955E+01  0.35956903895E+02 -0.12868875374E+03  0.13375711197E+03  0.47000000000E+01 0. -1.
<mgrwt>
<rscale>  0 0.38071259E+03</rscale>
<asrwt>0</asrwt>
<pdfrwt beam="1">  1       21 0.14015514E-01 0.38071259E+03</pdfrwt>
<pdfrwt beam="2">  1       21 0.61192578E-01 0.38071259E+03</pdfrwt>
<totfact> 0.10424888E+05</totfact>
</mgrwt>
</event>
<event>
 8    1  0.9123825E-006  0.2903287E+03  0.7546771E-02  0.1090178E+00
         21   -1    0    0  504  503  0.00000000000E+00  0.00000000000E+00  0.47663371886E+02  0.47663371886E+02  0.00000000000E+00 0. -1.
         21   -1    0    0  503  504 -0.00000000000E+00 -0.00000000000E+00 -0.44211489241E+03  0.44211489241E+03  0.00000000000E+00 0. -1.
         25    2    1    2    0    0  0.51313804012E+02 -0.42282158516E+02 -0.25134113025E+03  0.28847587616E+03  0.12500031985E+03 0.  0.
         25    2    1    2    0    0 -0.51313804012E+02  0.42282158516E+02 -0.14311039028E+03  0.20130238813E+03  0.12498472007E+03 0.  0.
          5    1    3    3  501    0  0.87420956235E+02 -0.48734651450E+02 -0.14808728210E+03  0.17879995235E+03  0.47000000000E+01 0. -1.
         -5    1    3    3    0  501 -0.36107152223E+02  0.64524929338E+01 -0.10325384815E+03  0.10967592381E+03  0.47000000000E+01 0. -1.
          5    1    4    4  502    0  0.11655157480E+02 -0.11657833345E+02 -0.11091791254E+03  0.11223466976E+03  0.47000000000E+01 0. -1.
         -5    1    4    4    0  502 -0.62968961492E+02  0.53939991861E+02 -0.32192477740E+02  0.89067718374E+02  0.47000000000E+01 0. -1.
<mgrwt>
<rscale>  0 0.29032869E+03</rscale>
<asrwt>0</asrwt>
<pdfrwt beam="1">  1       21 0.73328263E-02 0.29032869E+03</pdfrwt>
<pdfrwt beam="2">  1       21 0.68017677E-01 0.29032869E+03</pdfrwt>
<totfact> 0.26868016E+05</totfact>
</mgrwt>
</event>
<event>
 8    1  0.9123825E-006  0.4407647E+03  0.7546771E-02  0.1030512E+00
         21   -1    0    0  504  503  0.00000000000E+00  0.00000000000E+00  0.10552493644E+04  0.10552493644E+04  0.00000000000E+00 0. -1.
         21   -1    0    0  503  504 -0.00000000000E+00 -0.00000000000E+00 -0.46025504985E+02  0.46025504985E+02  0.00000000000E+00 0. -1.
         25    2    1    2    0    0 -0.17380288097E+03 -0.49284213614E+02  0.46084738796E+03  0.51053054081E+03  0.12499897185E+03 0.  0.
         25    2    1    2    0    0  0.17380288097E+03  0.49284213614E+02  0.54837647145E+03  0.59074432857E+03  0.12500292857E+03 0.  0.
          5    1    3    3  501    0 -0.10094033759E+03 -0.16078301371E+02  0.39101483055E+03  0.40418083977E+03  0.47000000000E+01 0.  1.
         -5    1    3    3    0  501 -0.72862543386E+02 -0.33205912243E+02  0.69832557407E+02  0.10634970104E+03  0.47000000000E+01 0.  1.
          5    1    4    4  502    0  0.23851565517E+02 -0.36710598013E+02  0.77710049652E+02  0.89316890906E+02  0.47000000000E+01 0. -1.
         -5    1    4    4    0  502  0.14995131546E+03  0.85994811628E+02  0.47066642179E+03  0.50142743766E+03  0.47000000000E+01 0. -1.
<mgrwt>
<rscale>  0 0.44076472E+03</rscale>
<asrwt>0</asrwt>
<pdfrwt beam="1">  1       21 0.16234604E+00 0.44076472E+03</pdfrwt>
<pdfrwt beam="2">  1       21 0.70808477E-02 0.44076472E+03</pdfrwt>
<totfact> 0.32336288E+04</totfact>
</mgrwt>
</event>
<event>
 8    1  0.9123825E-006  0.3299772E+03  0.7546771E-02  0.1071147E+00
         21   -1    0    0  504  503  0.00000000000E+00  0.00000000000E+00  0.11666870872E+04  0.11666870872E+04  0.00000000000E+00 0.  1.
         21   -1    0    0  503  504 -0.00000000000E+00 -0.00000000000E+00 -0.23332074602E+02  0.23332074602E+02  0.00000000000E+00 0.  1.
         25    2    1    2    0    0  0.30905322598E+02  0.55491289513E+02  0.25809249012E+03  0.29372109498E+03  0.12500370396E+03 0.  0.
         25    2    1    2    0    0 -0.30905322598E+02 -0.55491289513E+02  0.88526252246E+03  0.89629806680E+03  0.12500427475E+03 0.  0.
          5    1    3    3  501    0 -0.10631527112E+02  0.67923281587E+02  0.23391905963E+03  0.24385819241E+03  0.47000000000E+01 0.  1.
         -5    1    3    3    0  501  0.41536849710E+02 -0.12431992074E+02  0.24173430493E+02  0.49862902569E+02  0.47000000000E+01 0.  1.
          5    1    4    4  502    0 -0.76048168069E+02 -0.42650605284E+02  0.68568392217E+03  0.69122133150E+03  0.47000000000E+01 0. -1.
         -5    1    4    4    0  502  0.45142845471E+02 -0.12840684230E+02  0.19957860029E+03  0.20507673530E+03  0.47000000000E+01 0. -1.
<mgrwt>
<rscale>  0 0.32997715E+03</rscale>
<asrwt>0</asrwt>
<pdfrwt beam="1">  1       21 0.17949028E+00 0.32997715E+03</pdfrwt>
<pdfrwt beam="2">  1       21 0.35895508E-02 0.32997715E+03</pdfrwt>
<totfact> 0.81058839E+04</totfact>
</mgrwt>
</event>
<event>
 8    1  0.9123825E-006  0.2519599E+03  0.7546771E-02  0.1112072E+00
         21   -1    0    0  504  503  0.00000000000E+00  0.00000000000E+00  0.35002143722E+03  0.35002143722E+03  0.00000000000E+00 0.  1.
         21   -1    0    0  503  504 -0.00000000000E+00 -0.00000000000E+00 -0.45342801208E+02  0.45342801208E+02  0.00000000000E+00 0.  1.
         25    2    1    2    0    0 -0.45804767066E+01  0.49888608859E+01  0.17446143964E+03  0.21472774004E+03  0.12500135567E+03 0.  0.
         25    2    1    2    0    0  0.45804767066E+01 -0.49888608859E+01  0.13021719637E+03  0.18063649839E+03  0.12500862698E+03 0.  0.
          5    1    3    3  501    0 -0.23699805515E+02  0.96652126755E+01  0.18837873418E+03  0.19016764869E+03  0.47000000000E+01 0.  1.
         -5    1    3    3    0  501  0.19119328808E+02 -0.46763517896E+01 -0.13917294531E+02  0.24560091351E+02  0.47000000000E+01 0.  1.
          5    1    4    4  502    0 -0.39882158805E+02 -0.30511228247E+02  0.12214284200E+02  0.51892199593E+02  0.47000000000E+01 0. -1.
         -5    1    4    4    0  502  0.44462635512E+02  0.25522367361E+02  0.11800291217E+03  0.12874429880E+03  0.47000000000E+01 0. -1.
<mgrwt>
<rscale>  0 0.25195994E+03</rscale>
<asrwt>0</asrwt>
<pdfrwt beam="1">  1       21 0.53849450E-01 0.25195994E+03</pdfrwt>
<pdfrwt beam="2">  1       21 0.69758158E-02 0.25195994E+03</pdfrwt>
<totfact> 0.49025982E+05</totfact>
</mgrwt>
</event>
<event>
 8    1  0.9123825E-006  0.2619144E+03  0.7546771E-02  0.1105998E+00
         21   -1    0    0  504  503  0.00000000000E+00  0.00000000000E+00  0.92359740380E+03  0.92359740380E+03  0.00000000000E+00 0.  1.
         21   -1    0    0  503  504 -0.00000000000E+00 -0.00000000000E+00 -0.18568463110E+02  0.18568463110E+02  0.00000000000E+00 0.  1.
         25    2    1    2    0    0  0.35910512006E+01 -0.17492383170E+01  0.59228395354E+03  0.60534240406E+03  0.12499275599E+03 0.  0.
         25    2    1    2    0    0 -0.35910512006E+01  0.17492383170E+01  0.31274498715E+03  0.33682346285E+03  0.12499865061E+03 0.  0.
          5    1    3    3  501    0  0.30749205463E+02 -0.44916500433E+02  0.14188631820E+03  0.15204217488E+03  0.47000000000E+01 0.  1.
         -5    1    3    3    0  501 -0.27158154262E+02  0.43167262115E+02  0.45039763534E+03  0.45330022919E+03  0.47000000000E+01 0.  1.
          5    1    4    4  502    0  0.26100007821E+02  0.12281584669E+02  0.78396066381E+01  0.30258836106E+02  0.47000000000E+01 0.  1.
         -5    1    4    4    0  502 -0.29691059021E+02 -0.10532346352E+02  0.30490538051E+03  0.30656462674E+03  0.47000000000E+01 0.  1.
<mgrwt>
<rscale>  0 0.26191437E+03</rscale>
<asrwt>0</asrwt>
<pdfrwt beam="1">  1       21 0.14209187E+00 0.26191437E+03</pdfrwt>
<pdfrwt beam="2">  1       21 0.28566874E-02 0.26191437E+03</pdfrwt>
<totfact> 0.23058969E+05</totfact>
</mgrwt>
</event>
<event>
 8    1  0.9123825E-006  0.3328824E+03  0.7546771E-02  0.1069869E+00
         21   -1    0    0  504  503  0.00000000000E+00  0.00000000000E+00  0.21668441861E+03  0.21668441861E+03  0.00000000000E+00 0.  1.
         21   -1    0    0  503  504 -0.00000000000E+00 -0.00000000000E+00 -0.12784799567E+03  0.12784799567E+03  0.00000000000E+00 0.  1.
         25    2    1    2    0    0  0.62589847197E+02  0.90335354540E+02  0.45547565471E+02  0.17255736629E+03  0.12499399461E+03 0.  0.
         25    2    1    2    0    0 -0.62589847197E+02 -0.90335354540E+02  0.43288857471E+02  0.17197504799E+03  0.12499410665E+03 0.  0.
          5    1    3    3  501    0  0.30981250037E+01  0.62763983517E+02  0.77152008393E+02  0.99616456495E+02  0.47000000000E+01 0. -1.
         -5    1    3    3    0  501  0.59491722194E+02  0.27571371023E+02 -0.31604442922E+02  0.72940909797E+02  0.47000000000E+01 0. -1.
          5    1    4    4  502    0 -0.45311794407E+02 -0.28179243893E+02  0.80993349529E+02  0.97104279857E+02  0.47000000000E+01 0. -1.
         -5    1    4    4    0  502 -0.17278052791E+02 -0.62156110647E+02 -0.37704492057E+02  0.74870768129E+02  0.47000000000E+01 0. -1.
<mgrwt>
<rscale>  0 0.33288237E+03</rscale>
<asrwt>0</asrwt>
<pdfrwt beam="1">  1       21 0.33336065E-01 0.33288237E+03</pdfrwt>
<pdfrwt beam="2">  1       21 0.19668922E-01 0.33288237E+03</pdfrwt>
<totfact> 0.19910775E+05</totfact>
</mgrwt>
</event>
<event>
 8    1  0.9123825E-006  0.3318247E+03  0.7546771E-02  0.1070332E+00
         21   -1    0    0  504  503  0.00000000000E+00  0.00000000000E+00  0.78824391781E+02  0.78824391781E+02  0.00000000000E+00 0. -1.
         21   -1    0    0  503  504 -0.00000000000E+00 -0.00000000000E+00 -0.34921809130E+03  0.34921809130E+03  0.00000000000E+00 0. -1.
         25    2    1    2    0    0 -0.63935096743E+02  0.31034690173E+02 -0.28442538050E+02  0.14657570586E+03  0.12499844394E+03 0.  0.
         25    2    1    2    0    0  0.63935096743E+02 -0.31034690173E+02 -0.24195116147E+03  0.28146677722E+03  0.12502933078E+03 0.  0.
          5    1    3    3  501    0 -0.73767656838E+02  0.22259860293E+02 -0.69083086019E+02  0.10359407005E+03  0.47000000000E+01 0. -1.
         -5    1    3    3    0  501  0.98325600951E+01  0.87748298794E+01  0.40640547969E+02  0.42981635807E+02  0.47000000000E+01 0. -1.
          5    1    4    4  502    0  0.58675151682E+01 -0.35236027212E+02 -0.37669712480E+01  0.36225480263E+02  0.47000000000E+01 0.  1.
         -5    1    4    4    0  502  0.58067581575E+02  0.42013370394E+01 -0.23818419022E+03  0.24524129696E+03  0.47000000000E+01 0.  1.
<mgrwt>
<rscale>  0 0.33182467E+03</rscale>
<asrwt>0</asrwt>
<pdfrwt beam="1">  1       21 0.12126830E-01 0.33182467E+03</pdfrwt>
<pdfrwt beam="2">  1       21 0.53725860E-01 0.33182467E+03</pdfrwt>
<totfact> 0.18182044E+05</totfact>
</mgrwt>
</event>
<event>
 8    1  0.9123825E-006  0.3292979E+03  0.7546771E-02  0.1071448E+00
         21   -1    0    0  504  503  0.00000000000E+00  0.00000000000E+00  0.21126658159E+03  0.21126658159E+03  0.00000000000E+00 0. -1.
         21   -1    0    0  503  504 -0.00000000000E+00 -0.00000000000E+00 -0.12831789985E+03  0.12831789985E+03  0.00000000000E+00 0. -1.
         25    2    1    2    0    0  0.81103020587E+02  0.68160749593E+02  0.24833669550E+02  0.16572841631E+03  0.12500243637E+03 0.  0.
         25    2    1    2    0    0 -0.81103020587E+02 -0.68160749593E+02  0.58115012191E+02  0.17385606513E+03  0.12499995603E+03 0.  0.
          5    1    3    3  501    0  0.20942527911E+02  0.81431133603E+02  0.51196449214E+02  0.98553464715E+02  0.47000000000E+01 0.  1.
         -5    1    3    3    0  501  0.60160492676E+02 -0.13270384010E+02 -0.26362779664E+02  0.67174951600E+02  0.47000000000E+01 0.  1.
          5    1    4    4  502    0 -0.71229074021E+02  0.16444212437E+02  0.48845340659E+02  0.88045161211E+02  0.47000000000E+01 0. -1.
         -5    1    4    4    0  502 -0.98739465652E+01 -0.84604962030E+02  0.92696715321E+01  0.85810903918E+02  0.47000000000E+01 0. -1.
<mgrwt>
<rscale>  0 0.32929794E+03</rscale>
<asrwt>0</asrwt>
<pdfrwt beam="1">  1       21 0.32502551E-01 0.32929794E+03</pdfrwt>
<pdfrwt beam="2">  1       21 0.19741215E-01 0.32929794E+03</pdfrwt>
<totfact> 0.20813014E+05</totfact>
</mgrwt>
</event>
<event>
 8    1  0.9123825E-006  0.2617628E+03  0.7546771E-02  0.1106089E+00
         21   -1    0    0  504  503  0.00000000000E+00  0.00000000000E+00  0.33728423565E+04  0.33728423565E+04  0.00000000000E+00 0. -1.
         21   -1    0    0  503  504 -0.00000000000E+00 -0.00000000000E+00 -0.50787858694E+01  0.50787858694E+01  0.00000000000E+00 0. -1.
         25    2    1    2    0    0 -0.35860647161E+02 -0.11554611381E+02  0.18007657632E+04  0.18054918831E+04  0.12499644428E+03 0.  0.
         25    2    1    2    0    0  0.35860647161E+02  0.11554611381E+02  0.15669978075E+04  0.15724292593E+04  0.12502860375E+03 0.  0.
          5    1    3    3  501    0 -0.59150068598E+02  0.13610736560E+02  0.16359166583E+04  0.16370489870E+04  0.47000000000E+01 0. -1.
         -5    1    3    3    0  501  0.23289421437E+02 -0.25165347941E+02  0.16484910484E+03  0.16844289612E+03  0.47000000000E+01 0. -1.
          5    1    4    4  502    0  0.82678817470E+02  0.43579114080E+01  0.97352383454E+03  0.97704939725E+03  0.47000000000E+01 0. -1.
         -5    1    4    4    0  502 -0.46818170309E+02  0.71966999733E+01  0.59347397294E+03  0.59537986204E+03  0.47000000000E+01 0. -1.
<mgrwt>
<rscale>  0 0.26176282E+03</rscale>
<asrwt>0</asrwt>
<pdfrwt beam="1">  1       21 0.51889703E+00 0.26176282E+03</pdfrwt>
<pdfrwt beam="2">  1       21 0.78135437E-03 0.26176282E+03</pdfrwt>
<totfact> 0.71009551E+03</totfact>
</mgrwt>
</event>
<event>
 8    1  0.9123825E-006  0.3534718E+03  0.7546771E-02  0.1061199E+00
         21   -1    0    0  504  503  0.00000000000E+00  0.00000000000E+00  0.22221315561E+03  0.22221315561E+03  0.00000000000E+00 0. -1.
         21   -1    0    0  503  504 -0.00000000000E+00 -0.00000000000E+00 -0.14056579946E+03  0.14056579946E+03  0.00000000000E+00 0. -1.
         25    2    1    2    0    0  0.78262878821E+02  0.95252297403E+02  0.61673148148E+02  0.18608116313E+03  0.12499817481E+03 0.  0.
         25    2    1    2    0    0 -0.78262878821E+02 -0.95252297403E+02  0.19974208005E+02  0.17669779195E+03  0.12500024933E+03 0.  0.
          5    1    3    3  501    0 -0.24411113617E+02  0.58542919873E+02  0.39009947507E+02  0.74612612471E+02  0.47000000000E+01 0. -1.
         -5    1    3    3    0  501  0.10267399244E+03  0.36709377530E+02  0.22663200642E+02  0.11146855065E+03  0.47000000000E+01 0. -1.
          5    1    4    4  502    0 -0.77458584816E+02 -0.69262032297E+02  0.66312278281E+02  0.12335505555E+03  0.47000000000E+01 0.  1.
         -5    1    4    4    0  502 -0.80429400478E+00 -0.25990265106E+02 -0.46338070276E+02  0.53342736394E+02  0.47000000000E+01 0.  1.
<mgrwt>
<rscale>  0 0.35347175E+03</rscale>
<asrwt>0</asrwt>
<pdfrwt beam="1">  1       21 0.34186639E-01 0.35347175E+03</pdfrwt>
<pdfrwt beam="2">  1       21 0.21625508E-01 0.35347175E+03</pdfrwt>
<totfact> 0.15745867E+05</totfact>
</mgrwt>
</event>
<event>
 8    1  0.9123825E-006  0.2731039E+03  0.7546771E-02  0.1099516E+00
         21   -1    0    0  504  503  0.00000000000E+00  0.00000000000E+00  0.28913401237E+03  0.28913401237E+03  0.00000000000E+00 0.  1.
         21   -1    0    0  503  504 -0.00000000000E+00 -0.00000000000E+00 -0.64490652064E+02  0.64490652064E+02  0.00000000000E+00 0.  1.
         25    2    1    2    0    0 -0.12095987093E+02 -0.42016677000E+02  0.69184944514E+02  0.14941270581E+03  0.12500354420E+03 0.  0.
         25    2    1    2    0    0  0.12095987093E+02  0.42016677000E+02  0.15545841579E+03  0.20421195861E+03  0.12499396366E+03 0.  0.
          5    1    3    3  501    0 -0.46208249882E+02 -0.56910944208E+02  0.81694748242E+02  0.10986437010E+03  0.47000000000E+01 0. -1.
         -5    1    3    3    0  501  0.34112262789E+02  0.14894267208E+02 -0.12509803729E+02  0.39548335712E+02  0.47000000000E+01 0. -1.
          5    1    4    4  502    0 -0.15159262241E+02  0.75465544426E+02  0.13665289176E+03  0.15691065755E+03  0.47000000000E+01 0. -1.
         -5    1    4    4    0  502  0.27255249334E+02 -0.33448867426E+02  0.18805524032E+02  0.47301301065E+02  0.47000000000E+01 0. -1.
<mgrwt>
<rscale>  0 0.27310394E+03</rscale>
<asrwt>0</asrwt>
<pdfrwt beam="1">  1       21 0.44482155E-01 0.27310394E+03</pdfrwt>
<pdfrwt beam="2">  1       21 0.99216389E-02 0.27310394E+03</pdfrwt>
<totfact> 0.39233064E+05</totfact>
</mgrwt>
</event>
<event>
 8    1  0.9123825E-006  0.2768615E+03  0.7546771E-02  0.1097416E+00
         21   -1    0    0  504  503  0.00000000000E+00  0.00000000000E+00  0.88727083730E+03  0.88727083730E+03  0.00000000000E+00 0. -1.
         21   -1    0    0  503  504 -0.00000000000E+00 -0.00000000000E+00 -0.21597764590E+02  0.21597764590E+02  0.00000000000E+00 0. -1.
         25    2    1    2    0    0  0.53972565563E+01  0.45067118693E+02  0.55880180051E+03  0.57440803134E+03  0.12499983461E+03 0.  0.
         25    2    1    2    0    0 -0.53972565563E+01 -0.45067118693E+02  0.30687127220E+03  0.33446057055E+03  0.12503487507E+03 0.  0.
          5    1    3    3  501    0  0.58971220711E+02  0.51472535069E+02  0.30806794332E+03  0.31789145072E+03  0.47000000000E+01 0.  1.
         -5    1    3    3    0  501 -0.53573964155E+02 -0.64054163759E+01  0.25073385719E+03  0.25651658062E+03  0.47000000000E+01 0.  1.
          5    1    4    4  502    0  0.54122203398E+02 -0.46492491260E+02  0.19409657416E+03  0.20684857927E+03  0.47000000000E+01 0. -1.
         -5    1    4    4    0  502 -0.59519459954E+02  0.14253725678E+01  0.11277469804E+03  0.12761199128E+03  0.47000000000E+01 0. -1.
<mgrwt>
<rscale>  0 0.27686146E+03</rscale>
<asrwt>0</asrwt>
<pdfrwt beam="1">  1       21 0.13650318E+00 0.27686146E+03</pdfrwt>
<pdfrwt beam="2">  1       21 0.33227337E-02 0.27686146E+03</pdfrwt>
<totfact> 0.19808483E+05</totfact>
</mgrwt>
</event>
<event>
 8    1  0.9123825E-006  0.5117814E+03  0.7546771E-02  0.1010749E+00
         21   -1    0    0  504  503  0.00000000000E+00  0.00000000000E+00  0.79073255959E+03  0.79073255959E+03  0.00000000000E+00 0.  1.
         21   -1    0    0  503  504 -0.00000000000E+00 -0.00000000000E+00 -0.82809343693E+02  0.82809343693E+02  0.00000000000E+00 0.  1.
         25    2    1    2    0    0 -0.29312992383E+02 -0.22131181084E+03  0.34705756943E+03  0.43117703766E+03  0.12500604852E+03 0.  0.
         25    2    1    2    0    0  0.29312992383E+02  0.22131181084E+03  0.36086564647E+03  0.44236486563E+03  0.12499796158E+03 0.  0.
          5    1    3    3  501    0 -0.30365369312E+02 -0.73586777467E+01  0.12397658864E+02  0.33941092159E+02  0.47000000000E+01 0. -1.
         -5    1    3    3    0  501  0.10523769297E+01 -0.21395313309E+03  0.33465991057E+03  0.39723594550E+03  0.47000000000E+01 0. -1.
          5    1    4    4  502    0  0.33428558997E+02  0.22850468792E+03  0.36502533997E+03  0.43196926948E+03  0.47000000000E+01 0. -1.
         -5    1    4    4    0  502 -0.41155666147E+01 -0.71928770758E+01 -0.41596935013E+01  0.10395596145E+02  0.47000000000E+01 0. -1.
<mgrwt>
<rscale>  0 0.51178138E+03</rscale>
<asrwt>0</asrwt>
<pdfrwt beam="1">  1       21 0.12165116E+00 0.51178138E+03</pdfrwt>
<pdfrwt beam="2">  1       21 0.12739900E-01 0.51178138E+03</pdfrwt>
<totfact> 0.23895749E+04</totfact>
</mgrwt>
</event>
<event>
 8    1  0.9123825E-006  0.5221160E+03  0.7546771E-02  0.1008162E+00
         21   -1    0    0  504  503  0.00000000000E+00  0.00000000000E+00  0.10684491695E+04  0.10684491695E+04  0.00000000000E+00 0. -1.
         21   -1    0    0  503  504 -0.00000000000E+00 -0.00000000000E+00 -0.63785224055E+02  0.63785224055E+02  0.00000000000E+00 0. -1.
         25    2    1    2    0    0 -0.14519009068E+03 -0.12248944270E+03  0.22425107715E+03  0.31936692250E+03  0.12499143801E+03 0.  0.
         25    2    1    2    0    0  0.14519009068E+03  0.12248944270E+03  0.78041286828E+03  0.81286747105E+03  0.12500181801E+03 0.  0.
          5    1    3    3  501    0 -0.75624201319E+02 -0.76311535539E+02  0.36048098337E+02  0.11341968822E+03  0.47000000000E+01 0.  1.
         -5    1    3    3    0  501 -0.69565889358E+02 -0.46177907162E+02  0.18820297882E+03  0.20594723428E+03  0.47000000000E+01 0.  1.
          5    1    4    4  502    0  0.13774263731E+03  0.14659542202E+03  0.70825370430E+03  0.73628028057E+03  0.47000000000E+01 0.  1.
         -5    1    4    4    0  502  0.74474533710E+01 -0.24105979314E+02  0.72159163975E+02  0.76587190482E+02  0.47000000000E+01 0.  1.
<mgrwt>
<rscale>  0 0.52211596E+03</rscale>
<asrwt>0</asrwt>
<pdfrwt beam="1">  1       21 0.16437678E+00 0.52211596E+03</pdfrwt>
<pdfrwt beam="2">  1       21 0.98131122E-02 0.52211596E+03</pdfrwt>
<totfact> 0.17085629E+04</totfact>
</mgrwt>
</event>
<event>
 8    1  0.9123825E-006  0.3178103E+03  0.7546771E-02  0.1076661E+00
         21   -1    0    0  504  503  0.00000000000E+00  0.00000000000E+00  0.25470564949E+03  0.25470564949E+03  0.00000000000E+00 0. -1.
         21   -1    0    0  503  504 -0.00000000000E+00 -0.00000000000E+00 -0.99137366133E+02  0.99137366133E+02  0.00000000000E+00 0. -1.
         25    2    1    2    0    0 -0.24211290866E+02 -0.94324148538E+02  0.91317117082E+02  0.18288153722E+03  0.12499443660E+03 0.  0.
         25    2    1    2    0    0  0.24211290866E+02  0.94324148538E+02  0.64251166277E+02  0.17096147840E+03  0.12496552775E+03 0.  0.
          5    1    3    3  501    0 -0.95004798336E+01 -0.30579083252E+02  0.11001718180E+03  0.11467872401E+03  0.47000000000E+01 0. -1.
         -5    1    3    3    0  501 -0.14710811032E+02 -0.63745065287E+02 -0.18700064717E+02  0.68202813212E+02  0.47000000000E+01 0. -1.
          5    1    4    4  502    0  0.67408902715E+02  0.27367075534E+02  0.53481701384E+02  0.90417362113E+02  0.47000000000E+01 0.  1.
         -5    1    4    4    0  502 -0.43197611849E+02  0.66957073004E+02  0.10769464893E+02  0.80544116289E+02  0.47000000000E+01 0.  1.
<mgrwt>
<rscale>  0 0.31781030E+03</rscale>
<asrwt>0</asrwt>
<pdfrwt beam="1">  1       21 0.39185484E-01 0.31781030E+03</pdfrwt>
<pdfrwt beam="2">  1       21 0.15251903E-01 0.31781030E+03</pdfrwt>
<totfact> 0.23162073E+05</totfact>
</mgrwt>
</event>
<event>
 8    1  0.9123825E-006  0.3271152E+03  0.7546771E-02  0.1072420E+00
         21   -1    0    0  504  503  0.00000000000E+00  0.00000000000E+00  0.89282187222E+03  0.89282187222E+03  0.00000000000E+00 0.  1.
         21   -1    0    0  503  504 -0.00000000000E+00 -0.00000000000E+00 -0.29962396764E+02  0.29962396764E+02  0.00000000000E+00 0.  1.
         25    2    1    2    0    0 -0.58808060970E+02 -0.48056788371E+02  0.63794794590E+03  0.65449717090E+03  0.12498448742E+03 0.  0.
         25    2    1    2    0    0  0.58808060970E+02  0.48056788371E+02  0.22491152955E+03  0.26828709808E+03  0.12499971171E+03 0.  0.
          5    1    3    3  501    0  0.50333522846E+01  0.19881648140E+02  0.37288107244E+03  0.37347422770E+03  0.47000000000E+01 0.  1.
         -5    1    3    3    0  501 -0.63841413254E+02 -0.67938436512E+02  0.26506687346E+03  0.28102294320E+03  0.47000000000E+01 0.  1.
          5    1    4    4  502    0 -0.15764542066E+02 -0.25911358441E+02  0.16475362275E+02  0.34834563940E+02  0.47000000000E+01 0.  1.
         -5    1    4    4    0  502  0.74572603036E+02  0.73968146813E+02  0.20843616728E+03  0.23345253414E+03  0.47000000000E+01 0.  1.
<mgrwt>
<rscale>  0 0.32711517E+03</rscale>
<asrwt>0</asrwt>
<pdfrwt beam="1">  1       21 0.13735719E+00 0.32711517E+03</pdfrwt>
<pdfrwt beam="2">  1       21 0.46096002E-02 0.32711517E+03</pdfrwt>
<totfact> 0.11040644E+05</totfact>
</mgrwt>
</event>
<event>
 8    1  0.9123825E-006  0.2663502E+03  0.7546771E-02  0.1103387E+00
         21   -1    0    0  504  503  0.00000000000E+00  0.00000000000E+00  0.36628465082E+03  0.36628465082E+03  0.00000000000E+00 0. -1.
         21   -1    0    0  503  504 -0.00000000000E+00 -0.00000000000E+00 -0.48420298046E+02  0.48420298046E+02  0.00000000000E+00 0. -1.
         25    2    1    2    0    0 -0.40388662139E+02 -0.54543728996E+01  0.12598486466E+03  0.18210364820E+03  0.12501423260E+03 0.  0.
         25    2    1    2    0    0  0.40388662139E+02  0.54543728996E+01  0.19187948812E+03  0.23260130067E+03  0.12499853158E+03 0.  0.
          5    1    3    3  501    0  0.18279771120E+02 -0.12435094234E+00 -0.18235472635E+02  0.26244770100E+02  0.47000000000E+01 0. -1.
         -5    1    3    3    0  501 -0.58668433260E+02 -0.53300219572E+01  0.14422033729E+03  0.15585887810E+03  0.47000000000E+01 0. -1.
          5    1    4    4  502    0 -0.34589520378E+02  0.33459330302E+02  0.96992958253E+02  0.10837751453E+03  0.47000000000E+01 0.  1.
         -5    1    4    4    0  502  0.74978182517E+02 -0.28004957403E+02  0.94886529869E+02  0.12422378614E+03  0.47000000000E+01 0.  1.
<mgrwt>
<rscale>  0 0.26635024E+03</rscale>
<asrwt>0</asrwt>
<pdfrwt beam="1">  1       21 0.56351483E-01 0.26635024E+03</pdfrwt>
<pdfrwt beam="2">  1       21 0.74492768E-02 0.26635024E+03</pdfrwt>
<totfact> 0.39582436E+05</totfact>
</mgrwt>
</event>
<event>
 8    1  0.9123825E-006  0.4090572E+03  0.7546771E-02  0.1040688E+00
         21   -1    0    0  504  503  0.00000000000E+00  0.00000000000E+00  0.64786772786E+03  0.64786772786E+03  0.00000000000E+00 0. -1.
         21   -1    0    0  503  504 -0.00000000000E+00 -0.00000000000E+00 -0.64568650477E+02  0.64568650477E+02  0.00000000000E+00 0. -1.
         25    2    1    2    0    0  0.83852465870E+02  0.12915578463E+03  0.37860173993E+03  0.42740870655E+03  0.12500588876E+03 0.  0.
         25    2    1    2    0    0 -0.83852465870E+02 -0.12915578463E+03  0.20469733746E+03  0.28502767179E+03  0.12500928360E+03 0.  0.
          5    1    3    3  501    0 -0.11210019524E+02  0.60245762223E+02  0.22940387758E+03  0.23749409562E+03  0.47000000000E+01 0.  1.
         -5    1    3    3    0  501  0.95062485394E+02  0.68910022405E+02  0.14919786234E+03  0.18991461093E+03  0.47000000000E+01 0.  1.
          5    1    4    4  502    0  0.19387734354E+02 -0.35283188441E+02  0.42571763339E+01  0.40755382224E+02  0.47000000000E+01 0. -1.
         -5    1    4    4    0  502 -0.10324020022E+03 -0.93872596188E+02  0.20044016112E+03  0.24427228956E+03  0.47000000000E+01 0. -1.
<mgrwt>
<rscale>  0 0.40905718E+03</rscale>
<asrwt>0</asrwt>
<pdfrwt beam="1">  1       21 0.99671954E-01 0.40905718E+03</pdfrwt>
<pdfrwt beam="2">  1       21 0.99336390E-02 0.40905718E+03</pdfrwt>
<totfact> 0.63128250E+04</totfact>
</mgrwt>
</event>
<event>
 8    1  0.9123825E-006  0.8399366E+03  0.7546771E-02  0.9503944E-01
         21   -1    0    0  504  503  0.00000000000E+00  0.00000000000E+00  0.20947519774E+03  0.20947519774E+03  0.00000000000E+00 0. -1.
         21   -1    0    0  503  504 -0.00000000000E+00 -0.00000000000E+00 -0.84197738741E+03  0.84197738741E+03  0.00000000000E+00 0. -1.
         25    2    1    2    0    0 -0.12900752151E+03 -0.30349971548E+03 -0.60169392711E+03  0.69743494887E+03  0.12499963232E+03 0.  0.
         25    2    1    2    0    0  0.12900752151E+03  0.30349971548E+03 -0.30808262565E+02  0.35401763629E+03  0.12499727940E+03 0.  0.
          5    1    3    3  501    0 -0.66678982357E+02 -0.14347970831E+03 -0.16734279032E+03  0.23034368421E+03  0.47000000000E+01 0.  1.
         -5    1    3    3    0  501 -0.62328539152E+02 -0.16002000717E+03 -0.43435113679E+03  0.46709126466E+03  0.47000000000E+01 0.  1.
          5    1    4    4  502    0  0.14750217192E+03  0.26045260366E+03 -0.30797362752E+01  0.29937271795E+03  0.47000000000E+01 0. -1.
         -5    1    4    4    0  502 -0.18494650415E+02  0.43047111817E+02 -0.27728526290E+02  0.54644918336E+02  0.47000000000E+01 0. -1.
<mgrwt>
<rscale>  0 0.83993662E+03</rscale>
<asrwt>0</asrwt>
<pdfrwt beam="1">  1       21 0.32226953E-01 0.83993662E+03</pdfrwt>
<pdfrwt beam="2">  1       21 0.12953499E+00 0.83993662E+03</pdfrwt>
<totfact> 0.31774828E+03</totfact>
</mgrwt>
</event>
<event>
 8    1  0.9123825E-006  0.2798993E+03  0.7546771E-02  0.1095744E+00
         21   -1    0    0  504  503  0.00000000000E+00  0.00000000000E+00  0.13803858018E+03  0.13803858018E+03  0.00000000000E+00 0.  1.
         21   -1    0    0  503  504 -0.00000000000E+00 -0.00000000000E+00 -0.14188717268E+03  0.14188717268E+03  0.00000000000E+00 0.  1.
         25    2    1    2    0    0  0.52319388877E+02 -0.34794393670E+02 -0.55469869822E+01  0.14001123216E+03  0.12499763111E+03 0.  0.
         25    2    1    2    0    0 -0.52319388877E+02  0.34794393670E+02  0.16983944788E+01  0.13991452070E+03  0.12500088110E+03 0.  0.
          5    1    3    3  501    0 -0.35697232364E+02 -0.21890839756E+02  0.20969291702E+02  0.47066999672E+02  0.47000000000E+01 0. -1.
         -5    1    3    3    0  501  0.88016621241E+02 -0.12903553914E+02 -0.26516278684E+02  0.92944232492E+02  0.47000000000E+01 0. -1.
          5    1    4    4  502    0 -0.81455873344E+02 -0.28111768208E+01 -0.24715085071E+02  0.85298812696E+02  0.47000000000E+01 0.  1.
         -5    1    4    4    0  502  0.29136484467E+02  0.37605570491E+02  0.26413479550E+02  0.54615708006E+02  0.47000000000E+01 0.  1.
<mgrwt>
<rscale>  0 0.27989930E+03</rscale>
<asrwt>0</asrwt>
<pdfrwt beam="1">  1       21 0.21236705E-01 0.27989930E+03</pdfrwt>
<pdfrwt beam="2">  1       21 0.21828796E-01 0.27989930E+03</pdfrwt>
<totfact> 0.39681587E+05</totfact>
</mgrwt>
</event>
<event>
 8    1  0.9123825E-006  0.3584536E+03  0.7546771E-02  0.1059198E+00
         21   -1    0    0  504  503  0.00000000000E+00  0.00000000000E+00  0.10375021974E+03  0.10375021974E+03  0.00000000000E+00 0. -1.
         21   -1    0    0  503  504 -0.00000000000E+00 -0.00000000000E+00 -0.30961137378E+03  0.30961137378E+03  0.00000000000E+00 0. -1.
         25    2    1    2    0    0  0.78588453073E+02  0.83679033256E+02 -0.36493078882E+02  0.17359370933E+03  0.12499882220E+03 0.  0.
         25    2    1    2    0    0 -0.78588453073E+02 -0.83679033256E+02 -0.16936807515E+03  0.23976788419E+03  0.12499907138E+03 0.  0.
          5    1    3    3  501    0  0.74895287405E+02  0.64282903252E+02  0.30645394079E+02  0.10345446295E+03  0.47000000000E+01 0.  1.
         -5    1    3    3    0  501  0.36931656680E+01  0.19396130005E+02 -0.67138472961E+02  0.70139246384E+02  0.47000000000E+01 0.  1.
          5    1    4    4  502    0 -0.95127056344E+02 -0.98164697028E+02 -0.10757279220E+03  0.17400994285E+03  0.47000000000E+01 0.  1.
         -5    1    4    4    0  502  0.16538603271E+02  0.14485663772E+02 -0.61795282955E+02  0.65757941335E+02  0.47000000000E+01 0.  1.
<mgrwt>
<rscale>  0 0.35845361E+03</rscale>
<asrwt>0</asrwt>
<pdfrwt beam="1">  1       21 0.15961572E-01 0.35845361E+03</pdfrwt>
<pdfrwt beam="2">  1       21 0.47632518E-01 0.35845361E+03</pdfrwt>
<totfact> 0.14096626E+05</totfact>
</mgrwt>
</event>
<event>
 8    1  0.9123825E-006  0.3389954E+03  0.7546771E-02  0.1067225E+00
         21   -1    0    0  504  503  0.00000000000E+00  0.00000000000E+00  0.21693210806E+02  0.21693210806E+02  0.00000000000E+00 0. -1.
         21   -1    0    0  503  504 -0.00000000000E+00 -0.00000000000E+00 -0.13243527252E+04  0.13243527252E+04  0.00000000000E+00 0. -1.
         25    2    1    2    0    0  0.69902985894E+01  0.65237942587E+02 -0.27884339452E+03  0.31254274517E+03  0.12499790185E+03 0.  0.
         25    2    1    2    0    0 -0.69902985894E+01 -0.65237942587E+02 -0.10238161199E+04  0.10335031909E+04  0.12499817886E+03 0.  0.
          5    1    3    3  501    0  0.33814200299E+02  0.10564922899E+02 -0.10372716603E+02  0.37211570613E+02  0.47000000000E+01 0.  1.
         -5    1    3    3    0  501 -0.26823901710E+02  0.54673019689E+02 -0.26847067792E+03  0.27533117456E+03  0.47000000000E+01 0.  1.
          5    1    4    4  502    0  0.31332570860E+01  0.16447349239E+02 -0.20833050291E+02  0.27137401891E+02  0.47000000000E+01 0.  1.
         -5    1    4    4    0  502 -0.10123555675E+02 -0.81685291826E+02 -0.10029830696E+04  0.10063657890E+04  0.47000000000E+01 0.  1.
<mgrwt>
<rscale>  0 0.33899536E+03</rscale>
<asrwt>0</asrwt>
<pdfrwt beam="1">  1       21 0.33374164E-02 0.33899536E+03</pdfrwt>
<pdfrwt beam="2">  1       21 0.20374661E+00 0.33899536E+03</pdfrwt>
<totfact> 0.62693915E+04</totfact>
</mgrwt>
</event>
<event>
 8    1  0.9123825E-006  0.2969386E+03  0.7546771E-02  0.1086781E+00
         21   -1    0    0  504  503  0.00000000000E+00  0.00000000000E+00  0.36951436940E+03  0.36951436940E+03  0.00000000000E+00 0.  1.
         21   -1    0    0  503  504 -0.00000000000E+00 -0.00000000000E+00 -0.59654347670E+02  0.59654347670E+02  0.00000000000E+00 0.  1.
         25    2    1    2    0    0  0.41011055350E+02  0.36477140728E+02  0.70681215660E+02  0.15377102322E+03  0.12504880999E+03 0.  0.
         25    2    1    2    0    0 -0.41011055350E+02 -0.36477140728E+02  0.23917880607E+03  0.27539769385E+03  0.12499960019E+03 0.  0.
          5    1    3    3  501    0  0.13229618059E+01 -0.39904899620E+02  0.51715222385E+02  0.65503476763E+02  0.47000000000E+01 0.  1.
         -5    1    3    3    0  501  0.39688093544E+02  0.76382040348E+02  0.18965993274E+02  0.88267546458E+02  0.47000000000E+01 0.  1.
          5    1    4    4  502    0 -0.21108599972E+02 -0.82412843585E+02  0.13359682015E+03  0.15845393695E+03  0.47000000000E+01 0. -1.
         -5    1    4    4    0  502 -0.19902455378E+02  0.45935702858E+02  0.10558198592E+03  0.11694375690E+03  0.47000000000E+01 0. -1.
<mgrwt>
<rscale>  0 0.29693864E+03</rscale>
<asrwt>0</asrwt>
<pdfrwt beam="1">  1       21 0.56848363E-01 0.29693864E+03</pdfrwt>
<pdfrwt beam="2">  1       21 0.91775922E-02 0.29693864E+03</pdfrwt>
<totfact> 0.26742481E+05</totfact>
</mgrwt>
</event>
<event>
 8    1  0.9123825E-006  0.3567201E+03  0.7546771E-02  0.1059890E+00
         21   -1    0    0  504  503  0.00000000000E+00  0.00000000000E+00  0.43306287076E+02  0.43306287076E+02  0.00000000000E+00 0.  1.
         21   -1    0    0  503  504 -0.00000000000E+00 -0.00000000000E+00 -0.73458846952E+03  0.73458846952E+03  0.00000000000E+00 0.  1.
         25    2    1    2    0    0  0.12256342120E+03 -0.30120801091E+02 -0.31056212606E+03  0.35777506196E+03  0.12500042376E+03 0.  0.
         25    2    1    2    0    0 -0.12256342120E+03  0.30120801091E+02 -0.38072005638E+03  0.42011969463E+03  0.12499496636E+03 0.  0.
          5    1    3    3  501    0  0.15978154760E+02  0.31219759744E+02 -0.15723782023E+03  0.16117008698E+03  0.47000000000E+01 0. -1.
         -5    1    3    3    0  501  0.10658526644E+03 -0.61340560836E+02 -0.15332430584E+03  0.19660497498E+03  0.47000000000E+01 0. -1.
          5    1    4    4  502    0 -0.13160517927E+03  0.56643410217E+02 -0.26866184115E+03  0.30451547419E+03  0.47000000000E+01 0. -1.
         -5    1    4    4    0  502  0.90417580678E+01 -0.26522609126E+02 -0.11205821522E+03  0.11560422044E+03  0.47000000000E+01 0. -1.
<mgrwt>
<rscale>  0 0.35672005E+03</rscale>
<asrwt>0</asrwt>
<pdfrwt beam="1">  1       21 0.66625062E-02 0.35672005E+03</pdfrwt>
<pdfrwt beam="2">  1       21 0.11301360E+00 0.35672005E+03</pdfrwt>
<totfact> 0.95258519E+04</totfact>
</mgrwt>
</event>
<event>
 8    1  0.9123825E-006  0.2908838E+03  0.7546771E-02  0.1089889E+00
         21   -1    0    0  504  503  0.00000000000E+00  0.00000000000E+00  0.42309302241E+03  0.42309302241E+03  0.00000000000E+00 0. -1.
         21   -1    0    0  503  504 -0.00000000000E+00 -0.00000000000E+00 -0.49996917776E+02  0.49996917776E+02  0.00000000000E+00 0. -1.
         25    2    1    2    0    0  0.10870261797E+02  0.27829442864E+02  0.75826562630E+02  0.14922903461E+03  0.12500798650E+03 0.  0.
         25    2    1    2    0    0 -0.10870261797E+02 -0.27829442864E+02  0.29726954200E+03  0.32386090558E+03  0.12499626025E+03 0.  0.
          5    1    3    3  501    0 -0.38309280936E+02  0.54712987951E+02  0.19756623038E+02  0.69810645393E+02  0.47000000000E+01 0. -1.
         -5    1    3    3    0  501  0.49179542732E+02 -0.26883545086E+02  0.56069939592E+02  0.79418389215E+02  0.47000000000E+01 0. -1.
          5    1    4    4  502    0 -0.50064931244E+02 -0.58114143982E+02  0.20671965993E+03  0.22054219295E+03  0.47000000000E+01 0. -1.
         -5    1    4    4    0  502  0.39194669447E+02  0.30284701118E+02  0.90549882076E+02  0.10331871263E+03  0.47000000000E+01 0. -1.
<mgrwt>
<rscale>  0 0.29088381E+03</rscale>
<asrwt>0</asrwt>
<pdfrwt beam="1">  1       21 0.65091232E-01 0.29088381E+03</pdfrwt>
<pdfrwt beam="2">  1       21 0.76918338E-02 0.29088381E+03</pdfrwt>
<totfact> 0.27229161E+05</totfact>
</mgrwt>
</event>
<event>
 8    1  0.9123825E-006  0.2924366E+03  0.7546771E-02  0.1089084E+00
         21   -1    0    0  504  503  0.00000000000E+00  0.00000000000E+00  0.11503477068E+03  0.11503477068E+03  0.00000000000E+00 0.  1.
         21   -1    0    0  503  504 -0.00000000000E+00 -0.00000000000E+00 -0.18585503699E+03  0.18585503699E+03  0.00000000000E+00 0.  1.
         25    2    1    2    0    0 -0.64356465583E+02  0.30997036586E+02 -0.93357554443E+01  0.14428012415E+03  0.12500810756E+03 0.  0.
         25    2    1    2    0    0  0.64356465583E+02 -0.30997036586E+02 -0.61484510861E+02  0.15660968352E+03  0.12507468552E+03 0.  0.
          5    1    3    3  501    0 -0.57278763393E+02  0.77365765276E+02 -0.11677842380E+02  0.97081308063E+02  0.47000000000E+01 0. -1.
         -5    1    3    3    0  501 -0.70777021904E+01 -0.46368728690E+02  0.23420869359E+01  0.47198816085E+02  0.47000000000E+01 0. -1.
          5    1    4    4  502    0 -0.27009395696E+02  0.20785574048E+02  0.81027050839E+00  0.34413574105E+02  0.47000000000E+01 0.  1.
         -5    1    4    4    0  502  0.91365861279E+02 -0.51782610634E+02 -0.62294781369E+02  0.12219610942E+03  0.47000000000E+01 0.  1.
<mgrwt>
<rscale>  0 0.29243660E+03</rscale>
<asrwt>0</asrwt>
<pdfrwt beam="1">  1       21 0.17697657E-01 0.29243660E+03</pdfrwt>
<pdfrwt beam="2">  1       21 0.28593082E-01 0.29243660E+03</pdfrwt>
<totfact> 0.33144526E+05</totfact>
</mgrwt>
</event>
<event>
 8    1  0.9123825E-006  0.3723961E+03  0.7546771E-02  0.1053781E+00
         21   -1    0    0  504  503  0.00000000000E+00  0.00000000000E+00  0.46856049270E+03  0.46856049270E+03  0.00000000000E+00 0.  1.
         21   -1    0    0  503  504 -0.00000000000E+00 -0.00000000000E+00 -0.73991961274E+02  0.73991961274E+02  0.00000000000E+00 0.  1.
         25    2    1    2    0    0 -0.80888035285E+02 -0.93702907738E+02  0.10838895797E+03  0.20662561775E+03  0.12499148183E+03 0.  0.
         25    2    1    2    0    0  0.80888035285E+02  0.93702907738E+02  0.28617957346E+03  0.33592683622E+03  0.12499992744E+03 0.  0.
          5    1    3    3  501    0 -0.69368807746E+00 -0.95428148759E+02  0.60342681924E+02  0.11300593808E+03  0.47000000000E+01 0. -1.
         -5    1    3    3    0  501 -0.80194347207E+02  0.17252410212E+01  0.48046276042E+02  0.93619679673E+02  0.47000000000E+01 0. -1.
          5    1    4    4  502    0  0.20046731927E+02  0.10522297843E+03  0.22246706608E+03  0.24695633651E+03  0.47000000000E+01 0. -1.
         -5    1    4    4    0  502  0.60841303357E+02 -0.11520070692E+02  0.63712507372E+02  0.88970499709E+02  0.47000000000E+01 0. -1.
<mgrwt>
<rscale>  0 0.37239608E+03</rscale>
<asrwt>0</asrwt>
<pdfrwt beam="1">  1       21 0.72086228E-01 0.37239608E+03</pdfrwt>
<pdfrwt beam="2">  1       21 0.11383379E-01 0.37239608E+03</pdfrwt>
<totfact> 0.10604291E+05</totfact>
</mgrwt>
</event>
<event>
 8    1  0.9123825E-006  0.2658666E+03  0.7546771E-02  0.1103669E+00
         21   -1    0    0  504  503  0.00000000000E+00  0.00000000000E+00  0.22267672796E+04  0.22267672796E+04  0.00000000000E+00 0. -1.
         21   -1    0    0  503  504 -0.00000000000E+00 -0.00000000000E+00 -0.79358377157E+01  0.79358377157E+01  0.00000000000E+00 0. -1.
         25    2    1    2    0    0  0.37599022700E+02 -0.18250480766E+02  0.12548145449E+04  0.12617168425E+04  0.12499232736E+03 0.  0.
         25    2    1    2    0    0 -0.37599022700E+02  0.18250480766E+02  0.96401689701E+03  0.97298627488E+03  0.12500778708E+03 0.  0.
          5    1    3    3  501    0  0.26882960665E+02  0.26642751128E+02  0.10852564551E+04  0.10859264215E+04  0.47000000000E+01 0.  1.
         -5    1    3    3    0  501  0.10716062035E+02 -0.44893231894E+02  0.16955808986E+03  0.17579042094E+03  0.47000000000E+01 0.  1.
          5    1    4    4  502    0  0.27926791244E+02 -0.29778281698E+02  0.51636099645E+03  0.51799364898E+03  0.47000000000E+01 0. -1.
         -5    1    4    4    0  502 -0.65525813945E+02  0.48028762464E+02  0.44765590056E+03  0.45499262590E+03  0.47000000000E+01 0. -1.
<mgrwt>
<rscale>  0 0.26586661E+03</rscale>
<asrwt>0</asrwt>
<pdfrwt beam="1">  1       21 0.34257908E+00 0.26586661E+03</pdfrwt>
<pdfrwt beam="2">  1       21 0.12208999E-02 0.26586661E+03</pdfrwt>
<totfact> 0.49565335E+04</totfact>
</mgrwt>
</event>
<event>
 8    1  0.9123825E-006  0.6560208E+03  0.7546771E-02  0.9795547E-01
         21   -1    0    0  504  503  0.00000000000E+00  0.00000000000E+00  0.66151873066E+03  0.66151873066E+03  0.00000000000E+00 0. -1.
         21   -1    0    0  503  504 -0.00000000000E+00 -0.00000000000E+00 -0.16264213204E+03  0.16264213204E+03  0.00000000000E+00 0. -1.
         25    2    1    2    0    0 -0.13258133393E+03  0.26770407167E+03  0.31497257114E+03  0.45174830130E+03  0.12500210822E+03 0.  0.
         25    2    1    2    0    0  0.13258133393E+03 -0.26770407167E+03  0.18390402748E+03  0.37241256140E+03  0.12500857759E+03 0.  0.
          5    1    3    3  501    0 -0.82008885371E+02  0.12251844216E+03  0.23736653667E+03  0.27946589896E+03  0.47000000000E+01 0.  1.
         -5    1    3    3    0  501 -0.50572448555E+02  0.14518562951E+03  0.77606034470E+02  0.17228240234E+03  0.47000000000E+01 0.  1.
          5    1    4    4  502    0  0.12411875837E+03 -0.27979240096E+03  0.16429326485E+03  0.34742426612E+03  0.47000000000E+01 0. -1.
         -5    1    4    4    0  502  0.84625755595E+01  0.12088329291E+02  0.19610762623E+02  0.24988295276E+02  0.47000000000E+01 0. -1.
<mgrwt>
<rscale>  0 0.65602078E+03</rscale>
<asrwt>0</asrwt>
<pdfrwt beam="1">  1       21 0.10177211E+00 0.65602078E+03</pdfrwt>
<pdfrwt beam="2">  1       21 0.25021867E-01 0.65602078E+03</pdfrwt>
<totfact> 0.10083769E+04</totfact>
</mgrwt>
</event>
<event>
 8    1  0.9123825E-006  0.3442043E+03  0.7546771E-02  0.1065019E+00
         21   -1    0    0  504  503  0.00000000000E+00  0.00000000000E+00  0.68953441274E+03  0.68953441274E+03  0.00000000000E+00 0. -1.
         21   -1    0    0  503  504 -0.00000000000E+00 -0.00000000000E+00 -0.42955282480E+02  0.42955282480E+02  0.00000000000E+00 0. -1.
         25    2    1    2    0    0  0.62517986815E+01 -0.92480171265E+02  0.16688257525E+03  0.22818383777E+03  0.12500561120E+03 0.  0.
         25    2    1    2    0    0 -0.62517986815E+01  0.92480171265E+02  0.47969655502E+03  0.50430585746E+03  0.12499578356E+03 0.  0.
          5    1    3    3  501    0 -0.41939396429E+02 -0.69413639176E+02  0.15228760734E+03  0.17260003368E+03  0.47000000000E+01 0. -1.
         -5    1    3    3    0  501  0.48191195111E+02 -0.23066532089E+02  0.14594967912E+02  0.55583804090E+02  0.47000000000E+01 0. -1.
          5    1    4    4  502    0 -0.16329631813E+02  0.20951646077E+02  0.95462750680E+01  0.28615550251E+02  0.47000000000E+01 0. -1.
         -5    1    4    4    0  502  0.10077833131E+02  0.71528525188E+02  0.47015027995E+03  0.47569030721E+03  0.47000000000E+01 0. -1.
<mgrwt>
<rscale>  0 0.34420427E+03</rscale>
<asrwt>0</asrwt>
<pdfrwt beam="1">  1       21 0.10608221E+00 0.34420427E+03</pdfrwt>
<pdfrwt beam="2">  1       21 0.66085055E-02 0.34420427E+03</pdfrwt>
<totfact> 0.11327455E+05</totfact>
</mgrwt>
</event>
<event>
 8    1  0.9123825E-006  0.3626821E+03  0.7546771E-02  0.1057527E+00
         21   -1    0    0  504  503  0.00000000000E+00  0.00000000000E+00  0.12832509269E+03  0.12832509269E+03  0.00000000000E+00 0.  1.
         21   -1    0    0  503  504 -0.00000000000E+00 -0.00000000000E+00 -0.25625985365E+03  0.25625985365E+03  0.00000000000E+00 0.  1.
         25    2    1    2    0    0  0.37916522286E+02  0.11873747337E+03 -0.10798853426E+03  0.20693404185E+03  0.12499569553E+03 0.  0.
         25    2    1    2    0    0 -0.37916522286E+02 -0.11873747337E+03 -0.19946226695E+02  0.17765090448E+03  0.12500296660E+03 0.  0.
          5    1    3    3  501    0 -0.44785783246E+02  0.45818418507E+02 -0.54736414325E+02  0.84399401115E+02  0.47000000000E+01 0.  1.
         -5    1    3    3    0  501  0.82702305532E+02  0.72919054864E+02 -0.53252119938E+02  0.12253464074E+03  0.47000000000E+01 0.  1.
          5    1    4    4  502    0 -0.22596482329E+01  0.17155275441E+02  0.24373465602E+02  0.30258309785E+02  0.47000000000E+01 0. -1.
         -5    1    4    4    0  502 -0.35656874054E+02 -0.13589274881E+03 -0.44319692297E+02  0.14739259470E+03  0.47000000000E+01 0. -1.
<mgrwt>
<rscale>  0 0.36268206E+03</rscale>
<asrwt>0</asrwt>
<pdfrwt beam="1">  1       21 0.19742322E-01 0.36268206E+03</pdfrwt>
<pdfrwt beam="2">  1       21 0.39424593E-01 0.36268206E+03</pdfrwt>
<totfact> 0.13999115E+05</totfact>
</mgrwt>
</event>
<event>
 8    1  0.9123825E-006  0.3123520E+03  0.7546771E-02  0.1079224E+00
         21   -1    0    0  504  503  0.00000000000E+00  0.00000000000E+00  0.56898354265E+02  0.56898354265E+02  0.00000000000E+00 0. -1.
         21   -1    0    0  503  504 -0.00000000000E+00 -0.00000000000E+00 -0.42867583685E+03  0.42867583685E+03  0.00000000000E+00 0. -1.
         25    2    1    2    0    0  0.87262338323E+02  0.18441796435E+02 -0.14162685994E+03  0.20889453023E+03  0.12499576696E+03 0.  0.
         25    2    1    2    0    0 -0.87262338323E+02 -0.18441796435E+02 -0.23015062265E+03  0.27667966089E+03  0.12501003999E+03 0.  0.
          5    1    3    3  501    0 -0.42960085626E+01 -0.19645425421E+02 -0.98524721717E+02  0.10066582945E+03  0.47000000000E+01 0. -1.
         -5    1    3    3    0  501  0.91558346885E+02  0.38087221856E+02 -0.43102138223E+02  0.10822870078E+03  0.47000000000E+01 0. -1.
          5    1    4    4  502    0 -0.10940309937E+03  0.10769599512E+01 -0.21886347280E+03  0.24473150128E+03  0.47000000000E+01 0. -1.
         -5    1    4    4    0  502  0.22140761045E+02 -0.19518756386E+02 -0.11287149851E+02  0.31948159607E+02  0.47000000000E+01 0. -1.
<mgrwt>
<rscale>  0 0.31235204E+03</rscale>
<asrwt>0</asrwt>
<pdfrwt beam="1">  1       21 0.87535926E-02 0.31235204E+03</pdfrwt>
<pdfrwt beam="2">  1       21 0.65950132E-01 0.31235204E+03</pdfrwt>
<totfact> 0.20969264E+05</totfact>
</mgrwt>
</event>
<event>
 8    1  0.9123825E-006  0.2769888E+03  0.7546771E-02  0.1097345E+00
         21   -1    0    0  504  503  0.00000000000E+00  0.00000000000E+00  0.55733454792E+03  0.55733454792E+03  0.00000000000E+00 0.  1.
         21   -1    0    0  503  504 -0.00000000000E+00 -0.00000000000E+00 -0.34415045171E+02  0.34415045171E+02  0.00000000000E+00 0.  1.
         25    2    1    2    0    0 -0.53411273544E+02 -0.26461737777E+02  0.26445798137E+03  0.29852471187E+03  0.12500396785E+03 0.  0.
         25    2    1    2    0    0  0.53411273544E+02  0.26461737777E+02  0.25846152138E+03  0.29322488122E+03  0.12500194089E+03 0.  0.
          5    1    3    3  501    0 -0.53028586227E+02 -0.69439101995E+02  0.21878850450E+03  0.23563598949E+03  0.47000000000E+01 0.  1.
         -5    1    3    3    0  501 -0.38268731671E+00  0.42977364218E+02  0.45669476869E+02  0.62888722376E+02  0.47000000000E+01 0.  1.
          5    1    4    4  502    0  0.68077236781E+01 -0.62771607915E+01 -0.12529631622E+02  0.16273583436E+02  0.47000000000E+01 0. -1.
         -5    1    4    4    0  502  0.46603549865E+02  0.32738898568E+02  0.27099115300E+03  0.27695129778E+03  0.47000000000E+01 0. -1.
<mgrwt>
<rscale>  0 0.27698876E+03</rscale>
<asrwt>0</asrwt>
<pdfrwt beam="1">  1       21 0.85743770E-01 0.27698876E+03</pdfrwt>
<pdfrwt beam="2">  1       21 0.52946227E-02 0.27698876E+03</pdfrwt>
<totfact> 0.28023866E+05</totfact>
</mgrwt>
</event>
<event>
 8    1  0.9123825E-006  0.2753160E+03  0.7546771E-02  0.1098275E+00
         21   -1    0    0  504  503  0.00000000000E+00  0.00000000000E+00  0.66619821720E+03  0.66619821720E+03  0.00000000000E+00 0.  1.
         21   -1    0    0  503  504 -0.00000000000E+00 -0.00000000000E+00 -0.28444580240E+02  0.28444580240E+02  0.00000000000E+00 0.  1.
         25    2    1    2    0    0  0.57552528894E+02 -0.16104837942E+01  0.31058887578E+03  0.33971071972E+03  0.12499214414E+03 0.  0.
         25    2    1    2    0    0 -0.57552528894E+02  0.16104837942E+01  0.32716476119E+03  0.35493207772E+03  0.12500044637E+03 0.  0.
          5    1    3    3  501    0  0.30755874721E+02  0.34514367908E+01  0.31046364466E+03  0.31203781966E+03  0.47000000000E+01 0. -1.
         -5    1    3    3    0  501  0.26796654173E+02 -0.50619205850E+01  0.12523112131E+00  0.27672900060E+02  0.47000000000E+01 0. -1.
          5    1    4    4  502    0 -0.65371125993E+02  0.48992669497E+02  0.14510963916E+03  0.16659100562E+03  0.47000000000E+01 0.  1.
         -5    1    4    4    0  502  0.78185970989E+01 -0.47382185703E+02  0.18205512203E+03  0.18834107210E+03  0.47000000000E+01 0.  1.
<mgrwt>
<rscale>  0 0.27531603E+03</rscale>
<asrwt>0</asrwt>
<pdfrwt beam="1">  1       21 0.10249202E+00 0.27531603E+03</pdfrwt>
<pdfrwt beam="2">  1       21 0.43760898E-02 0.27531603E+03</pdfrwt>
<totfact> 0.25462189E+05</totfact>
</mgrwt>
</event>
<event>
 8    1  0.9123825E-006  0.2951750E+03  0.7546771E-02  0.1087678E+00
         21   -1    0    0  504  503  0.00000000000E+00  0.00000000000E+00  0.13592529780E+03  0.13592529780E+03  0.00000000000E+00 0. -1.
         21   -1    0    0  503  504 -0.00000000000E+00 -0.00000000000E+00 -0.16025028704E+03  0.16025028704E+03  0.00000000000E+00 0. -1.
         25    2    1    2    0    0  0.69806551547E+02 -0.33583670506E+02 -0.24713920509E+02  0.14911552556E+03  0.12499537805E+03 0.  0.
         25    2    1    2    0    0 -0.69806551547E+02  0.33583670506E+02  0.38893127249E+00  0.14706005928E+03  0.12500276879E+03 0.  0.
          5    1    3    3  501    0 -0.34446626342E+02 -0.72401281789E+00  0.64219094534E+01  0.35361351529E+02  0.47000000000E+01 0.  1.
         -5    1    3    3    0  501  0.10425317789E+03 -0.32859657688E+02 -0.31135829963E+02  0.11375417404E+03  0.47000000000E+01 0.  1.
          5    1    4    4  502    0  0.20664060456E+02  0.29285996766E+02  0.34684624849E+02  0.50097766438E+02  0.47000000000E+01 0. -1.
         -5    1    4    4    0  502 -0.90470612002E+02  0.42976737394E+01 -0.34295693577E+02  0.96962292844E+02  0.47000000000E+01 0. -1.
<mgrwt>
<rscale>  0 0.29517499E+03</rscale>
<asrwt>0</asrwt>
<pdfrwt beam="1">  1       21 0.20911584E-01 0.29517499E+03</pdfrwt>
<pdfrwt beam="2">  1       21 0.24653890E-01 0.29517499E+03</pdfrwt>
<totfact> 0.32281553E+05</totfact>
</mgrwt>
</event>
<event>
 8    1  0.9123825E-006  0.3237027E+03  0.7546771E-02  0.1073958E+00
         21   -1    0    0  504  503  0.00000000000E+00  0.00000000000E+00  0.54350361689E+03  0.54350361689E+03  0.00000000000E+00 0.  1.
         21   -1    0    0  503  504 -0.00000000000E+00 -0.00000000000E+00 -0.48198121586E+02  0.48198121586E+02  0.00000000000E+00 0.  1.
         25    2    1    2    0    0 -0.25120962340E+02 -0.46129399928E+02  0.86086545645E+02  0.16060680988E+03  0.12499867900E+03 0.  0.
         25    2    1    2    0    0  0.25120962340E+02  0.46129399928E+02  0.40921894966E+03  0.43109492860E+03  0.12499481757E+03 0.  0.
          5    1    3    3  501    0 -0.75088082103E+02 -0.17928172261E+02  0.41363795006E+02  0.87707998334E+02  0.47000000000E+01 0. -1.
         -5    1    3    3    0  501  0.49967119763E+02 -0.28201227667E+02  0.44722750639E+02  0.72898811541E+02  0.47000000000E+01 0. -1.
          5    1    4    4  502    0 -0.69682953359E+01 -0.42574617844E+00  0.34618191458E+03  0.34628419886E+03  0.47000000000E+01 0. -1.
         -5    1    4    4    0  502  0.32089257676E+02  0.46555146107E+02  0.63037035080E+02  0.84810729739E+02  0.47000000000E+01 0. -1.
<mgrwt>
<rscale>  0 0.32370266E+03</rscale>
<asrwt>0</asrwt>
<pdfrwt beam="1">  1       21 0.83615937E-01 0.32370266E+03</pdfrwt>
<pdfrwt beam="2">  1       21 0.74150960E-02 0.32370266E+03</pdfrwt>
<totfact> 0.16389136E+05</totfact>
</mgrwt>
</event>
<event>
 8    1  0.9123825E-006  0.2889055E+03  0.7546771E-02  0.1090922E+00
         21   -1    0    0  504  503  0.00000000000E+00  0.00000000000E+00  0.66258666362E+03  0.66258666362E+03  0.00000000000E+00 0. -1.
         21   -1    0    0  503  504 -0.00000000000E+00 -0.00000000000E+00 -0.31492640512E+02  0.31492640512E+02  0.00000000000E+00 0. -1.
         25    2    1    2    0    0  0.58478088406E+02 -0.23032875279E+02  0.40186316871E+03  0.42552264100E+03  0.12500124588E+03 0.  0.
         25    2    1    2    0    0 -0.58478088406E+02  0.23032875279E+02  0.22923085440E+03  0.26855666313E+03  0.12500278611E+03 0.  0.
          5    1    3    3  501    0 -0.23379964581E+02 -0.21617415190E+01  0.12381371533E+02  0.26957081282E+02  0.47000000000E+01 0.  1.
         -5    1    3    3    0  501  0.81858052987E+02 -0.20871133760E+02  0.38948179718E+03  0.39856555972E+03  0.47000000000E+01 0.  1.
          5    1    4    4  502    0 -0.18324013525E+02  0.30047696219E+02 -0.17804779887E+00  0.35507115073E+02  0.47000000000E+01 0. -1.
         -5    1    4    4    0  502 -0.40154074881E+02 -0.70148209398E+01  0.22940890219E+03  0.23304954805E+03  0.47000000000E+01 0. -1.
<mgrwt>
<rscale>  0 0.28890555E+03</rscale>
<asrwt>0</asrwt>
<pdfrwt beam="1">  1       21 0.10193640E+00 0.28890555E+03</pdfrwt>
<pdfrwt beam="2">  1       21 0.48450221E-02 0.28890555E+03</pdfrwt>
<totfact> 0.21619859E+05</totfact>
</mgrwt>
</event>
<event>
 8    1  0.9123825E-006  0.2844234E+03  0.7546771E-02  0.1093297E+00
         21   -1    0    0  504  503  0.00000000000E+00  0.00000000000E+00  0.65011710275E+02  0.65011710275E+02  0.00000000000E+00 0. -1.
         21   -1    0    0  503  504 -0.00000000000E+00 -0.00000000000E+00 -0.31108510271E+03  0.31108510271E+03  0.00000000000E+00 0. -1.
         25    2    1    2    0    0 -0.50921211142E+02  0.44279189150E+02 -0.11379410924E+03  0.18201286315E+03  0.12500386681E+03 0.  0.
         25    2    1    2    0    0  0.50921211142E+02 -0.44279189150E+02 -0.13227928320E+03  0.19408394984E+03  0.12496861401E+03 0.  0.
          5    1    3    3  501    0  0.14454843140E+01  0.46511021597E+02  0.97073397559E+01  0.47767007443E+02  0.47000000000E+01 0.  1.
         -5    1    3    3    0  501 -0.52366695456E+02 -0.22318324476E+01 -0.12350144900E+03  0.13424585570E+03  0.47000000000E+01 0.  1.
          5    1    4    4  502    0  0.64411185448E+02  0.12121000922E+01 -0.13359057880E+02  0.65960779444E+02  0.47000000000E+01 0.  1.
         -5    1    4    4    0  502 -0.13489974306E+02 -0.45491289242E+02 -0.11892022532E+03  0.12812317040E+03  0.47000000000E+01 0.  1.
<mgrwt>
<rscale>  0 0.28442345E+03</rscale>
<asrwt>0</asrwt>
<pdfrwt beam="1">  1       21 0.10001802E-01 0.28442345E+03</pdfrwt>
<pdfrwt beam="2">  1       21 0.47859247E-01 0.28442345E+03</pdfrwt>
<totfact> 0.33142341E+05</totfact>
</mgrwt>
</event>
<event>
 8    1  0.9123825E-006  0.2831107E+03  0.7546771E-02  0.1094002E+00
         21   -1    0    0  504  503  0.00000000000E+00  0.00000000000E+00  0.19068669724E+02  0.19068669724E+02  0.00000000000E+00 0. -1.
         21   -1    0    0  503  504 -0.00000000000E+00 -0.00000000000E+00 -0.10508296633E+04  0.10508296633E+04  0.00000000000E+00 0. -1.
         25    2    1    2    0    0  0.57821685430E+02  0.78115961960E+01 -0.63585210530E+03  0.65064422403E+03  0.12500255240E+03 0.  0.
         25    2    1    2    0    0 -0.57821685430E+02 -0.78115961960E+01 -0.39590888827E+03  0.41925410899E+03  0.12500316696E+03 0.  0.
          5    1    3    3  501    0  0.14146106492E+01  0.13193289005E+02 -0.19661286308E+01  0.14213362018E+02  0.47000000000E+01 0. -1.
         -5    1    3    3    0  501  0.56407074781E+02 -0.53816928094E+01 -0.63388597666E+03  0.63643086201E+03  0.47000000000E+01 0. -1.
          5    1    4    4  502    0 -0.78454546011E+02 -0.48307137403E+02 -0.26638691086E+03  0.28190915485E+03  0.47000000000E+01 0. -1.
         -5    1    4    4    0  502  0.20632860580E+02  0.40495541206E+02 -0.12952197742E+03  0.13734495414E+03  0.47000000000E+01 0. -1.
<mgrwt>
<rscale>  0 0.28311075E+03</rscale>
<asrwt>0</asrwt>
<pdfrwt beam="1">  1       21 0.29336424E-02 0.28311075E+03</pdfrwt>
<pdfrwt beam="2">  1       21 0.16166605E+00 0.28311075E+03</pdfrwt>
<totfact> 0.15501493E+05</totfact>
</mgrwt>
</event>
<event>
 8    1  0.9123825E-006  0.4664192E+03  0.7546771E-02  0.1022936E+00
         21   -1    0    0  504  503  0.00000000000E+00  0.00000000000E+00  0.11065991077E+03  0.11065991077E+03  0.00000000000E+00 0. -1.
         21   -1    0    0  503  504 -0.00000000000E+00 -0.00000000000E+00 -0.49147623389E+03  0.49147623389E+03  0.00000000000E+00 0. -1.
         25    2    1    2    0    0 -0.85718631558E+02 -0.16850358096E+03 -0.11949141786E+03  0.25621381227E+03  0.12500471217E+03 0.  0.
         25    2    1    2    0    0  0.85718631558E+02  0.16850358096E+03 -0.26132490526E+03  0.34592233239E+03  0.12502165150E+03 0.  0.
          5    1    3    3  501    0 -0.50052629286E+02 -0.38134624661E+02  0.15663264417E+02  0.65014945579E+02  0.47000000000E+01 0.  1.
         -5    1    3    3    0  501 -0.35666002272E+02 -0.13036895630E+03 -0.13515468227E+03  0.19119886669E+03  0.47000000000E+01 0.  1.
          5    1    4    4  502    0  0.62155485246E+02  0.10099893312E+03 -0.61570205233E+02  0.13370515701E+03  0.47000000000E+01 0. -1.
         -5    1    4    4    0  502  0.23563146312E+02  0.67504647837E+02 -0.19975470003E+03  0.21221717538E+03  0.47000000000E+01 0. -1.
<mgrwt>
<rscale>  0 0.46641919E+03</rscale>
<asrwt>0</asrwt>
<pdfrwt beam="1">  1       21 0.17024601E-01 0.46641919E+03</pdfrwt>
<pdfrwt beam="2">  1       21 0.75611730E-01 0.46641919E+03</pdfrwt>
<totfact> 0.44406382E+04</totfact>
</mgrwt>
</event>
<event>
 8    1  0.9123825E-006  0.4072317E+03  0.7546771E-02  0.1041304E+00
         21   -1    0    0  504  503  0.00000000000E+00  0.00000000000E+00  0.11625533628E+03  0.11625533628E+03  0.00000000000E+00 0.  1.
         21   -1    0    0  503  504 -0.00000000000E+00 -0.00000000000E+00 -0.35662383031E+03  0.35662383031E+03  0.00000000000E+00 0.  1.
         25    2    1    2    0    0 -0.13047954727E+03  0.72853262296E+02 -0.18890626652E+03  0.27137103072E+03  0.12499659475E+03 0.  0.
         25    2    1    2    0    0  0.13047954727E+03 -0.72853262296E+02 -0.51462227508E+02  0.20150813587E+03  0.12499863150E+03 0.  0.
          5    1    3    3  501    0 -0.93921414482E+02  0.41401572309E+02 -0.32707527172E+02  0.10782947010E+03  0.47000000000E+01 0.  1.
         -5    1    3    3    0  501 -0.36558132790E+02  0.31451689987E+02 -0.15619873935E+03  0.16354156062E+03  0.47000000000E+01 0.  1.
          5    1    4    4  502    0  0.21092629366E+02 -0.26171005582E+02  0.39226315694E+02  0.51871132527E+02  0.47000000000E+01 0. -1.
         -5    1    4    4    0  502  0.10938691791E+03 -0.46682256714E+02 -0.90688543202E+02  0.14963700334E+03  0.47000000000E+01 0. -1.
<mgrwt>
<rscale>  0 0.40723174E+03</rscale>
<asrwt>0</asrwt>
<pdfrwt beam="1">  1       21 0.17885436E-01 0.40723174E+03</pdfrwt>
<pdfrwt beam="2">  1       21 0.54865205E-01 0.40723174E+03</pdfrwt>
<totfact> 0.83509633E+04</totfact>
</mgrwt>
</event>
<event>
 8    1  0.9123825E-006  0.4539760E+03  0.7546771E-02  0.1026543E+00
         21   -1    0    0  504  503  0.00000000000E+00  0.00000000000E+00  0.24931073694E+03  0.24931073694E+03  0.00000000000E+00 0. -1.
         21   -1    0    0  503  504 -0.00000000000E+00 -0.00000000000E+00 -0.20666398911E+03  0.20666398911E+03  0.00000000000E+00 0. -1.
         25    2    1    2    0    0  0.53426363690E+02 -0.16750585366E+03 -0.49569993620E+02  0.22136854363E+03  0.12503703648E+03 0.  0.
         25    2    1    2    0    0 -0.53426363690E+02  0.16750585366E+03  0.92216741451E+02  0.23460618241E+03  0.12499418416E+03 0.  0.
          5    1    3    3  501    0  0.62512127361E+02 -0.20979174813E+02 -0.31982248908E+02  0.73435999948E+02  0.47000000000E+01 0. -1.
         -5    1    3    3    0  501 -0.90857636712E+01 -0.14652667885E+03 -0.17587744712E+02  0.14793254368E+03  0.47000000000E+01 0. -1.
          5    1    4    4  502    0  0.61640436947E+01 -0.20310763538E+00  0.51351093836E+02  0.51933241046E+02  0.47000000000E+01 0.  1.
         -5    1    4    4    0  502 -0.59590407385E+02  0.16770896130E+03  0.40865647616E+02  0.18267294137E+03  0.47000000000E+01 0.  1.
<mgrwt>
<rscale>  0 0.45397600E+03</rscale>
<asrwt>0</asrwt>
<pdfrwt beam="1">  1       21 0.38355498E-01 0.45397600E+03</pdfrwt>
<pdfrwt beam="2">  1       21 0.31794460E-01 0.45397600E+03</pdfrwt>
<totfact> 0.57539615E+04</totfact>
</mgrwt>
</event>
<event>
 8    1  0.9123825E-006  0.3067308E+03  0.7546771E-02  0.1081924E+00
         21   -1    0    0  504  503  0.00000000000E+00  0.00000000000E+00  0.12275956866E+03  0.12275956866E+03  0.00000000000E+00 0.  1.
         21   -1    0    0  503  504 -0.00000000000E+00 -0.00000000000E+00 -0.19160173786E+03  0.19160173786E+03  0.00000000000E+00 0.  1.
         25    2    1    2    0    0 -0.35726311727E+02 -0.77468759017E+02 -0.59927763670E+02  0.16276243015E+03  0.12498997494E+03 0.  0.
         25    2    1    2    0    0  0.35726311727E+02  0.77468759017E+02 -0.89144055313E+01  0.15159887637E+03  0.12499989887E+03 0.  0.
          5    1    3    3  501    0 -0.75937294414E+02 -0.80219905718E+02 -0.40198662945E+02  0.11764237527E+03  0.47000000000E+01 0.  1.
         -5    1    3    3    0  501  0.40210982687E+02  0.27511467015E+01 -0.19729100725E+02  0.45120054879E+02  0.47000000000E+01 0.  1.
          5    1    4    4  502    0 -0.15339151383E+02 -0.14602897609E+02 -0.36678248828E+02  0.42613590799E+02  0.47000000000E+01 0.  1.
         -5    1    4    4    0  502  0.51065463110E+02  0.92071656626E+02  0.27763843297E+02  0.10898528557E+03  0.47000000000E+01 0.  1.
<mgrwt>
<rscale>  0 0.30673081E+03</rscale>
<asrwt>0</asrwt>
<pdfrwt beam="1">  1       21 0.18886087E-01 0.30673081E+03</pdfrwt>
<pdfrwt beam="2">  1       21 0.29477191E-01 0.30673081E+03</pdfrwt>
<totfact> 0.27572364E+05</totfact>
</mgrwt>
</event>
<event>
 8    1  0.9123825E-006  0.2671061E+03  0.7546771E-02  0.1102947E+00
         21   -1    0    0  504  503  0.00000000000E+00  0.00000000000E+00  0.12706738716E+02  0.12706738716E+02  0.00000000000E+00 0.  1.
         21   -1    0    0  503  504 -0.00000000000E+00 -0.00000000000E+00 -0.14036970992E+04  0.14036970992E+04  0.00000000000E+00 0.  1.
         25    2    1    2    0    0 -0.30538949219E+02 -0.12887774965E+02 -0.87249676718E+03  0.88202873883E+03  0.12500146089E+03 0.  0.
         25    2    1    2    0    0  0.30538949219E+02  0.12887774965E+02 -0.51849359332E+03  0.53437509910E+03  0.12498967182E+03 0.  0.
          5    1    3    3  501    0 -0.50927840774E+02  0.44662194426E+02 -0.43509816826E+03  0.44036446565E+03  0.47000000000E+01 0.  1.
         -5    1    3    3    0  501  0.20388891555E+02 -0.57549969391E+02 -0.43739859891E+03  0.44166427318E+03  0.47000000000E+01 0.  1.
          5    1    4    4  502    0  0.65644235286E+02 -0.12793307363E+02 -0.16374221887E+03  0.17693625570E+03  0.47000000000E+01 0.  1.
         -5    1    4    4    0  502 -0.35105286067E+02  0.25681082328E+02 -0.35475137445E+03  0.35743884340E+03  0.47000000000E+01 0.  1.
<mgrwt>
<rscale>  0 0.26710606E+03</rscale>
<asrwt>0</asrwt>
<pdfrwt beam="1">  1       21 0.19548840E-02 0.26710606E+03</pdfrwt>
<pdfrwt beam="2">  1       21 0.21595327E+00 0.26710606E+03</pdfrwt>
<totfact> 0.13097896E+05</totfact>
</mgrwt>
</event>
<event>
 8    1  0.9123825E-006  0.4239717E+03  0.7546771E-02  0.1035781E+00
         21   -1    0    0  504  503  0.00000000000E+00  0.00000000000E+00  0.79363103533E+02  0.79363103533E+02  0.00000000000E+00 0. -1.
         21   -1    0    0  503  504 -0.00000000000E+00 -0.00000000000E+00 -0.56623285970E+03  0.56623285970E+03  0.00000000000E+00 0. -1.
         25    2    1    2    0    0 -0.13584566789E+03  0.10162664654E+03 -0.27857149807E+03  0.34929762318E+03  0.12499891702E+03 0.  0.
         25    2    1    2    0    0  0.13584566789E+03 -0.10162664654E+03 -0.20829825811E+03  0.29629834005E+03  0.12499008447E+03 0.  0.
          5    1    3    3  501    0 -0.10127261546E+02  0.34931735176E+02 -0.25794025730E+00  0.36673479273E+02  0.47000000000E+01 0.  1.
         -5    1    3    3    0  501 -0.12571840635E+03  0.66694911361E+02 -0.27831355781E+03  0.31262414391E+03  0.47000000000E+01 0.  1.
          5    1    4    4  502    0  0.15416978877E+03 -0.96222225905E+02 -0.20849764327E+03  0.27662320542E+03  0.47000000000E+01 0.  1.
         -5    1    4    4    0  502 -0.18324120879E+02 -0.54044206317E+01  0.19938516509E+00  0.19675134632E+02  0.47000000000E+01 0.  1.
<mgrwt>
<rscale>  0 0.42397168E+03</rscale>
<asrwt>0</asrwt>
<pdfrwt beam="1">  1       21 0.12209708E-01 0.42397168E+03</pdfrwt>
<pdfrwt beam="2">  1       21 0.87112748E-01 0.42397168E+03</pdfrwt>
<totfact> 0.59706952E+04</totfact>
</mgrwt>
</event>
<event>
 8    1  0.9123825E-006  0.4895478E+03  0.7546771E-02  0.1016544E+00
         21   -1    0    0  504  503  0.00000000000E+00  0.00000000000E+00  0.23675922629E+03  0.23675922629E+03  0.00000000000E+00 0.  1.
         21   -1    0    0  503  504 -0.00000000000E+00 -0.00000000000E+00 -0.25305984403E+03  0.25305984403E+03  0.00000000000E+00 0.  1.
         25    2    1    2    0    0  0.63798649301E+02 -0.11197473324E+03 -0.17461356100E+03  0.25045094608E+03  0.12500868838E+03 0.  0.
         25    2    1    2    0    0 -0.63798649301E+02  0.11197473324E+03  0.15831294326E+03  0.23936812425E+03  0.12500200944E+03 0.  0.
          5    1    3    3  501    0  0.57914508627E+02 -0.32292902112E+02 -0.97506375762E+01  0.67186953864E+02  0.47000000000E+01 0.  1.
         -5    1    3    3    0  501  0.58841406745E+01 -0.79681831130E+02 -0.16486292343E+03  0.18326399222E+03  0.47000000000E+01 0.  1.
          5    1    4    4  502    0 -0.46450844353E+02  0.85437900490E+02  0.22638682471E+02  0.99959570454E+02  0.47000000000E+01 0.  1.
         -5    1    4    4    0  502 -0.17347804949E+02  0.26536832752E+02  0.13567426079E+03  0.13940855379E+03  0.47000000000E+01 0.  1.
<mgrwt>
<rscale>  0 0.48954776E+03</rscale>
<asrwt>0</asrwt>
<pdfrwt beam="1">  1       21 0.36424497E-01 0.48954776E+03</pdfrwt>
<pdfrwt beam="2">  1       21 0.38932283E-01 0.48954776E+03</pdfrwt>
<totfact> 0.42098896E+04</totfact>
</mgrwt>
</event>
<event>
 8    1  0.9123825E-006  0.2682263E+03  0.7546771E-02  0.1102299E+00
         21   -1    0    0  504  503  0.00000000000E+00  0.00000000000E+00  0.17570552840E+03  0.17570552840E+03  0.00000000000E+00 0.  1.
         21   -1    0    0  503  504 -0.00000000000E+00 -0.00000000000E+00 -0.10236633711E+03  0.10236633711E+03  0.00000000000E+00 0.  1.
         25    2    1    2    0    0 -0.12571748954E+02  0.38352475263E+02  0.64742575908E+02  0.14643701984E+03  0.12499295346E+03 0.  0.
         25    2    1    2    0    0  0.12571748954E+02 -0.38352475263E+02  0.85966153815E+01  0.13163484567E+03  0.12499947827E+03 0.  0.
          5    1    3    3  501    0  0.46656337369E+02  0.33563189689E+01  0.61493501074E+02  0.77405551274E+02  0.47000000000E+01 0.  1.
         -5    1    3    3    0  501 -0.59228086323E+02  0.34996156294E+02  0.32490748332E+01  0.69031468564E+02  0.47000000000E+01 0.  1.
          5    1    4    4  502    0 -0.50348223829E+02  0.72046149151E+01  0.15834054275E+02  0.53475764544E+02  0.47000000000E+01 0. -1.
         -5    1    4    4    0  502  0.62919972783E+02 -0.45557090178E+02 -0.72374388935E+01  0.78159081125E+02  0.47000000000E+01 0. -1.
<mgrwt>
<rscale>  0 0.26822626E+03</rscale>
<asrwt>0</asrwt>
<pdfrwt beam="1">  1       21 0.27031620E-01 0.26822626E+03</pdfrwt>
<pdfrwt beam="2">  1       21 0.15748667E-01 0.26822626E+03</pdfrwt>
<totfact> 0.46107025E+05</totfact>
</mgrwt>
</event>
<event>
 8    1  0.9123825E-006  0.3758251E+03  0.7546771E-02  0.1052488E+00
         21   -1    0    0  504  503  0.00000000000E+00  0.00000000000E+00  0.69248548271E+02  0.69248548271E+02  0.00000000000E+00 0.  1.
         21   -1    0    0  503  504 -0.00000000000E+00 -0.00000000000E+00 -0.50991857059E+03  0.50991857059E+03  0.00000000000E+00 0.  1.
         25    2    1    2    0    0  0.86823216779E+02 -0.54478723255E+02 -0.36798973656E+03  0.40193109647E+03  0.12500383129E+03 0.  0.
         25    2    1    2    0    0 -0.86823216779E+02  0.54478723255E+02 -0.72680285757E+02  0.17723602239E+03  0.12499592567E+03 0.  0.
          5    1    3    3  501    0  0.10713417838E+03 -0.15893668647E+02 -0.31507740351E+03  0.33320594395E+03  0.47000000000E+01 0. -1.
         -5    1    3    3    0  501 -0.20310961602E+02 -0.38585054609E+02 -0.52912333050E+02  0.68725152522E+02  0.47000000000E+01 0. -1.
          5    1    4    4  502    0 -0.25184702796E+02 -0.75959443770E+01  0.31375741002E+02  0.41212798368E+02  0.47000000000E+01 0. -1.
         -5    1    4    4    0  502 -0.61638513983E+02  0.62074667632E+02 -0.10405602676E+03  0.13602322402E+03  0.47000000000E+01 0. -1.
<mgrwt>
<rscale>  0 0.37582507E+03</rscale>
<asrwt>0</asrwt>
<pdfrwt beam="1">  1       21 0.10653623E-01 0.37582507E+03</pdfrwt>
<pdfrwt beam="2">  1       21 0.78449007E-01 0.37582507E+03</pdfrwt>
<totfact> 0.98533878E+04</totfact>
</mgrwt>
</event>
<event>
 8    1  0.9123825E-006  0.2689402E+03  0.7546771E-02  0.1101888E+00
         21   -1    0    0  504  503  0.00000000000E+00  0.00000000000E+00  0.32143361899E+02  0.32143361899E+02  0.00000000000E+00 0. -1.
         21   -1    0    0  503  504 -0.00000000000E+00 -0.00000000000E+00 -0.56254870374E+03  0.56254870374E+03  0.00000000000E+00 0. -1.
         25    2    1    2    0    0  0.20926670492E+02 -0.47709035903E+01 -0.36408431295E+03  0.38554458086E+03  0.12500619920E+03 0.  0.
         25    2    1    2    0    0 -0.20926670492E+02  0.47709035903E+01 -0.16632102889E+03  0.20914748478E+03  0.12497719263E+03 0.  0.
          5    1    3    3  501    0  0.30228247324E+02 -0.59108098957E+02 -0.14439424447E+03  0.15899466071E+03  0.47000000000E+01 0. -1.
         -5    1    3    3    0  501 -0.93015768324E+01  0.54337195367E+02 -0.21969006849E+03  0.22654992016E+03  0.47000000000E+01 0. -1.
          5    1    4    4  502    0  0.38912145604E+02 -0.26401574507E+02 -0.27373939509E+02  0.54613375433E+02  0.47000000000E+01 0.  1.
         -5    1    4    4    0  502 -0.59838816096E+02  0.31172478097E+02 -0.13894708938E+03  0.15453410934E+03  0.47000000000E+01 0.  1.
<mgrwt>
<rscale>  0 0.26894019E+03</rscale>
<asrwt>0</asrwt>
<pdfrwt beam="1">  1       21 0.49451325E-02 0.26894019E+03</pdfrwt>
<pdfrwt beam="2">  1       21 0.86545956E-01 0.26894019E+03</pdfrwt>
<totfact> 0.30881203E+05</totfact>
</mgrwt>
</event>
<event>
 8    1  0.9123825E-006  0.2556250E+03  0.7546771E-02  0.1109801E+00
         21   -1    0    0  504  503  0.00000000000E+00  0.00000000000E+00  0.54285230102E+03  0.54285230102E+03  0.00000000000E+00 0.  1.
         21   -1    0    0  503  504 -0.00000000000E+00 -0.00000000000E+00 -0.30092966902E+02  0.30092966902E+02  0.00000000000E+00 0.  1.
         25    2    1    2    0    0  0.12266426480E+02  0.16857693309E+02  0.21891056687E+03  0.25293654458E+03  0.12498164765E+03 0.  0.
         25    2    1    2    0    0 -0.12266426480E+02 -0.16857693309E+02  0.29384876725E+03  0.32000872335E+03  0.12499535178E+03 0.  0.
          5    1    3    3  501    0  0.26764904527E+02 -0.20909465405E+02  0.20795418681E+03  0.21076195024E+03  0.47000000000E+01 0. -1.
         -5    1    3    3    0  501 -0.14498478046E+02  0.37767158714E+02  0.10956380063E+02  0.42174594332E+02  0.47000000000E+01 0. -1.
          5    1    4    4  502    0 -0.53428002743E+02  0.26459867551E+02  0.94421471049E+02  0.11176842248E+03  0.47000000000E+01 0. -1.
         -5    1    4    4    0  502  0.41161576263E+02 -0.43317560860E+02  0.19942729620E+03  0.20824030088E+03  0.47000000000E+01 0. -1.
<mgrwt>
<rscale>  0 0.25562501E+03</rscale>
<asrwt>0</asrwt>
<pdfrwt beam="1">  1       21 0.83515732E-01 0.25562501E+03</pdfrwt>
<pdfrwt beam="2">  1       21 0.46296876E-02 0.25562501E+03</pdfrwt>
<totfact> 0.37625247E+05</totfact>
</mgrwt>
</event>
<event>
 8    1  0.9123825E-006  0.2851141E+03  0.7546771E-02  0.1092928E+00
         21   -1    0    0  504  503  0.00000000000E+00  0.00000000000E+00  0.18317562776E+03  0.18317562776E+03  0.00000000000E+00 0. -1.
         21   -1    0    0  503  504 -0.00000000000E+00 -0.00000000000E+00 -0.11094549230E+03  0.11094549230E+03  0.00000000000E+00 0. -1.
         25    2    1    2    0    0 -0.63616339806E+02 -0.23814089874E+02  0.45466323471E+02  0.14935307676E+03  0.12500002160E+03 0.  0.
         25    2    1    2    0    0  0.63616339806E+02  0.23814089874E+02  0.26763811994E+02  0.14476804330E+03  0.12500934030E+03 0.  0.
          5    1    3    3  501    0 -0.57591534375E+02 -0.68760006333E+02  0.51230797614E+02  0.10339926463E+03  0.47000000000E+01 0.  1.
         -5    1    3    3    0  501 -0.60248054309E+01  0.44945916460E+02 -0.57644741429E+01  0.45953812127E+02  0.47000000000E+01 0.  1.
          5    1    4    4  502    0  0.35130551076E+01  0.21343085464E+02 -0.45516701141E+02  0.50613525229E+02  0.47000000000E+01 0.  1.
         -5    1    4    4    0  502  0.60103284698E+02  0.24710044097E+01  0.72280513135E+02  0.94154518072E+02  0.47000000000E+01 0.  1.
<mgrwt>
<rscale>  0 0.28511408E+03</rscale>
<asrwt>0</asrwt>
<pdfrwt beam="1">  1       21 0.28180866E-01 0.28511408E+03</pdfrwt>
<pdfrwt beam="2">  1       21 0.17068537E-01 0.28511408E+03</pdfrwt>
<totfact> 0.36525036E+05</totfact>
</mgrwt>
</event>
<event>
 8    1  0.9123825E-006  0.2851869E+03  0.7546771E-02  0.1092889E+00
         21   -1    0    0  504  503  0.00000000000E+00  0.00000000000E+00  0.29645405153E+03  0.29645405153E+03  0.00000000000E+00 0.  1.
         21   -1    0    0  503  504 -0.00000000000E+00 -0.00000000000E+00 -0.68586989916E+02  0.68586989916E+02  0.00000000000E+00 0.  1.
         25    2    1    2    0    0  0.60749486172E+02 -0.28507187059E+02  0.95957870664E+02  0.17127762966E+03  0.12499981478E+03 0.  0.
         25    2    1    2    0    0 -0.60749486172E+02  0.28507187059E+02  0.13190919095E+03  0.19376341178E+03  0.12506424471E+03 0.  0.
          5    1    3    3  501    0 -0.22869881054E+02  0.30308149837E+02  0.36722324342E+02  0.53030505477E+02  0.47000000000E+01 0. -1.
         -5    1    3    3    0  501  0.83619367226E+02 -0.58815336897E+02  0.59235546322E+02  0.11824712418E+03  0.47000000000E+01 0. -1.
          5    1    4    4  502    0 -0.91737872006E+02 -0.70252008223E+01  0.10331010870E+03  0.13842058794E+03  0.47000000000E+01 0.  1.
         -5    1    4    4    0  502  0.30988385834E+02  0.35532387882E+02  0.28599082245E+02  0.55342823839E+02  0.47000000000E+01 0.  1.
<mgrwt>
<rscale>  0 0.28518689E+03</rscale>
<asrwt>0</asrwt>
<pdfrwt beam="1">  1       21 0.45608315E-01 0.28518689E+03</pdfrwt>
<pdfrwt beam="2">  1       21 0.10551845E-01 0.28518689E+03</pdfrwt>
<totfact> 0.33297849E+05</totfact>
</mgrwt>
</event>
<event>
 8    1  0.9123825E-006  0.4129324E+03  0.7546771E-02  0.1039391E+00
         21   -1    0    0  504  503  0.00000000000E+00  0.00000000000E+00  0.22036650995E+03  0.22036650995E+03  0.00000000000E+00 0.  1.
         21   -1    0    0  503  504 -0.00000000000E+00 -0.00000000000E+00 -0.19344271216E+03  0.19344271216E+03  0.00000000000E+00 0.  1.
         25    2    1    2    0    0  0.10941226444E+03  0.11986651462E+03 -0.12369401076E+02  0.20521916487E+03  0.12499151414E+03 0.  0.
         25    2    1    2    0    0 -0.10941226444E+03 -0.11986651462E+03  0.39293198864E+02  0.20859005725E+03  0.12500732606E+03 0.  0.
          5    1    3    3  501    0 -0.21056336960E+02 -0.29141368970E+00  0.14170017382E+02  0.25813439150E+02  0.47000000000E+01 0.  1.
         -5    1    3    3    0  501  0.13046860140E+03  0.12015792831E+03 -0.26539418459E+02  0.17940572572E+03  0.47000000000E+01 0.  1.
          5    1    4    4  502    0  0.23658681467E+02 -0.76287368629E+01  0.22107069725E+02  0.33596776136E+02  0.47000000000E+01 0. -1.
         -5    1    4    4    0  502 -0.13307094591E+03 -0.11223777776E+03  0.17186129139E+02  0.17499328112E+03  0.47000000000E+01 0. -1.
<mgrwt>
<rscale>  0 0.41293242E+03</rscale>
<asrwt>0</asrwt>
<pdfrwt beam="1">  1       21 0.33902540E-01 0.41293242E+03</pdfrwt>
<pdfrwt beam="2">  1       21 0.29760417E-01 0.41293242E+03</pdfrwt>
<totfact> 0.85040356E+04</totfact>
</mgrwt>
</event>
<event>
 8    1  0.9123825E-006  0.2585770E+03  0.7546771E-02  0.1108001E+00
         21   -1    0    0  504  503  0.00000000000E+00  0.00000000000E+00  0.34952305780E+03  0.34952305780E+03  0.00000000000E+00 0. -1.
         21   -1    0    0  503  504 -0.00000000000E+00 -0.00000000000E+00 -0.47823769910E+02  0.47823769910E+02  0.00000000000E+00 0. -1.
         25    2    1    2    0    0 -0.16435921364E+02 -0.27405743871E+02  0.13804311819E+03  0.18895504134E+03  0.12500756322E+03 0.  0.
         25    2    1    2    0    0  0.16435921364E+02  0.27405743871E+02  0.16365616970E+03  0.20839178636E+03  0.12499032136E+03 0.  0.
          5    1    3    3  501    0  0.57632961352E+00 -0.15934139428E+02 -0.21977447070E+02  0.27555891109E+02  0.47000000000E+01 0.  1.
         -5    1    3    3    0  501 -0.17012250977E+02 -0.11471604443E+02  0.16002056526E+03  0.16139915024E+03  0.47000000000E+01 0.  1.
          5    1    4    4  502    0  0.62547522379E+02 -0.13593615884E+02  0.10540155102E+03  0.12340403521E+03  0.47000000000E+01 0.  1.
         -5    1    4    4    0  502 -0.46111601015E+02  0.40999359755E+02  0.58254618686E+02  0.84987751157E+02  0.47000000000E+01 0.  1.
<mgrwt>
<rscale>  0 0.25857695E+03</rscale>
<asrwt>0</asrwt>
<pdfrwt beam="1">  1       21 0.53772777E-01 0.25857695E+03</pdfrwt>
<pdfrwt beam="2">  1       21 0.73575033E-02 0.25857695E+03</pdfrwt>
<totfact> 0.44764081E+05</totfact>
</mgrwt>
</event>
<event>
 8    1  0.9123825E-006  0.4407951E+03  0.7546771E-02  0.1030503E+00
         21   -1    0    0  504  503  0.00000000000E+00  0.00000000000E+00  0.23704171237E+03  0.23704171237E+03  0.00000000000E+00 0.  1.
         21   -1    0    0  503  504 -0.00000000000E+00 -0.00000000000E+00 -0.20492208724E+03  0.20492208724E+03  0.00000000000E+00 0.  1.
         25    2    1    2    0    0 -0.83781536380E+02  0.15695493964E+03 -0.20043939573E+02  0.21835847658E+03  0.12499786345E+03 0.  0.
         25    2    1    2    0    0  0.83781536380E+02 -0.15695493964E+03  0.52163564702E+02  0.22360532303E+03  0.12499641632E+03 0.  0.
          5    1    3    3  501    0 -0.91498623475E+02  0.70152661672E+02  0.27993660996E+02  0.11873975364E+03  0.47000000000E+01 0. -1.
         -5    1    3    3    0  501  0.77170870942E+01  0.86802277967E+02 -0.48037600570E+02  0.99618722948E+02  0.47000000000E+01 0. -1.
          5    1    4    4  502    0  0.11255130889E+03 -0.94726635228E+02  0.23062933432E+02  0.14897960079E+03  0.47000000000E+01 0. -1.
         -5    1    4    4    0  502 -0.28769772506E+02 -0.62228304411E+02  0.29100631270E+02  0.74625722242E+02  0.47000000000E+01 0. -1.
<mgrwt>
<rscale>  0 0.44079511E+03</rscale>
<asrwt>0</asrwt>
<pdfrwt beam="1">  1       21 0.36467956E-01 0.44079511E+03</pdfrwt>
<pdfrwt beam="2">  1       21 0.31526475E-01 0.44079511E+03</pdfrwt>
<totfact> 0.65046492E+04</totfact>
</mgrwt>
</event>
<event>
 8    1  0.9123825E-006  0.3269469E+03  0.7546771E-02  0.1072496E+00
         21   -1    0    0  504  503  0.00000000000E+00  0.00000000000E+00  0.19954392481E+03  0.19954392481E+03  0.00000000000E+00 0. -1.
         21   -1    0    0  503  504 -0.00000000000E+00 -0.00000000000E+00 -0.13392324222E+03  0.13392324222E+03  0.00000000000E+00 0. -1.
         25    2    1    2    0    0 -0.78235083808E+02 -0.55644551170E+02  0.77003703703E+02  0.17543318200E+03  0.12502074448E+03 0.  0.
         25    2    1    2    0    0  0.78235083808E+02  0.55644551170E+02 -0.11383021114E+02  0.15803398503E+03  0.12501249074E+03 0.  0.
          5    1    3    3  501    0 -0.29138270435E+02 -0.38036368282E+02 -0.29701538411E+02  0.56569209823E+02  0.47000000000E+01 0.  1.
         -5    1    3    3    0  501 -0.49096813373E+02 -0.17608182889E+02  0.10670524211E+03  0.11886397218E+03  0.47000000000E+01 0.  1.
          5    1    4    4  502    0  0.10221253138E+03  0.57981748771E+02 -0.36276531878E+02  0.12307461772E+03  0.47000000000E+01 0. -1.
         -5    1    4    4    0  502 -0.23977447571E+02 -0.23371976006E+01  0.24893510764E+02  0.34959367311E+02  0.47000000000E+01 0. -1.
<mgrwt>
<rscale>  0 0.32694690E+03</rscale>
<asrwt>0</asrwt>
<pdfrwt beam="1">  1       21 0.30699065E-01 0.32694690E+03</pdfrwt>
<pdfrwt beam="2">  1       21 0.20603576E-01 0.32694690E+03</pdfrwt>
<totfact> 0.21509006E+05</totfact>
</mgrwt>
</event>
<event>
 8    1  0.9123825E-006  0.3363751E+03  0.7546771E-02  0.1068350E+00
         21   -1    0    0  504  503  0.00000000000E+00  0.00000000000E+00  0.31069001632E+03  0.31069001632E+03  0.00000000000E+00 0.  1.
         21   -1    0    0  503  504 -0.00000000000E+00 -0.00000000000E+00 -0.91045886628E+02  0.91045886628E+02  0.00000000000E+00 0.  1.
         25    2    1    2    0    0  0.27364247060E+02 -0.65186502783E+02  0.21436928529E+03  0.25802600959E+03  0.12500059595E+03 0.  0.
         25    2    1    2    0    0 -0.27364247060E+02  0.65186502783E+02  0.52748444019E+01  0.14370989336E+03  0.12500650904E+03 0.  0.
          5    1    3    3  501    0  0.35729310556E+02 -0.96122863521E+02  0.11823379365E+03  0.15658067724E+03  0.47000000000E+01 0. -1.
         -5    1    3    3    0  501 -0.83650634954E+01  0.30936360737E+02  0.96135491638E+02  0.10144533235E+03  0.47000000000E+01 0. -1.
          5    1    4    4  502    0  0.55604788567E+01 -0.31728582472E+02  0.22820744251E+02  0.39755480615E+02  0.47000000000E+01 0.  1.
         -5    1    4    4    0  502 -0.32924725917E+02  0.96915085255E+02 -0.17545899849E+02  0.10395441274E+03  0.47000000000E+01 0.  1.
<mgrwt>
<rscale>  0 0.33637508E+03</rscale>
<asrwt>0</asrwt>
<pdfrwt beam="1">  1       21 0.47798463E-01 0.33637508E+03</pdfrwt>
<pdfrwt beam="2">  1       21 0.14007060E-01 0.33637508E+03</pdfrwt>
<totfact> 0.17890023E+05</totfact>
</mgrwt>
</event>
<event>
 8    1  0.9123825E-006  0.5446963E+03  0.7546771E-02  0.1002729E+00
         21   -1    0    0  504  503  0.00000000000E+00  0.00000000000E+00  0.17098492225E+03  0.17098492225E+03  0.00000000000E+00 0.  1.
         21   -1    0    0  503  504 -0.00000000000E+00 -0.00000000000E+00 -0.43380157341E+03  0.43380157341E+03  0.00000000000E+00 0.  1.
         25    2    1    2    0    0  0.14870674074E+03 -0.17840341836E+03 -0.20675580093E+03  0.33513189576E+03  0.12499580760E+03 0.  0.
         25    2    1    2    0    0 -0.14870674074E+03  0.17840341836E+03 -0.56060850236E+02  0.26965459989E+03  0.12501723838E+03 0.  0.
          5    1    3    3  501    0  0.14367489994E+03 -0.17032821021E+03 -0.22328604431E+03  0.31548838909E+03  0.47000000000E+01 0. -1.
         -5    1    3    3    0  501  0.50318407929E+01 -0.80752081503E+01  0.16530243377E+02  0.19643506676E+02  0.47000000000E+01 0. -1.
          5    1    4    4  502    0  0.10439358923E+02  0.67232190460E+02 -0.26292060709E+01  0.68250643758E+02  0.47000000000E+01 0.  1.
         -5    1    4    4    0  502 -0.15914609966E+03  0.11117122790E+03 -0.53431644165E+02  0.20140395614E+03  0.47000000000E+01 0.  1.
<mgrwt>
<rscale>  0 0.54469635E+03</rscale>
<asrwt>0</asrwt>
<pdfrwt beam="1">  1       21 0.26305373E-01 0.54469635E+03</pdfrwt>
<pdfrwt beam="2">  1       21 0.66738703E-01 0.54469635E+03</pdfrwt>
<totfact> 0.25143449E+04</totfact>
</mgrwt>
</event>
<event>
 8    1  0.9123825E-006  0.2611879E+03  0.7546771E-02  0.1106432E+00
         21   -1    0    0  504  503  0.00000000000E+00  0.00000000000E+00  0.23578577275E+03  0.23578577275E+03  0.00000000000E+00 0.  1.
         21   -1    0    0  503  504 -0.00000000000E+00 -0.00000000000E+00 -0.72331687230E+02  0.72331687230E+02  0.00000000000E+00 0.  1.
         25    2    1    2    0    0 -0.59708923536E+00  0.34787857000E+02  0.99210874604E+02  0.16333309878E+03  0.12499740800E+03 0.  0.
         25    2    1    2    0    0  0.59708923536E+00 -0.34787857000E+02  0.64243210913E+02  0.14478436120E+03  0.12499907835E+03 0.  0.
          5    1    3    3  501    0 -0.40913871496E+02 -0.30841844228E+02  0.50403748383E+02  0.72026329125E+02  0.47000000000E+01 0.  1.
         -5    1    3    3    0  501  0.40316782260E+02  0.65629701228E+02  0.48807126222E+02  0.91306769657E+02  0.47000000000E+01 0.  1.
          5    1    4    4  502    0  0.58771328109E+02 -0.34768878680E+01  0.11624382446E+02  0.60194468385E+02  0.47000000000E+01 0. -1.
         -5    1    4    4    0  502 -0.58174238873E+02 -0.31310969132E+02  0.52618828467E+02  0.84589892811E+02  0.47000000000E+01 0. -1.
<mgrwt>
<rscale>  0 0.26118792E+03</rscale>
<asrwt>0</asrwt>
<pdfrwt beam="1">  1       21 0.36274734E-01 0.26118792E+03</pdfrwt>
<pdfrwt beam="2">  1       21 0.11127952E-01 0.26118792E+03</pdfrwt>
<totfact> 0.48540734E+05</totfact>
</mgrwt>
</event>
<event>
 8    1  0.9123825E-006  0.5975394E+03  0.7546771E-02  0.9910524E-01
         21   -1    0    0  504  503  0.00000000000E+00  0.00000000000E+00  0.11917583636E+03  0.11917583636E+03  0.00000000000E+00 0. -1.
         21   -1    0    0  503  504 -0.00000000000E+00 -0.00000000000E+00 -0.74900538993E+03  0.74900538993E+03  0.00000000000E+00 0. -1.
         25    2    1    2    0    0  0.19315975655E+02  0.32672322767E+01  0.78326558275E+02  0.14881015206E+03  0.12500251958E+03 0.  0.
         25    2    1    2    0    0 -0.19315975655E+02 -0.32672322767E+01 -0.70815611185E+03  0.71937107423E+03  0.12500352781E+03 0.  0.
          5    1    3    3  501    0 -0.42590321086E+02 -0.44006837276E+01  0.74600548743E+02  0.86143098041E+02  0.47000000000E+01 0.  1.
         -5    1    3    3    0  501  0.61906296741E+02  0.76679160042E+01  0.37260095329E+01  0.62667054016E+02  0.47000000000E+01 0.  1.
          5    1    4    4  502    0  0.45495157017E+02 -0.76426273059E+01 -0.47597178078E+03  0.47822530795E+03  0.47000000000E+01 0. -1.
         -5    1    4    4    0  502 -0.64811132672E+02  0.43753950292E+01 -0.23218433107E+03  0.24114576627E+03  0.47000000000E+01 0. -1.
<mgrwt>
<rscale>  0 0.59753943E+03</rscale>
<asrwt>0</asrwt>
<pdfrwt beam="1">  1       21 0.18334744E-01 0.59753943E+03</pdfrwt>
<pdfrwt beam="2">  1       21 0.11523160E+00 0.59753943E+03</pdfrwt>
<totfact> 0.13637640E+04</totfact>
</mgrwt>
</event>
<event>
 8    1  0.9123825E-006  0.3552030E+03  0.7546771E-02  0.1060500E+00
         21   -1    0    0  504  503  0.00000000000E+00  0.00000000000E+00  0.23041433322E+03  0.23041433322E+03  0.00000000000E+00 0.  1.
         21   -1    0    0  503  504 -0.00000000000E+00 -0.00000000000E+00 -0.13689378592E+03  0.13689378592E+03  0.00000000000E+00 0.  1.
         25    2    1    2    0    0  0.82973143108E+02  0.93424465253E+02  0.64814806366E+02  0.18824578260E+03  0.12499136912E+03 0.  0.
         25    2    1    2    0    0 -0.82973143108E+02 -0.93424465253E+02  0.28705740931E+02  0.17906233654E+03  0.12500651031E+03 0.  0.
          5    1    3    3  501    0  0.45315068066E+02  0.91213627904E+02  0.95265879688E+02  0.13953873707E+03  0.47000000000E+01 0. -1.
         -5    1    3    3    0  501  0.37658075042E+02  0.22108373490E+01 -0.30451073323E+02  0.48707045529E+02  0.47000000000E+01 0. -1.
          5    1    4    4  502    0 -0.12674462798E+02  0.84429001092E+01  0.50806256052E+02  0.53247443352E+02  0.47000000000E+01 0.  1.
         -5    1    4    4    0  502 -0.70298680311E+02 -0.10186736536E+03 -0.22100515121E+02  0.12581489319E+03  0.47000000000E+01 0.  1.
<mgrwt>
<rscale>  0 0.35520299E+03</rscale>
<asrwt>0</asrwt>
<pdfrwt beam="1">  1       21 0.35448359E-01 0.35520299E+03</pdfrwt>
<pdfrwt beam="2">  1       21 0.21060582E-01 0.35520299E+03</pdfrwt>
<totfact> 0.15390463E+05</totfact>
</mgrwt>
</event>
<event>
 8    1  0.9123825E-006  0.2989752E+03  0.7546771E-02  0.1085754E+00
         21   -1    0    0  504  503  0.00000000000E+00  0.00000000000E+00  0.72649649834E+02  0.72649649834E+02  0.00000000000E+00 0.  1.
         21   -1    0    0  503  504 -0.00000000000E+00 -0.00000000000E+00 -0.30759322646E+03  0.30759322646E+03  0.00000000000E+00 0.  1.
         25    2    1    2    0    0 -0.59072348063E+02 -0.55307352420E+02 -0.13421646625E+03  0.20046797698E+03  0.12499961777E+03 0.  0.
         25    2    1    2    0    0  0.59072348063E+02  0.55307352420E+02 -0.10072711037E+03  0.17977489931E+03  0.12499847247E+03 0.  0.
          5    1    3    3  501    0 -0.44791206297E+02 -0.18000692297E+02  0.11043092697E+02  0.49742506783E+02  0.47000000000E+01 0.  1.
         -5    1    3    3    0  501 -0.14281141766E+02 -0.37306660123E+02 -0.14525955895E+03  0.15072547020E+03  0.47000000000E+01 0.  1.
          5    1    4    4  502    0  0.25825272079E+02 -0.98531354260E+01  0.22798246675E+02  0.36136947950E+02  0.47000000000E+01 0. -1.
         -5    1    4    4    0  502  0.33247075984E+02  0.65160487846E+02 -0.12352535704E+03  0.14363795136E+03  0.47000000000E+01 0. -1.
<mgrwt>
<rscale>  0 0.29897518E+03</rscale>
<asrwt>0</asrwt>
<pdfrwt beam="1">  1       21 0.11176869E-01 0.29897518E+03</pdfrwt>
<pdfrwt beam="2">  1       21 0.47322035E-01 0.29897518E+03</pdfrwt>
<totfact> 0.27734363E+05</totfact>
</mgrwt>
</event>
<event>
 8    1  0.9123825E-006  0.3479530E+03  0.7546771E-02  0.1063458E+00
         21   -1    0    0  504  503  0.00000000000E+00  0.00000000000E+00  0.26555588034E+03  0.26555588034E+03  0.00000000000E+00 0.  1.
         21   -1    0    0  503  504 -0.00000000000E+00 -0.00000000000E+00 -0.11397911125E+03  0.11397911125E+03  0.00000000000E+00 0.  1.
         25    2    1    2    0    0 -0.23868390088E+02  0.11803767825E+03  0.62914269310E+02  0.18462757153E+03  0.12500616527E+03 0.  0.
         25    2    1    2    0    0  0.23868390088E+02 -0.11803767825E+03  0.88662499785E+02  0.19490742005E+03  0.12500107996E+03 0.  0.
          5    1    3    3  501    0 -0.43308943152E+02  0.88309107444E+02  0.94783115284E+02  0.13667513292E+03  0.47000000000E+01 0. -1.
         -5    1    3    3    0  501  0.19440553063E+02  0.29728570809E+02 -0.31868845974E+02  0.47952438618E+02  0.47000000000E+01 0. -1.
          5    1    4    4  502    0 -0.50415294074E+02 -0.62523865702E+02  0.46531316923E+02  0.92941858780E+02  0.47000000000E+01 0.  1.
         -5    1    4    4    0  502  0.74283684162E+02 -0.55513812551E+02  0.42131182862E+02  0.10196556127E+03  0.47000000000E+01 0.  1.
<mgrwt>
<rscale>  0 0.34795300E+03</rscale>
<asrwt>0</asrwt>
<pdfrwt beam="1">  1       21 0.40854751E-01 0.34795300E+03</pdfrwt>
<pdfrwt beam="2">  1       21 0.17535248E-01 0.34795300E+03</pdfrwt>
<totfact> 0.16312641E+05</totfact>
</mgrwt>
</event>
<event>
 8    1  0.9123825E-006  0.3778491E+03  0.7546771E-02  0.1051732E+00
         21   -1    0    0  504  503  0.00000000000E+00  0.00000000000E+00  0.77652424868E+03  0.77652424868E+03  0.00000000000E+00 0. -1.
         21   -1    0    0  503  504 -0.00000000000E+00 -0.00000000000E+00 -0.45964419714E+02  0.45964419714E+02  0.00000000000E+00 0. -1.
         25    2    1    2    0    0 -0.37938252821E+01 -0.14160653967E+03  0.36414995042E+03  0.41023981340E+03  0.12499885169E+03 0.  0.
         25    2    1    2    0    0  0.37938252821E+01  0.14160653967E+03  0.36640987855E+03  0.41224885499E+03  0.12500445655E+03 0.  0.
          5    1    3    3  501    0  0.19094815241E+02 -0.15521012403E+03  0.33879219596E+03  0.37317159139E+03  0.47000000000E+01 0. -1.
         -5    1    3    3    0  501 -0.22888640523E+02  0.13603584361E+02  0.25357754450E+02  0.37068222013E+02  0.47000000000E+01 0. -1.
          5    1    4    4  502    0  0.21495679969E+02 -0.12357850309E+02  0.18308917122E+02  0.31178312458E+02  0.47000000000E+01 0.  1.
         -5    1    4    4    0  502 -0.17701854687E+02  0.15396438998E+03  0.34810096143E+03  0.38107054253E+03  0.47000000000E+01 0.  1.
<mgrwt>
<rscale>  0 0.37784910E+03</rscale>
<asrwt>0</asrwt>
<pdfrwt beam="1">  1       21 0.11946526E+00 0.37784910E+03</pdfrwt>
<pdfrwt beam="2">  1       21 0.70714498E-02 0.37784910E+03</pdfrwt>
<totfact> 0.74319411E+04</totfact>
</mgrwt>
</event>
<event>
 8    1  0.9123825E-006  0.2754176E+03  0.7546771E-02  0.1098218E+00
         21   -1    0    0  504  503  0.00000000000E+00  0.00000000000E+00  0.34358228795E+02  0.34358228795E+02  0.00000000000E+00 0. -1.
         21   -1    0    0  503  504 -0.00000000000E+00 -0.00000000000E+00 -0.55194095042E+03  0.55194095042E+03  0.00000000000E+00 0. -1.
         25    2    1    2    0    0  0.14770061921E+02  0.36705332351E+02 -0.16920280266E+03  0.21406242740E+03  0.12501079251E+03 0.  0.
         25    2    1    2    0    0 -0.14770061921E+02 -0.36705332351E+02 -0.34837991897E+03  0.37223675182E+03  0.12500478116E+03 0.  0.
          5    1    3    3  501    0 -0.45075422332E+02 -0.48077474096E+01 -0.23903616163E+02  0.51462423177E+02  0.47000000000E+01 0. -1.
         -5    1    3    3    0  501  0.59845484253E+02  0.41513079761E+02 -0.14529918649E+03  0.16260000422E+03  0.47000000000E+01 0. -1.
          5    1    4    4  502    0  0.10874596326E+01  0.39680179794E+02 -0.51222676062E+02  0.64973469816E+02  0.47000000000E+01 0. -1.
         -5    1    4    4    0  502 -0.15857521554E+02 -0.76385512146E+02 -0.29715724291E+03  0.30726328200E+03  0.47000000000E+01 0. -1.
<mgrwt>
<rscale>  0 0.27541760E+03</rscale>
<asrwt>0</asrwt>
<pdfrwt beam="1">  1       21 0.52858814E-02 0.27541760E+03</pdfrwt>
<pdfrwt beam="2">  1       21 0.84913991E-01 0.27541760E+03</pdfrwt>
<totfact> 0.28752947E+05</totfact>
</mgrwt>
</event>
<event>
 8    1  0.9123825E-006  0.3060907E+03  0.7546771E-02  0.1082235E+00
         21   -1    0    0  504  503  0.00000000000E+00  0.00000000000E+00  0.79828145127E+02  0.79828145127E+02  0.00000000000E+00 0. -1.
         21   -1    0    0  503  504 -0.00000000000E+00 -0.00000000000E+00 -0.29341637837E+03  0.29341637837E+03  0.00000000000E+00 0. -1.
         25    2    1    2    0    0  0.40744064643E+02  0.63131894260E+02 -0.50231072029E+02  0.15425467391E+03  0.12500251577E+03 0.  0.
         25    2    1    2    0    0 -0.40744064643E+02 -0.63131894260E+02 -0.16335716121E+03  0.21898984959E+03  0.12500110890E+03 0.  0.
          5    1    3    3  501    0  0.71797891422E+02  0.45462170038E+02  0.83052040884E+01  0.85514984255E+02  0.47000000000E+01 0. -1.
         -5    1    3    3    0  501 -0.31053826780E+02  0.17669724222E+02 -0.58536276117E+02  0.68739689652E+02  0.47000000000E+01 0. -1.
          5    1    4    4  502    0 -0.88091317642E+01 -0.38887964628E+02  0.96851803039E+01  0.41300935980E+02  0.47000000000E+01 0. -1.
         -5    1    4    4    0  502 -0.31934932878E+02 -0.24243929632E+02 -0.17304234152E+03  0.17768891361E+03  0.47000000000E+01 0. -1.
<mgrwt>
<rscale>  0 0.30609074E+03</rscale>
<asrwt>0</asrwt>
<pdfrwt beam="1">  1       21 0.12281253E-01 0.30609074E+03</pdfrwt>
<pdfrwt beam="2">  1       21 0.45140980E-01 0.30609074E+03</pdfrwt>
<totfact> 0.25779195E+05</totfact>
</mgrwt>
</event>
<event>
 8    1  0.9123825E-006  0.3121249E+03  0.7546771E-02  0.1079332E+00
         21   -1    0    0  504  503  0.00000000000E+00  0.00000000000E+00  0.81948256297E+03  0.81948256297E+03  0.00000000000E+00 0. -1.
         21   -1    0    0  503  504 -0.00000000000E+00 -0.00000000000E+00 -0.29720561452E+02  0.29720561452E+02  0.00000000000E+00 0. -1.
         25    2    1    2    0    0 -0.64099982645E+02 -0.66978918946E+02  0.42653120422E+03  0.45403592074E+03  0.12499906316E+03 0.  0.
         25    2    1    2    0    0  0.64099982645E+02  0.66978918946E+02  0.36323079730E+03  0.39516720368E+03  0.12500209359E+03 0.  0.
          5    1    3    3  501    0 -0.57271258599E+02 -0.10263226630E+03  0.29737045800E+03  0.31978845888E+03  0.47000000000E+01 0. -1.
         -5    1    3    3    0  501 -0.68287240454E+01  0.35653347353E+02  0.12916074622E+03  0.13424746185E+03  0.47000000000E+01 0. -1.
          5    1    4    4  502    0  0.19257976407E+02  0.19181007102E+02  0.16161018868E+01  0.27631186621E+02  0.47000000000E+01 0.  1.
         -5    1    4    4    0  502  0.44842006237E+02  0.47797911844E+02  0.36161469541E+03  0.36753601706E+03  0.47000000000E+01 0.  1.
<mgrwt>
<rscale>  0 0.31212486E+03</rscale>
<asrwt>0</asrwt>
<pdfrwt beam="1">  1       21 0.12607422E+00 0.31212486E+03</pdfrwt>
<pdfrwt beam="2">  1       21 0.45723947E-02 0.31212486E+03</pdfrwt>
<totfact> 0.14018884E+05</totfact>
</mgrwt>
</event>
<event>
 8    1  0.9123825E-006  0.2857065E+03  0.7546771E-02  0.1092612E+00
         21   -1    0    0  504  503  0.00000000000E+00  0.00000000000E+00  0.58247095822E+02  0.58247095822E+02  0.00000000000E+00 0. -1.
         21   -1    0    0  503  504 -0.00000000000E+00 -0.00000000000E+00 -0.35035303485E+03  0.35035303485E+03  0.00000000000E+00 0. -1.
         25    2    1    2    0    0 -0.62715877351E+02  0.27610648348E+02 -0.13267066360E+03  0.19473470831E+03  0.12499788985E+03 0.  0.
         25    2    1    2    0    0  0.62715877351E+02 -0.27610648348E+02 -0.15943527543E+03  0.21386542236E+03  0.12499273042E+03 0.  0.
          5    1    3    3  501    0  0.20362067638E+02 -0.13685852690E+02 -0.88340922936E+02  0.91804820285E+02  0.47000000000E+01 0.  1.
         -5    1    3    3    0  501 -0.83077944989E+02  0.41296501038E+02 -0.44329740663E+02  0.10292988802E+03  0.47000000000E+01 0.  1.
          5    1    4    4  502    0  0.76039224199E+02  0.18799871257E+02 -0.14213974556E+03  0.16236131326E+03  0.47000000000E+01 0.  1.
         -5    1    4    4    0  502 -0.13323346848E+02 -0.46410519605E+02 -0.17295529874E+02  0.51504109106E+02  0.47000000000E+01 0.  1.
<mgrwt>
<rscale>  0 0.28570647E+03</rscale>
<asrwt>0</asrwt>
<pdfrwt beam="1">  1       21 0.89610917E-02 0.28570647E+03</pdfrwt>
<pdfrwt beam="2">  1       21 0.53900467E-01 0.28570647E+03</pdfrwt>
<totfact> 0.31336779E+05</totfact>
</mgrwt>
</event>
<event>
 8    1  0.9123825E-006  0.1052311E+04  0.7546771E-02  0.9252961E-01
         21   -1    0    0  504  503  0.00000000000E+00  0.00000000000E+00  0.43596896376E+03  0.43596896376E+03  0.00000000000E+00 0.  1.
         21   -1    0    0  503  504 -0.00000000000E+00 -0.00000000000E+00 -0.63499855884E+03  0.63499855884E+03  0.00000000000E+00 0.  1.
         25    2    1    2    0    0  0.38351974088E+03 -0.31477818230E+03 -0.22429974681E+03  0.55868237526E+03  0.12507167671E+03 0.  0.
         25    2    1    2    0    0 -0.38351974088E+03  0.31477818230E+03  0.25270151724E+02  0.51228514733E+03  0.12499918362E+03 0.  0.
          5    1    3    3  501    0  0.73425985120E+02 -0.10025740446E+03 -0.95429948026E+01  0.12472402010E+03  0.47000000000E+01 0.  1.
         -5    1    3    3    0  501  0.31009375576E+03 -0.21452077785E+03 -0.21475675200E+03  0.43395835517E+03  0.47000000000E+01 0.  1.
          5    1    4    4  502    0 -0.29966804984E+02  0.83762572191E+02  0.10020957925E+02  0.89647573858E+02  0.47000000000E+01 0.  1.
         -5    1    4    4    0  502 -0.35355293590E+03  0.23101561011E+03  0.15249193799E+02  0.42263757347E+03  0.47000000000E+01 0.  1.
<mgrwt>
<rscale>  0 0.10523111E+04</rscale>
<asrwt>0</asrwt>
<pdfrwt beam="1">  1       21 0.67072148E-01 0.10523111E+04</pdfrwt>
<pdfrwt beam="2">  1       21 0.97692086E-01 0.10523111E+04</pdfrwt>
<totfact> 0.13093046E+03</totfact>
</mgrwt>
</event>
<event>
 8    1  0.9123825E-006  0.3257705E+03  0.7546771E-02  0.1073024E+00
         21   -1    0    0  504  503  0.00000000000E+00  0.00000000000E+00  0.12857180778E+03  0.12857180778E+03  0.00000000000E+00 0.  1.
         21   -1    0    0  503  504 -0.00000000000E+00 -0.00000000000E+00 -0.20635631106E+03  0.20635631106E+03  0.00000000000E+00 0.  1.
         25    2    1    2    0    0  0.89533137799E+02 -0.17760410186E+01  0.16347942569E+02  0.15463372001E+03  0.12499998021E+03 0.  0.
         25    2    1    2    0    0 -0.89533137799E+02  0.17760410186E+01 -0.94132445848E+02  0.18029439883E+03  0.12500326316E+03 0.  0.
          5    1    3    3  501    0  0.86791018123E+02 -0.51819209631E+02 -0.15603951478E+01  0.10120492155E+03  0.47000000000E+01 0.  1.
         -5    1    3    3    0  501  0.27421196757E+01  0.50043168612E+02  0.17908337717E+02  0.53428798460E+02  0.47000000000E+01 0.  1.
          5    1    4    4  502    0 -0.82774521189E+02 -0.20163099712E+02 -0.21261072934E+01  0.85350936024E+02  0.47000000000E+01 0.  1.
         -5    1    4    4    0  502 -0.67586166100E+01  0.21939140730E+02 -0.92006338555E+02  0.94943462802E+02  0.47000000000E+01 0.  1.
<mgrwt>
<rscale>  0 0.32577050E+03</rscale>
<asrwt>0</asrwt>
<pdfrwt beam="1">  1       21 0.19780278E-01 0.32577050E+03</pdfrwt>
<pdfrwt beam="2">  1       21 0.31747125E-01 0.32577050E+03</pdfrwt>
<totfact> 0.21743783E+05</totfact>
</mgrwt>
</event>
<event>
 8    1  0.9123825E-006  0.2627415E+03  0.7546771E-02  0.1105507E+00
         21   -1    0    0  504  503  0.00000000000E+00  0.00000000000E+00  0.71655104512E+03  0.71655104512E+03  0.00000000000E+00 0. -1.
         21   -1    0    0  503  504 -0.00000000000E+00 -0.00000000000E+00 -0.24085206592E+02  0.24085206592E+02  0.00000000000E+00 0. -1.
         25    2    1    2    0    0  0.26031155227E+02  0.12670143135E+02  0.42570232364E+03  0.44461941329E+03  0.12500320295E+03 0.  0.
         25    2    1    2    0    0 -0.26031155227E+02 -0.12670143135E+02  0.26676351489E+03  0.29601683843E+03  0.12500016875E+03 0.  0.
          5    1    3    3  501    0 -0.22146096230E+02 -0.45870431250E+02  0.20181085472E+03  0.20819283639E+03  0.47000000000E+01 0. -1.
         -5    1    3    3    0  501  0.48177251457E+02  0.58540574386E+02  0.22389146892E+03  0.23642657689E+03  0.47000000000E+01 0. -1.
          5    1    4    4  502    0  0.26480430314E+01 -0.29779753148E+02  0.25983074253E+03  0.26158736704E+03  0.47000000000E+01 0.  1.
         -5    1    4    4    0  502 -0.28679198259E+02  0.17109610013E+02  0.69327723572E+01  0.34429471389E+02  0.47000000000E+01 0.  1.
<mgrwt>
<rscale>  0 0.26274155E+03</rscale>
<asrwt>0</asrwt>
<pdfrwt beam="1">  1       21 0.11023861E+00 0.26274155E+03</pdfrwt>
<pdfrwt beam="2">  1       21 0.37054170E-02 0.26274155E+03</pdfrwt>
<totfact> 0.28341806E+05</totfact>
</mgrwt>
</event>
<event>
 8    1  0.9123825E-006  0.2675292E+03  0.7546771E-02  0.1102702E+00
         21   -1    0    0  504  503  0.00000000000E+00  0.00000000000E+00  0.38497304657E+02  0.38497304657E+02  0.00000000000E+00 0.  1.
         21   -1    0    0  503  504 -0.00000000000E+00 -0.00000000000E+00 -0.46478499531E+03  0.46478499531E+03  0.00000000000E+00 0.  1.
         25    2    1    2    0    0  0.15161556105E+02 -0.42382095414E+02 -0.18395649217E+03  0.22691843247E+03  0.12500347671E+03 0.  0.
         25    2    1    2    0    0 -0.15161556105E+02  0.42382095414E+02 -0.24233119848E+03  0.27636386750E+03  0.12500585068E+03 0.  0.
          5    1    3    3  501    0  0.10109319353E+02  0.14151444712E+01 -0.18219991280E+03  0.18254615634E+03  0.47000000000E+01 0. -1.
         -5    1    3    3    0  501  0.50522367519E+01 -0.43797239886E+02 -0.17565793718E+01  0.44372276129E+02  0.47000000000E+01 0. -1.
          5    1    4    4  502    0 -0.49570049972E+00 -0.42574281235E+02 -0.52049612786E+02  0.67409697617E+02  0.47000000000E+01 0.  1.
         -5    1    4    4    0  502 -0.14665855605E+02  0.84956376649E+02 -0.19028158570E+03  0.20895416988E+03  0.47000000000E+01 0.  1.
<mgrwt>
<rscale>  0 0.26752921E+03</rscale>
<asrwt>0</asrwt>
<pdfrwt beam="1">  1       21 0.59226625E-02 0.26752921E+03</pdfrwt>
<pdfrwt beam="2">  1       21 0.71505380E-01 0.26752921E+03</pdfrwt>
<totfact> 0.34995327E+05</totfact>
</mgrwt>
</event>
<event>
 8    1  0.9123825E-006  0.2601908E+03  0.7546771E-02  0.1107029E+00
         21   -1    0    0  504  503  0.00000000000E+00  0.00000000000E+00  0.30163548978E+03  0.30163548978E+03  0.00000000000E+00 0. -1.
         21   -1    0    0  503  504 -0.00000000000E+00 -0.00000000000E+00 -0.56110148479E+02  0.56110148479E+02  0.00000000000E+00 0. -1.
         25    2    1    2    0    0 -0.92423978654E+01  0.32222163958E+02  0.10456487740E+03  0.16638693624E+03  0.12500843650E+03 0.  0.
         25    2    1    2    0    0  0.92423978654E+01 -0.32222163958E+02  0.14096046390E+03  0.19135870202E+03  0.12499844274E+03 0.  0.
          5    1    3    3  501    0 -0.12850766539E+02  0.41099792152E+02 -0.15380790159E+02  0.45967312533E+02  0.47000000000E+01 0.  1.
         -5    1    3    3    0  501  0.36083686733E+01 -0.88776281941E+01  0.11994566756E+03  0.12041962370E+03  0.47000000000E+01 0.  1.
          5    1    4    4  502    0  0.41578226854E+02  0.18797351975E+02  0.11793986211E+03  0.12654639648E+03  0.47000000000E+01 0. -1.
         -5    1    4    4    0  502 -0.32335828989E+02 -0.51019515933E+02  0.23020601798E+02  0.64812305541E+02  0.47000000000E+01 0. -1.
<mgrwt>
<rscale>  0 0.26019079E+03</rscale>
<asrwt>0</asrwt>
<pdfrwt beam="1">  1       21 0.46405459E-01 0.26019079E+03</pdfrwt>
<pdfrwt beam="2">  1       21 0.86323307E-02 0.26019079E+03</pdfrwt>
<totfact> 0.46091878E+05</totfact>
</mgrwt>
</event>
<event>
 8    1  0.9123825E-006  0.3128293E+03  0.7546771E-02  0.1078998E+00
         21   -1    0    0  504  503  0.00000000000E+00  0.00000000000E+00  0.12385846514E+03  0.12385846514E+03  0.00000000000E+00 0.  1.
         21   -1    0    0  503  504 -0.00000000000E+00 -0.00000000000E+00 -0.19752821669E+03  0.19752821669E+03  0.00000000000E+00 0.  1.
         25    2    1    2    0    0 -0.27254098427E+02 -0.89068320087E+02 -0.49882663359E+02  0.16367589205E+03  0.12500226402E+03 0.  0.
         25    2    1    2    0    0  0.27254098427E+02  0.89068320087E+02 -0.23787088194E+02  0.15771078978E+03  0.12502366225E+03 0.  0.
          5    1    3    3  501    0 -0.69331252069E+02 -0.16854954286E+02 -0.15416969244E+02  0.73148376183E+02  0.47000000000E+01 0.  1.
         -5    1    3    3    0  501  0.42077153642E+02 -0.72213365800E+02 -0.34465694115E+02  0.90527515870E+02  0.47000000000E+01 0.  1.
          5    1    4    4  502    0  0.35400335553E+02  0.52116055981E+02 -0.72295244270E+02  0.96010204626E+02  0.47000000000E+01 0. -1.
         -5    1    4    4    0  502 -0.81462371258E+01  0.36952264106E+02  0.48508156076E+02  0.61700585149E+02  0.47000000000E+01 0. -1.
<mgrwt>
<rscale>  0 0.31282929E+03</rscale>
<asrwt>0</asrwt>
<pdfrwt beam="1">  1       21 0.19055149E-01 0.31282929E+03</pdfrwt>
<pdfrwt beam="2">  1       21 0.30388956E-01 0.31282929E+03</pdfrwt>
<totfact> 0.25504439E+05</totfact>
</mgrwt>
</event>
<event>
 8    1  0.9123825E-006  0.3725868E+03  0.7546771E-02  0.1053708E+00
         21   -1    0    0  504  503  0.00000000000E+00  0.00000000000E+00  0.59700949464E+03  0.59700949464E+03  0.00000000000E+00 0.  1.
         21   -1    0    0  503  504 -0.00000000000E+00 -0.00000000000E+00 -0.58131804740E+02  0.58131804740E+02  0.00000000000E+00 0.  1.
         25    2    1    2    0    0 -0.14753679034E+02 -0.21457178194E+02  0.50796951146E+03  0.52377106466E+03  0.12500008823E+03 0.  0.
         25    2    1    2    0    0  0.14753679034E+02  0.21457178194E+02  0.30908178445E+02  0.13137023473E+03  0.12499896614E+03 0.  0.
          5    1    3    3  501    0  0.84317307820E+01  0.46885127409E+02  0.12143614809E+03  0.13053021611E+03  0.47000000000E+01 0. -1.
         -5    1    3    3    0  501 -0.23185409816E+02 -0.68342305603E+02  0.38653336337E+03  0.39324084854E+03  0.47000000000E+01 0. -1.
          5    1    4    4  502    0  0.83849602262E+00  0.54932948500E+02 -0.28152815397E+02  0.61911250361E+02  0.47000000000E+01 0. -1.
         -5    1    4    4    0  502  0.13915183011E+02 -0.33475770305E+02  0.59060993842E+02  0.69458984367E+02  0.47000000000E+01 0. -1.
<mgrwt>
<rscale>  0 0.37258685E+03</rscale>
<asrwt>0</asrwt>
<pdfrwt beam="1">  1       21 0.91847610E-01 0.37258685E+03</pdfrwt>
<pdfrwt beam="2">  1       21 0.89433550E-02 0.37258685E+03</pdfrwt>
<totfact> 0.93424264E+04</totfact>
</mgrwt>
</event>
<event>
 8    1  0.9123825E-006  0.3124886E+03  0.7546771E-02  0.1079159E+00
         21   -1    0    0  504  503  0.00000000000E+00  0.00000000000E+00  0.54751327599E+02  0.54751327599E+02  0.00000000000E+00 0.  1.
         21   -1    0    0  503  504 -0.00000000000E+00 -0.00000000000E+00 -0.44587547071E+03  0.44587547071E+03  0.00000000000E+00 0.  1.
         25    2    1    2    0    0 -0.79274669044E+02 -0.28302183916E+02 -0.12947594542E+03  0.19868346177E+03  0.12500244307E+03 0.  0.
         25    2    1    2    0    0  0.79274669044E+02  0.28302183916E+02 -0.26164819770E+03  0.30194333654E+03  0.12499804941E+03 0.  0.
          5    1    3    3  501    0 -0.41809831300E+02  0.26966189655E+02 -0.12137486247E+03  0.13125998864E+03  0.47000000000E+01 0.  1.
         -5    1    3    3    0  501 -0.37464837744E+02 -0.55268373572E+02 -0.81010829477E+01  0.67423473134E+02  0.47000000000E+01 0.  1.
          5    1    4    4  502    0 -0.49737016366E+01 -0.20205115911E+02 -0.15923984304E+03  0.16066238523E+03  0.47000000000E+01 0. -1.
         -5    1    4    4    0  502  0.84248370680E+02  0.48507299828E+02 -0.10240835465E+03  0.14128095131E+03  0.47000000000E+01 0. -1.
<mgrwt>
<rscale>  0 0.31248855E+03</rscale>
<asrwt>0</asrwt>
<pdfrwt beam="1">  1       21 0.84232812E-02 0.31248855E+03</pdfrwt>
<pdfrwt beam="2">  1       21 0.68596226E-01 0.31248855E+03</pdfrwt>
<totfact> 0.20569363E+05</totfact>
</mgrwt>
</event>
<event>
 8    1  0.9123825E-006  0.2696043E+03  0.7546771E-02  0.1101506E+00
         21   -1    0    0  504  503  0.00000000000E+00  0.00000000000E+00  0.16694833471E+03  0.16694833471E+03  0.00000000000E+00 0. -1.
         21   -1    0    0  503  504 -0.00000000000E+00 -0.00000000000E+00 -0.10884576061E+03  0.10884576061E+03  0.00000000000E+00 0. -1.
         25    2    1    2    0    0  0.86690252826E+01 -0.37963255028E+02  0.61854289519E+02  0.14480417493E+03  0.12500374079E+03 0.  0.
         25    2    1    2    0    0 -0.86690252826E+01  0.37963255028E+02 -0.37517154282E+01  0.13098992039E+03  0.12501169203E+03 0.  0.
          5    1    3    3  501    0 -0.51475872648E+02  0.65895259976E+01  0.85756513328E+01  0.52809271094E+02  0.47000000000E+01 0.  1.
         -5    1    3    3    0  501  0.60144897931E+02 -0.44552781025E+02  0.53278638187E+02  0.91994903833E+02  0.47000000000E+01 0.  1.
          5    1    4    4  502    0  0.59434731021E+01  0.82738997655E+02  0.32086357261E+01  0.83147170419E+02  0.47000000000E+01 0.  1.
         -5    1    4    4    0  502 -0.14612498385E+02 -0.44775742628E+02 -0.69603511543E+01  0.47842749974E+02  0.47000000000E+01 0.  1.
<mgrwt>
<rscale>  0 0.26960429E+03</rscale>
<asrwt>0</asrwt>
<pdfrwt beam="1">  1       21 0.25684359E-01 0.26960429E+03</pdfrwt>
<pdfrwt beam="2">  1       21 0.16745502E-01 0.26960429E+03</pdfrwt>
<totfact> 0.45435420E+05</totfact>
</mgrwt>
</event>
<event>
 8    1  0.9123825E-006  0.3062794E+03  0.7546771E-02  0.1082143E+00
         21   -1    0    0  504  503  0.00000000000E+00  0.00000000000E+00  0.10483095722E+03  0.10483095722E+03  0.00000000000E+00 0.  1.
         21   -1    0    0  503  504 -0.00000000000E+00 -0.00000000000E+00 -0.22371028213E+03  0.22371028213E+03  0.00000000000E+00 0.  1.
         25    2    1    2    0    0  0.75224593143E+02 -0.30038948588E+02 -0.21289491453E+02  0.15043328336E+03  0.12496340444E+03 0.  0.
         25    2    1    2    0    0 -0.75224593143E+02  0.30038948588E+02 -0.97589833456E+02  0.17810795598E+03  0.12505035204E+03 0.  0.
          5    1    3    3  501    0 -0.27361641676E+02  0.13161241786E+02 -0.24004892813E+02  0.38989775576E+02  0.47000000000E+01 0. -1.
         -5    1    3    3    0  501  0.10258623482E+03 -0.43200190374E+02  0.27154013594E+01  0.11144350778E+03  0.47000000000E+01 0. -1.
          5    1    4    4  502    0 -0.43807417987E+02  0.77217249028E+02 -0.77022249690E+02  0.11762699675E+03  0.47000000000E+01 0.  1.
         -5    1    4    4    0  502 -0.31417175156E+02 -0.47178300440E+02 -0.20567583766E+02  0.60480959228E+02  0.47000000000E+01 0.  1.
<mgrwt>
<rscale>  0 0.30627937E+03</rscale>
<asrwt>0</asrwt>
<pdfrwt beam="1">  1       21 0.16127840E-01 0.30627937E+03</pdfrwt>
<pdfrwt beam="2">  1       21 0.34416966E-01 0.30627937E+03</pdfrwt>
<totfact> 0.27213642E+05</totfact>
</mgrwt>
</event>
<event>
 8    1  0.9123825E-006  0.2527196E+03  0.7546771E-02  0.1111598E+00
         21   -1    0    0  504  503  0.00000000000E+00  0.00000000000E+00  0.71858571372E+02  0.71858571372E+02  0.00000000000E+00 0.  1.
         21   -1    0    0  503  504 -0.00000000000E+00 -0.00000000000E+00 -0.22219759001E+03  0.22219759001E+03  0.00000000000E+00 0.  1.
         25    2    1    2    0    0  0.44161756877E+00  0.50561791906E+01 -0.54296147312E+02  0.13634474096E+03  0.12496422208E+03 0.  0.
         25    2    1    2    0    0 -0.44161756877E+00 -0.50561791906E+01 -0.96042871326E+02  0.15771142042E+03  0.12499159582E+03 0.  0.
          5    1    3    3  501    0  0.51467889905E+02 -0.32916065070E+02 -0.27661624359E+02  0.67228464902E+02  0.47000000000E+01 0. -1.
         -5    1    3    3    0  501 -0.51026272336E+02  0.37972244261E+02 -0.26634522953E+02  0.69116276054E+02  0.47000000000E+01 0. -1.
          5    1    4    4  502    0  0.37472454641E+02  0.40823572112E+02 -0.16027683351E+02  0.57876813410E+02  0.47000000000E+01 0. -1.
         -5    1    4    4    0  502 -0.37914072210E+02 -0.45879751303E+02 -0.80015187975E+02  0.99834607015E+02  0.47000000000E+01 0. -1.
<mgrwt>
<rscale>  0 0.25271962E+03</rscale>
<asrwt>0</asrwt>
<pdfrwt beam="1">  1       21 0.11055165E-01 0.25271962E+03</pdfrwt>
<pdfrwt beam="2">  1       21 0.34184245E-01 0.25271962E+03</pdfrwt>
<totfact> 0.55387328E+05</totfact>
</mgrwt>
</event>
<event>
 8    1  0.9123825E-006  0.3384317E+03  0.7546771E-02  0.1067466E+00
         21   -1    0    0  504  503  0.00000000000E+00  0.00000000000E+00  0.17665566392E+04  0.17665566392E+04  0.00000000000E+00 0. -1.
         21   -1    0    0  503  504 -0.00000000000E+00 -0.00000000000E+00 -0.16208933209E+02  0.16208933209E+02  0.00000000000E+00 0. -1.
         25    2    1    2    0    0  0.53757991393E+02 -0.34916123670E+02  0.13721067853E+04  0.13792798467E+04  0.12500723141E+03 0.  0.
         25    2    1    2    0    0 -0.53757991393E+02  0.34916123670E+02  0.37824092073E+03  0.40348572575E+03  0.12500191774E+03 0.  0.
          5    1    3    3  501    0  0.81451172260E+02  0.15224222930E+02  0.80005754082E+03  0.80435081217E+03  0.47000000000E+01 0.  1.
         -5    1    3    3    0  501 -0.27693180867E+02 -0.50140346601E+02  0.57204924448E+03  0.57492903452E+03  0.47000000000E+01 0.  1.
          5    1    4    4  502    0 -0.49890424483E+02 -0.38733253743E+02  0.13224655518E+03  0.14663069514E+03  0.47000000000E+01 0.  1.
         -5    1    4    4    0  502 -0.38675669098E+01  0.73649377414E+02  0.24599436555E+03  0.25685503061E+03  0.47000000000E+01 0.  1.
<mgrwt>
<rscale>  0 0.33843167E+03</rscale>
<asrwt>0</asrwt>
<pdfrwt beam="1">  1       21 0.27177779E+00 0.33843167E+03</pdfrwt>
<pdfrwt beam="2">  1       21 0.24936834E-02 0.33843167E+03</pdfrwt>
<totfact> 0.38781257E+04</totfact>
</mgrwt>
</event>
<event>
 8    1  0.9123825E-006  0.6027804E+03  0.7546771E-02  0.9899654E-01
         21   -1    0    0  504  503  0.00000000000E+00  0.00000000000E+00  0.16039188094E+03  0.16039188094E+03  0.00000000000E+00 0. -1.
         21   -1    0    0  503  504 -0.00000000000E+00 -0.00000000000E+00 -0.56633828440E+03  0.56633828440E+03  0.00000000000E+00 0. -1.
         25    2    1    2    0    0 -0.10010984999E+03 -0.40439016128E+02  0.10096400291E+03  0.19358787366E+03  0.12500095542E+03 0.  0.
         25    2    1    2    0    0  0.10010984999E+03  0.40439016128E+02 -0.50691040637E+03  0.53314229168E+03  0.12500098798E+03 0.  0.
          5    1    3    3  501    0 -0.11314239648E+03 -0.41431371092E+02  0.34119514385E+02  0.12531556828E+03  0.47000000000E+01 0. -1.
         -5    1    3    3    0  501  0.13032546487E+02  0.99235496385E+00  0.66844488527E+02  0.68272305386E+02  0.47000000000E+01 0. -1.
          5    1    4    4  502    0  0.11040464105E+03  0.45425968817E+02 -0.50688469547E+03  0.52077527582E+03  0.47000000000E+01 0.  1.
         -5    1    4    4    0  502 -0.10294791057E+02 -0.49869526895E+01 -0.25710901690E-01  0.12367015852E+02  0.47000000000E+01 0.  1.
<mgrwt>
<rscale>  0 0.60278043E+03</rscale>
<asrwt>0</asrwt>
<pdfrwt beam="1">  1       21 0.24675674E-01 0.60278043E+03</pdfrwt>
<pdfrwt beam="2">  1       21 0.87128968E-01 0.60278043E+03</pdfrwt>
<totfact> 0.15241426E+04</totfact>
</mgrwt>
</event>
<event>
 8    1  0.9123825E-006  0.3434284E+03  0.7546771E-02  0.1065345E+00
         21   -1    0    0  504  503  0.00000000000E+00  0.00000000000E+00  0.40874180669E+03  0.40874180669E+03  0.00000000000E+00 0. -1.
         21   -1    0    0  503  504 -0.00000000000E+00 -0.00000000000E+00 -0.72137891219E+02  0.72137891219E+02  0.00000000000E+00 0. -1.
         25    2    1    2    0    0 -0.53447407233E+02  0.55668528985E+02  0.43810215504E+02  0.15329966582E+03  0.12500336834E+03 0.  0.
         25    2    1    2    0    0  0.53447407233E+02 -0.55668528985E+02  0.29279369997E+03  0.32758003209E+03  0.12499966490E+03 0.  0.
          5    1    3    3  501    0 -0.71558000996E+02 -0.92067220133E+01 -0.92217545541E+00  0.72306650070E+02  0.47000000000E+01 0. -1.
         -5    1    3    3    0  501  0.18110593764E+02  0.64875250998E+02  0.44732390959E+02  0.80993015745E+02  0.47000000000E+01 0. -1.
          5    1    4    4  502    0  0.50861679001E+02 -0.54357331587E+02  0.30510316585E+03  0.31408862077E+03  0.47000000000E+01 0. -1.
         -5    1    4    4    0  502  0.25857282315E+01 -0.13111973978E+01 -0.12309465882E+02  0.13491411320E+02  0.47000000000E+01 0. -1.
<mgrwt>
<rscale>  0 0.34342843E+03</rscale>
<asrwt>0</asrwt>
<pdfrwt beam="1">  1       21 0.62883353E-01 0.34342843E+03</pdfrwt>
<pdfrwt beam="2">  1       21 0.11098137E-01 0.34342843E+03</pdfrwt>
<totfact> 0.15139517E+05</totfact>
</mgrwt>
</event>
<event>
 8    1  0.9123825E-006  0.2982188E+03  0.7546771E-02  0.1086134E+00
         21   -1    0    0  504  503  0.00000000000E+00  0.00000000000E+00  0.25531020456E+03  0.25531020456E+03  0.00000000000E+00 0.  1.
         21   -1    0    0  503  504 -0.00000000000E+00 -0.00000000000E+00 -0.87084716805E+02  0.87084716805E+02  0.00000000000E+00 0.  1.
         25    2    1    2    0    0  0.42072938422E+02  0.25960446006E+02  0.15820297266E+03  0.20759668743E+03  0.12499650863E+03 0.  0.
         25    2    1    2    0    0 -0.42072938422E+02 -0.25960446006E+02  0.10022515096E+02  0.13479823393E+03  0.12500414456E+03 0.  0.
          5    1    3    3  501    0  0.60847120839E+02 -0.13300044447E+02  0.15077331555E+03  0.16319909920E+03  0.47000000000E+01 0.  1.
         -5    1    3    3    0  501 -0.18774182417E+02  0.39260490452E+02  0.74296571051E+01  0.44397588231E+02  0.47000000000E+01 0.  1.
          5    1    4    4  502    0 -0.52379336647E+02 -0.69842718228E+02  0.16637948023E+02  0.88997255640E+02  0.47000000000E+01 0.  1.
         -5    1    4    4    0  502  0.10306398225E+02  0.43882272222E+02 -0.66154329271E+01  0.45800978293E+02  0.47000000000E+01 0.  1.
<mgrwt>
<rscale>  0 0.29821882E+03</rscale>
<asrwt>0</asrwt>
<pdfrwt beam="1">  1       21 0.39278493E-01 0.29821882E+03</pdfrwt>
<pdfrwt beam="2">  1       21 0.13397649E-01 0.29821882E+03</pdfrwt>
<totfact> 0.29348609E+05</totfact>
</mgrwt>
</event>
<event>
 8    1  0.9123825E-006  0.3159334E+03  0.7546771E-02  0.1077536E+00
         21   -1    0    0  504  503  0.00000000000E+00  0.00000000000E+00  0.34868328030E+03  0.34868328030E+03  0.00000000000E+00 0.  1.
         21   -1    0    0  503  504 -0.00000000000E+00 -0.00000000000E+00 -0.71564899813E+02  0.71564899813E+02  0.00000000000E+00 0.  1.
         25    2    1    2    0    0 -0.93524605985E+02 -0.15302600982E+02  0.16330267917E+03  0.22644207714E+03  0.12500891069E+03 0.  0.
         25    2    1    2    0    0  0.93524605985E+02  0.15302600982E+02  0.11381570132E+03  0.19380610298E+03  0.12500308062E+03 0.  0.
          5    1    3    3  501    0  0.22842946700E+02  0.71389609288E+01  0.74173776342E+02  0.78080753544E+02  0.47000000000E+01 0. -1.
         -5    1    3    3    0  501 -0.11636755268E+03 -0.22441561911E+02  0.89128902827E+02  0.14836132359E+03  0.47000000000E+01 0. -1.
          5    1    4    4  502    0  0.12342721397E+03  0.22690195220E+02  0.94210794950E+02  0.15699326735E+03  0.47000000000E+01 0.  1.
         -5    1    4    4    0  502 -0.29902607989E+02 -0.73875942384E+01  0.19604906370E+02  0.36812835628E+02  0.47000000000E+01 0.  1.
<mgrwt>
<rscale>  0 0.31593344E+03</rscale>
<asrwt>0</asrwt>
<pdfrwt beam="1">  1       21 0.53643580E-01 0.31593344E+03</pdfrwt>
<pdfrwt beam="2">  1       21 0.11009985E-01 0.31593344E+03</pdfrwt>
<totfact> 0.21790198E+05</totfact>
</mgrwt>
</event>
<event>
 8    1  0.9123825E-006  0.4906460E+03  0.7546771E-02  0.1016250E+00
         21   -1    0    0  504  503  0.00000000000E+00  0.00000000000E+00  0.86721171132E+02  0.86721171132E+02  0.00000000000E+00 0. -1.
         21   -1    0    0  503  504 -0.00000000000E+00 -0.00000000000E+00 -0.69398718990E+03  0.69398718990E+03  0.00000000000E+00 0. -1.
         25    2    1    2    0    0  0.44398158678E+02 -0.46001888971E+02  0.16422049319E+02  0.14141327834E+03  0.12506262953E+03 0.  0.
         25    2    1    2    0    0 -0.44398158678E+02  0.46001888971E+02 -0.62368806808E+03  0.63929508269E+03  0.12499610471E+03 0.  0.
          5    1    3    3  501    0  0.49635120331E+02 -0.84741347687E+02  0.24256582303E+02  0.10126802537E+03  0.47000000000E+01 0. -1.
         -5    1    3    3    0  501 -0.52369616529E+01  0.38739458716E+02 -0.78345329839E+01  0.40145252970E+02  0.47000000000E+01 0. -1.
          5    1    4    4  502    0 -0.13658935433E+02  0.32882802714E+02 -0.59171652031E+03  0.59280551249E+03  0.47000000000E+01 0.  1.
         -5    1    4    4    0  502 -0.30739223245E+02  0.13119086257E+02 -0.31971547778E+02  0.46489570199E+02  0.47000000000E+01 0.  1.
<mgrwt>
<rscale>  0 0.49064603E+03</rscale>
<asrwt>0</asrwt>
<pdfrwt beam="1">  1       21 0.13341718E-01 0.49064603E+03</pdfrwt>
<pdfrwt beam="2">  1       21 0.10676727E+00 0.49064603E+03</pdfrwt>
<totfact> 0.30611828E+04</totfact>
</mgrwt>
</event>
<event>
 8    1  0.9123825E-006  0.2808945E+03  0.7546771E-02  0.1095201E+00
         21   -1    0    0  504  503  0.00000000000E+00  0.00000000000E+00  0.33760378380E+03  0.33760378380E+03  0.00000000000E+00 0.  1.
         21   -1    0    0  503  504 -0.00000000000E+00 -0.00000000000E+00 -0.58427736904E+02  0.58427736904E+02  0.00000000000E+00 0.  1.
         25    2    1    2    0    0 -0.54672392377E+02  0.22413483089E+02  0.17439917816E+03  0.22255599987E+03  0.12499866007E+03 0.  0.
         25    2    1    2    0    0  0.54672392377E+02 -0.22413483089E+02  0.10477686873E+03  0.17347552084E+03  0.12499651753E+03 0.  0.
          5    1    3    3  501    0 -0.74068996897E+02  0.37790837468E+02  0.17855217436E+03  0.19702114776E+03  0.47000000000E+01 0.  1.
         -5    1    3    3    0  501  0.19396604520E+02 -0.15377354379E+02 -0.41529961949E+01  0.25534852104E+02  0.47000000000E+01 0.  1.
          5    1    4    4  502    0  0.37498270977E+02 -0.44404673410E+02 -0.64878332559E+01  0.58669219590E+02  0.47000000000E+01 0. -1.
         -5    1    4    4    0  502  0.17174121400E+02  0.21991190321E+02  0.11126470199E+03  0.11480630125E+03  0.47000000000E+01 0. -1.
<mgrwt>
<rscale>  0 0.28089446E+03</rscale>
<asrwt>0</asrwt>
<pdfrwt beam="1">  1       21 0.51939043E-01 0.28089446E+03</pdfrwt>
<pdfrwt beam="2">  1       21 0.89888828E-02 0.28089446E+03</pdfrwt>
<totfact> 0.33750287E+05</totfact>
</mgrwt>
</event>
<event>
 8    1  0.9123825E-006  0.2534308E+03  0.7546771E-02  0.1111156E+00
         21   -1    0    0  504  503  0.00000000000E+00  0.00000000000E+00  0.79565082769E+03  0.79565082769E+03  0.00000000000E+00 0.  1.
         21   -1    0    0  503  504 -0.00000000000E+00 -0.00000000000E+00 -0.20180700445E+02  0.20180700445E+02  0.00000000000E+00 0.  1.
         25    2    1    2    0    0 -0.20421906859E+02 -0.10267127619E+00  0.39924384135E+03  0.41885273564E+03  0.12499961791E+03 0.  0.
         25    2    1    2    0    0  0.20421906859E+02  0.10267127619E+00  0.37622628590E+03  0.39697879249E+03  0.12501551372E+03 0.  0.
          5    1    3    3  501    0 -0.46276706263E+02  0.42539884565E+02  0.12414413582E+03  0.13923013962E+03  0.47000000000E+01 0.  1.
         -5    1    3    3    0  501  0.25854799404E+02 -0.42642555841E+02  0.27509970553E+03  0.27962259602E+03  0.47000000000E+01 0.  1.
          5    1    4    4  502    0  0.62775072143E+02  0.15203169433E+02  0.11598689564E+03  0.13284162000E+03  0.47000000000E+01 0. -1.
         -5    1    4    4    0  502 -0.42353165284E+02 -0.15100498157E+02  0.26023939025E+03  0.26413717249E+03  0.47000000000E+01 0. -1.
<mgrwt>
<rscale>  0 0.25343079E+03</rscale>
<asrwt>0</asrwt>
<pdfrwt beam="1">  1       21 0.12240780E+00 0.25343079E+03</pdfrwt>
<pdfrwt beam="2">  1       21 0.31047238E-02 0.25343079E+03</pdfrwt>
<totfact> 0.29488818E+05</totfact>
</mgrwt>
</event>
<event>
 8    1  0.9123825E-006  0.2705815E+03  0.7546771E-02  0.1100947E+00
         21   -1    0    0  504  503  0.00000000000E+00  0.00000000000E+00  0.12930408585E+02  0.12930408585E+02  0.00000000000E+00 0.  1.
         21   -1    0    0  503  504 -0.00000000000E+00 -0.00000000000E+00 -0.14155459845E+04  0.14155459845E+04  0.00000000000E+00 0.  1.
         25    2    1    2    0    0  0.67884050504E+01  0.92359651412E+01 -0.43481646039E+03  0.45257148206E+03  0.12499682654E+03 0.  0.
         25    2    1    2    0    0 -0.67884050504E+01 -0.92359651412E+01 -0.96779911552E+03  0.97590491102E+03  0.12499552740E+03 0.  0.
          5    1    3    3  501    0 -0.75580793293E+01 -0.55097372799E+02 -0.25397136721E+03  0.26003151812E+03  0.47000000000E+01 0.  1.
         -5    1    3    3    0  501  0.14346484380E+02  0.64333337940E+02 -0.18084509318E+03  0.19253996394E+03  0.47000000000E+01 0.  1.
          5    1    4    4  502    0  0.24428697821E+02 -0.24604577012E+02 -0.78871183760E+02  0.86283834609E+02  0.47000000000E+01 0.  1.
         -5    1    4    4    0  502 -0.31217102872E+02  0.15368611871E+02 -0.88892793176E+03  0.88962107642E+03  0.47000000000E+01 0.  1.
<mgrwt>
<rscale>  0 0.27058151E+03</rscale>
<asrwt>0</asrwt>
<pdfrwt beam="1">  1       21 0.19892920E-02 0.27058151E+03</pdfrwt>
<pdfrwt beam="2">  1       21 0.21777649E+00 0.27058151E+03</pdfrwt>
<totfact> 0.12378173E+05</totfact>
</mgrwt>
</event>
<event>
 8    1  0.9123825E-006  0.3064580E+03  0.7546771E-02  0.1082056E+00
         21   -1    0    0  504  503  0.00000000000E+00  0.00000000000E+00  0.88063326092E+02  0.88063326092E+02  0.00000000000E+00 0. -1.
         21   -1    0    0  503  504 -0.00000000000E+00 -0.00000000000E+00 -0.26661636244E+03  0.26661636244E+03  0.00000000000E+00 0. -1.
         25    2    1    2    0    0 -0.69914304645E+02  0.11093585453E+02 -0.15097886076E+03  0.20840044262E+03  0.12500020182E+03 0.  0.
         25    2    1    2    0    0  0.69914304645E+02 -0.11093585453E+02 -0.27574175586E+02  0.14627924591E+03  0.12500481988E+03 0.  0.
          5    1    3    3  501    0 -0.94881567321E+02  0.36607264090E+02 -0.82520257305E+02  0.13105070189E+03  0.47000000000E+01 0. -1.
         -5    1    3    3    0  501  0.24967262676E+02 -0.25513678637E+02 -0.68458603454E+02  0.77349740724E+02  0.47000000000E+01 0. -1.
          5    1    4    4  502    0 -0.31322967511E+02  0.11661366453E+02  0.10968076169E+02  0.35489497828E+02  0.47000000000E+01 0. -1.
         -5    1    4    4    0  502  0.10123727216E+03 -0.22754951906E+02 -0.38542251756E+02  0.11078974808E+03  0.47000000000E+01 0. -1.
<mgrwt>
<rscale>  0 0.30645798E+03</rscale>
<asrwt>0</asrwt>
<pdfrwt beam="1">  1       21 0.13548204E-01 0.30645798E+03</pdfrwt>
<pdfrwt beam="2">  1       21 0.41017901E-01 0.30645798E+03</pdfrwt>
<totfact> 0.26276606E+05</totfact>
</mgrwt>
</event>
<event>
 8    1  0.9123825E-006  0.3487901E+03  0.7546771E-02  0.1063113E+00
         21   -1    0    0  504  503  0.00000000000E+00  0.00000000000E+00  0.38571264714E+03  0.38571264714E+03  0.00000000000E+00 0.  1.
         21   -1    0    0  503  504 -0.00000000000E+00 -0.00000000000E+00 -0.78850493154E+02  0.78850493154E+02  0.00000000000E+00 0.  1.
         25    2    1    2    0    0 -0.14801922266E+02  0.67304642268E+02  0.19975784672E+02  0.14413122438E+03  0.12500306434E+03 0.  0.
         25    2    1    2    0    0  0.14801922266E+02 -0.67304642268E+02  0.28688636931E+03  0.32043191591E+03  0.12499524817E+03 0.  0.
          5    1    3    3  501    0  0.46968544374E+02 -0.41917381193E+01  0.13664449643E+02  0.49319590561E+02  0.47000000000E+01 0.  1.
         -5    1    3    3    0  501 -0.61770466640E+02  0.71496380387E+02  0.63113350296E+01  0.94811633818E+02  0.47000000000E+01 0.  1.
          5    1    4    4  502    0  0.32929651096E+02 -0.76154603333E+02  0.90153603294E+02  0.12261177642E+03  0.47000000000E+01 0. -1.
         -5    1    4    4    0  502 -0.18127728829E+02  0.88499610655E+01  0.19673276602E+03  0.19782013949E+03  0.47000000000E+01 0. -1.
<mgrwt>
<rscale>  0 0.34879009E+03</rscale>
<asrwt>0</asrwt>
<pdfrwt beam="1">  1       21 0.59340406E-01 0.34879009E+03</pdfrwt>
<pdfrwt beam="2">  1       21 0.12130845E-01 0.34879009E+03</pdfrwt>
<totfact> 0.14614209E+05</totfact>
</mgrwt>
</event>
<event>
 8    1  0.9123825E-006  0.3279455E+03  0.7546771E-02  0.1072050E+00
         21   -1    0    0  504  503  0.00000000000E+00  0.00000000000E+00  0.17520794342E+03  0.17520794342E+03  0.00000000000E+00 0.  1.
         21   -1    0    0  503  504 -0.00000000000E+00 -0.00000000000E+00 -0.15345799316E+03  0.15345799316E+03  0.00000000000E+00 0.  1.
         25    2    1    2    0    0 -0.24908214258E+02  0.10082645833E+03 -0.10983006637E+02  0.16288768329E+03  0.12500150838E+03 0.  0.
         25    2    1    2    0    0  0.24908214258E+02 -0.10082645833E+03  0.32732956893E+02  0.16577825329E+03  0.12499835583E+03 0.  0.
          5    1    3    3  501    0 -0.74294279168E+02  0.59564959906E+02  0.78693372772E+01  0.95664208745E+02  0.47000000000E+01 0. -1.
         -5    1    3    3    0  501  0.49386064910E+02  0.41261498423E+02 -0.18852343914E+02  0.67223474549E+02  0.47000000000E+01 0. -1.
          5    1    4    4  502    0  0.43577316342E+02 -0.11899874097E+03  0.47555506356E+02  0.13543743587E+03  0.47000000000E+01 0.  1.
         -5    1    4    4    0  502 -0.18669102084E+02  0.18172282638E+02 -0.14822549462E+02  0.30340817416E+02  0.47000000000E+01 0.  1.
<mgrwt>
<rscale>  0 0.32794548E+03</rscale>
<asrwt>0</asrwt>
<pdfrwt beam="1">  1       21 0.26955068E-01 0.32794548E+03</pdfrwt>
<pdfrwt beam="2">  1       21 0.23608922E-01 0.32794548E+03</pdfrwt>
<totfact> 0.21409299E+05</totfact>
</mgrwt>
</event>
<event>
 8    1  0.9123825E-006  0.2553010E+03  0.7546771E-02  0.1110000E+00
         21   -1    0    0  504  503  0.00000000000E+00  0.00000000000E+00  0.18979324127E+02  0.18979324127E+02  0.00000000000E+00 0.  1.
         21   -1    0    0  503  504 -0.00000000000E+00 -0.00000000000E+00 -0.85854723971E+03  0.85854723971E+03  0.00000000000E+00 0.  1.
         25    2    1    2    0    0 -0.29710389429E+01 -0.10474132297E+02 -0.33907748937E+03  0.36154752716E+03  0.12499814431E+03 0.  0.
         25    2    1    2    0    0  0.29710389429E+01  0.10474132297E+02 -0.50049042621E+03  0.51597903668E+03  0.12500066015E+03 0.  0.
          5    1    3    3  501    0  0.44674876416E+02 -0.44237628448E+02 -0.13103267219E+03  0.14541135972E+03  0.47000000000E+01 0.  1.
         -5    1    3    3    0  501 -0.47645915359E+02  0.33763496150E+02 -0.20804481718E+03  0.21613616744E+03  0.47000000000E+01 0.  1.
          5    1    4    4  502    0 -0.27776198807E+02 -0.42787191746E+02 -0.11934407963E+03  0.12987440217E+03  0.47000000000E+01 0. -1.
         -5    1    4    4    0  502  0.30747237750E+02  0.53261324043E+02 -0.38114634659E+03  0.38610463450E+03  0.47000000000E+01 0. -1.
<mgrwt>
<rscale>  0 0.25530097E+03</rscale>
<asrwt>0</asrwt>
<pdfrwt beam="1">  1       21 0.29198959E-02 0.25530097E+03</pdfrwt>
<pdfrwt beam="2">  1       21 0.13208420E+00 0.25530097E+03</pdfrwt>
<totfact> 0.26917987E+05</totfact>
</mgrwt>
</event>
<event>
 8    1  0.9123825E-006  0.2632926E+03  0.7546771E-02  0.1105181E+00
         21   -1    0    0  504  503  0.00000000000E+00  0.00000000000E+00  0.15687777939E+03  0.15687777939E+03  0.00000000000E+00 0. -1.
         21   -1    0    0  503  504 -0.00000000000E+00 -0.00000000000E+00 -0.11047291579E+03  0.11047291579E+03  0.00000000000E+00 0. -1.
         25    2    1    2    0    0  0.14682923658E+02  0.36342791372E+02  0.36415413333E+02  0.13597002175E+03  0.12500151101E+03 0.  0.
         25    2    1    2    0    0 -0.14682923658E+02 -0.36342791372E+02  0.99894502676E+01  0.13138067344E+03  0.12499882202E+03 0.  0.
          5    1    3    3  501    0  0.61405433493E+02  0.91084940566E+01 -0.11801651176E+02  0.63363719090E+02  0.47000000000E+01 0. -1.
         -5    1    3    3    0  501 -0.46722509835E+02  0.27234297316E+02  0.48217064509E+02  0.72606302656E+02  0.47000000000E+01 0. -1.
          5    1    4    4  502    0 -0.52183154616E+02 -0.47066518492E+02  0.40853394198E+02  0.81421303147E+02  0.47000000000E+01 0.  1.
         -5    1    4    4    0  502  0.37500230958E+02  0.10723727119E+02 -0.30863943931E+02  0.49959370294E+02  0.47000000000E+01 0.  1.
<mgrwt>
<rscale>  0 0.26329258E+03</rscale>
<asrwt>0</asrwt>
<pdfrwt beam="1">  1       21 0.24135043E-01 0.26329258E+03</pdfrwt>
<pdfrwt beam="2">  1       21 0.16995833E-01 0.26329258E+03</pdfrwt>
<totfact> 0.49875786E+05</totfact>
</mgrwt>
</event>
<event>
 8    1  0.9123825E-006  0.5696604E+03  0.7546771E-02  0.9970430E-01
         21   -1    0    0  504  503  0.00000000000E+00  0.00000000000E+00  0.47598131448E+03  0.47598131448E+03  0.00000000000E+00 0.  1.
         21   -1    0    0  503  504 -0.00000000000E+00 -0.00000000000E+00 -0.17044419366E+03  0.17044419366E+03  0.00000000000E+00 0.  1.
         25    2    1    2    0    0  0.26319249851E+02  0.14650968604E+03 -0.83480304764E+02  0.21154675935E+03  0.12500111636E+03 0.  0.
         25    2    1    2    0    0 -0.26319249851E+02 -0.14650968604E+03  0.38901742558E+03  0.43487874878E+03  0.12500871058E+03 0.  0.
          5    1    3    3  501    0  0.28422904622E+02  0.15517070899E+03 -0.34511032215E+02  0.16155157622E+03  0.47000000000E+01 0. -1.
         -5    1    3    3    0  501 -0.21036547720E+01 -0.86610229481E+01 -0.48969272548E+02  0.49995183126E+02  0.47000000000E+01 0. -1.
          5    1    4    4  502    0 -0.28142634966E+02 -0.64511314002E+02  0.51061561402E+02  0.87080942749E+02  0.47000000000E+01 0. -1.
         -5    1    4    4    0  502  0.18233851153E+01 -0.81998372041E+02  0.33795586418E+03  0.34779780603E+03  0.47000000000E+01 0. -1.
<mgrwt>
<rscale>  0 0.56966043E+03</rscale>
<asrwt>0</asrwt>
<pdfrwt beam="1">  1       21 0.73227894E-01 0.56966043E+03</pdfrwt>
<pdfrwt beam="2">  1       21 0.26222184E-01 0.56966043E+03</pdfrwt>
<totfact> 0.20404484E+04</totfact>
</mgrwt>
</event>
<event>
 8    1  0.9123825E-006  0.2545460E+03  0.7546771E-02  0.1110465E+00
         21   -1    0    0  504  503  0.00000000000E+00  0.00000000000E+00  0.22121299748E+03  0.22121299748E+03  0.00000000000E+00 0.  1.
         21   -1    0    0  503  504 -0.00000000000E+00 -0.00000000000E+00 -0.73225449323E+02  0.73225449323E+02  0.00000000000E+00 0.  1.
         25    2    1    2    0    0  0.17487166699E+02  0.59975943441E+01  0.56399819286E+02  0.13838095154E+03  0.12500630383E+03 0.  0.
         25    2    1    2    0    0 -0.17487166699E+02 -0.59975943441E+01  0.91587728872E+02  0.15605749526E+03  0.12499543036E+03 0.  0.
          5    1    3    3  501    0 -0.11204326632E+02  0.47331653997E+02 -0.14810519664E+02  0.51061373837E+02  0.47000000000E+01 0.  1.
         -5    1    3    3    0  501  0.28691493331E+02 -0.41334059653E+02  0.71210338950E+02  0.87319577704E+02  0.47000000000E+01 0.  1.
          5    1    4    4  502    0  0.20691377478E+02 -0.20764566118E+02  0.10777409381E+03  0.11178839655E+03  0.47000000000E+01 0.  1.
         -5    1    4    4    0  502 -0.38178544178E+02  0.14766971774E+02 -0.16186364934E+02  0.44269098711E+02  0.47000000000E+01 0.  1.
<mgrwt>
<rscale>  0 0.25454604E+03</rscale>
<asrwt>0</asrwt>
<pdfrwt beam="1">  1       21 0.34032769E-01 0.25454604E+03</pdfrwt>
<pdfrwt beam="2">  1       21 0.11265454E-01 0.25454604E+03</pdfrwt>
<totfact> 0.54008146E+05</totfact>
</mgrwt>
</event>
<event>
 8    1  0.9123825E-006  0.2833816E+03  0.7546771E-02  0.1093856E+00
         21   -1    0    0  504  503  0.00000000000E+00  0.00000000000E+00  0.16620028850E+04  0.16620028850E+04  0.00000000000E+00 0.  1.
         21   -1    0    0  503  504 -0.00000000000E+00 -0.00000000000E+00 -0.12079569006E+02  0.12079569006E+02  0.00000000000E+00 0.  1.
         25    2    1    2    0    0  0.61043921865E+02  0.11009638358E+00  0.98397599959E+03  0.99376075713E+03  0.12500120852E+03 0.  0.
         25    2    1    2    0    0 -0.61043921865E+02 -0.11009638358E+00  0.66594731639E+03  0.68032169686E+03  0.12500164196E+03 0.  0.
          5    1    3    3  501    0  0.23113721511E+00 -0.93290889346E+01  0.30358082774E+01  0.10880783826E+02  0.47000000000E+01 0. -1.
         -5    1    3    3    0  501  0.60812784650E+02  0.94391853182E+01  0.98094019131E+03  0.98287997331E+03  0.47000000000E+01 0. -1.
          5    1    4    4  502    0  0.29143657714E+02 -0.16472231071E+01  0.36284673751E+03  0.36404932502E+03  0.47000000000E+01 0. -1.
         -5    1    4    4    0  502 -0.90187579579E+02  0.15371267236E+01  0.30310057889E+03  0.31627237184E+03  0.47000000000E+01 0. -1.
<mgrwt>
<rscale>  0 0.28338157E+03</rscale>
<asrwt>0</asrwt>
<pdfrwt beam="1">  1       21 0.25569257E+00 0.28338157E+03</pdfrwt>
<pdfrwt beam="2">  1       21 0.18583965E-02 0.28338157E+03</pdfrwt>
<totfact> 0.80734298E+04</totfact>
</mgrwt>
</event>
<event>
 8    1  0.9123825E-006  0.3246760E+03  0.7546771E-02  0.1073517E+00
         21   -1    0    0  504  503  0.00000000000E+00  0.00000000000E+00  0.25243823348E+03  0.25243823348E+03  0.00000000000E+00 0. -1.
         21   -1    0    0  503  504 -0.00000000000E+00 -0.00000000000E+00 -0.10439630910E+03  0.10439630910E+03  0.00000000000E+00 0. -1.
         25    2    1    2    0    0 -0.18296038535E+02  0.92829583668E+02  0.27702344335E+02  0.15920559930E+03  0.12500770511E+03 0.  0.
         25    2    1    2    0    0  0.18296038535E+02 -0.92829583668E+02  0.12033958005E+03  0.19762894328E+03  0.12499403212E+03 0.  0.
          5    1    3    3  501    0 -0.24837819282E+01 -0.96976343323E+01  0.51494917174E+02  0.52669059030E+02  0.47000000000E+01 0. -1.
         -5    1    3    3    0  501 -0.15812256607E+02  0.10252721800E+03 -0.23792572839E+02  0.10653654027E+03  0.47000000000E+01 0. -1.
          5    1    4    4  502    0  0.41716399943E+02 -0.15240173649E+02 -0.83860095467E+01  0.45441567679E+02  0.47000000000E+01 0. -1.
         -5    1    4    4    0  502 -0.23420361408E+02 -0.77589410020E+02  0.12872558960E+03  0.15218737560E+03  0.47000000000E+01 0. -1.
<mgrwt>
<rscale>  0 0.32467596E+03</rscale>
<asrwt>0</asrwt>
<pdfrwt beam="1">  1       21 0.38836651E-01 0.32467596E+03</pdfrwt>
<pdfrwt beam="2">  1       21 0.16060971E-01 0.32467596E+03</pdfrwt>
<totfact> 0.21408746E+05</totfact>
</mgrwt>
</event>
<event>
 8    1  0.9123825E-006  0.2991465E+03  0.7546771E-02  0.1085668E+00
         21   -1    0    0  504  503  0.00000000000E+00  0.00000000000E+00  0.14465012046E+03  0.14465012046E+03  0.00000000000E+00 0. -1.
         21   -1    0    0  503  504 -0.00000000000E+00 -0.00000000000E+00 -0.15466392252E+03  0.15466392252E+03  0.00000000000E+00 0. -1.
         25    2    1    2    0    0  0.57156748491E+01 -0.31238398786E+02  0.70792373666E+02  0.14712200417E+03  0.12499926977E+03 0.  0.
         25    2    1    2    0    0 -0.57156748491E+01  0.31238398786E+02 -0.80806175730E+02  0.15219203881E+03  0.12499708854E+03 0.  0.
          5    1    3    3  501    0  0.62271473628E+02 -0.34529890086E+02  0.47304563789E+02  0.85614610274E+02  0.47000000000E+01 0.  1.
         -5    1    3    3    0  501 -0.56555798779E+02  0.32914912996E+01  0.23487809877E+02  0.61507393892E+02  0.47000000000E+01 0.  1.
          5    1    4    4  502    0  0.18596487848E+01 -0.42843329290E+02 -0.13054678945E+01  0.43160206263E+02  0.47000000000E+01 0. -1.
         -5    1    4    4    0  502 -0.75753236338E+01  0.74081728076E+02 -0.79500707836E+02  0.10903183255E+03  0.47000000000E+01 0. -1.
<mgrwt>
<rscale>  0 0.29914649E+03</rscale>
<asrwt>0</asrwt>
<pdfrwt beam="1">  1       21 0.22253865E-01 0.29914649E+03</pdfrwt>
<pdfrwt beam="2">  1       21 0.23794450E-01 0.29914649E+03</pdfrwt>
<totfact> 0.30683296E+05</totfact>
</mgrwt>
</event>
<event>
 8    1  0.9123825E-006  0.3400403E+03  0.7546771E-02  0.1066779E+00
         21   -1    0    0  504  503  0.00000000000E+00  0.00000000000E+00  0.43186870967E+02  0.43186870967E+02  0.00000000000E+00 0. -1.
         21   -1    0    0  503  504 -0.00000000000E+00 -0.00000000000E+00 -0.66934362976E+03  0.66934362976E+03  0.00000000000E+00 0. -1.
         25    2    1    2    0    0  0.10077788945E+02 -0.81425729246E+02 -0.48266038885E+03  0.50528991616E+03  0.12500054878E+03 0.  0.
         25    2    1    2    0    0 -0.10077788945E+02  0.81425729246E+02 -0.14349636994E+03  0.20724058456E+03  0.12500296193E+03 0.  0.
          5    1    3    3  501    0 -0.16441169751E+02 -0.33348246479E+01 -0.19464413620E+01  0.17530309529E+02  0.47000000000E+01 0. -1.
         -5    1    3    3    0  501  0.26518958696E+02 -0.78090904598E+02 -0.48071394749E+03  0.48775960663E+03  0.47000000000E+01 0. -1.
          5    1    4    4  502    0 -0.46382890871E+02  0.94163929222E+02 -0.76979494029E+02  0.13025417703E+03  0.47000000000E+01 0. -1.
         -5    1    4    4    0  502  0.36305101926E+02 -0.12738199976E+02 -0.66516875911E+02  0.76986407536E+02  0.47000000000E+01 0. -1.
<mgrwt>
<rscale>  0 0.34004033E+03</rscale>
<asrwt>0</asrwt>
<pdfrwt beam="1">  1       21 0.66441338E-02 0.34004033E+03</pdfrwt>
<pdfrwt beam="2">  1       21 0.10297595E+00 0.34004033E+03</pdfrwt>
<totfact> 0.12078455E+05</totfact>
</mgrwt>
</event>
<event>
 8    1  0.9123825E-006  0.2544675E+03  0.7546771E-02  0.1110514E+00
         21   -1    0    0  504  503  0.00000000000E+00  0.00000000000E+00  0.28981626751E+03  0.28981626751E+03  0.00000000000E+00 0.  1.
         21   -1    0    0  503  504 -0.00000000000E+00 -0.00000000000E+00 -0.55857559002E+02  0.55857559002E+02  0.00000000000E+00 0.  1.
         25    2    1    2    0    0  0.21880509517E+01 -0.23177225334E+02  0.11034137338E+03  0.16833733463E+03  0.12498107140E+03 0.  0.
         25    2    1    2    0    0 -0.21880509517E+01  0.23177225334E+02  0.12361733513E+03  0.17733649189E+03  0.12500005788E+03 0.  0.
          5    1    3    3  501    0 -0.41109360088E+02  0.21568803940E+02  0.64220199180E+01  0.47101222171E+02  0.47000000000E+01 0.  1.
         -5    1    3    3    0  501  0.43297411039E+02 -0.44746029274E+02  0.10391935347E+03  0.12123611246E+03  0.47000000000E+01 0.  1.
          5    1    4    4  502    0  0.51555403067E+01  0.74180045697E+02  0.62438969706E+02  0.97210975272E+02  0.47000000000E+01 0. -1.
         -5    1    4    4    0  502 -0.73435912584E+01 -0.51002820363E+02  0.61178365421E+02  0.80125516617E+02  0.47000000000E+01 0. -1.
<mgrwt>
<rscale>  0 0.25446752E+03</rscale>
<asrwt>0</asrwt>
<pdfrwt beam="1">  1       21 0.44587117E-01 0.25446752E+03</pdfrwt>
<pdfrwt beam="2">  1       21 0.85934708E-02 0.25446752E+03</pdfrwt>
<totfact> 0.50522861E+05</totfact>
</mgrwt>
</event>
<event>
 8    1  0.9123825E-006  0.3324076E+03  0.7546771E-02  0.1070077E+00
         21   -1    0    0  504  503  0.00000000000E+00  0.00000000000E+00  0.12791698258E+03  0.12791698258E+03  0.00000000000E+00 0. -1.
         21   -1    0    0  503  504 -0.00000000000E+00 -0.00000000000E+00 -0.21595025021E+03  0.21595025021E+03  0.00000000000E+00 0. -1.
         25    2    1    2    0    0 -0.10149127690E+03  0.40010488448E+02 -0.54190574608E+02  0.17453716614E+03  0.12500114205E+03 0.  0.
         25    2    1    2    0    0  0.10149127690E+03 -0.40010488448E+02 -0.33842693025E+02  0.16933006665E+03  0.12500410045E+03 0.  0.
          5    1    3    3  501    0 -0.51060048302E+02  0.83513081798E+02 -0.22104546247E+02  0.10046026244E+03  0.47000000000E+01 0.  1.
         -5    1    3    3    0  501 -0.50431228593E+02 -0.43502593351E+02 -0.32086028361E+02  0.74076903699E+02  0.47000000000E+01 0.  1.
          5    1    4    4  502    0  0.11040062057E+03  0.56298453957E+01 -0.47835398047E+02  0.12054172509E+03  0.47000000000E+01 0.  1.
         -5    1    4    4    0  502 -0.89093436770E+01 -0.45640333843E+02  0.13992705023E+02  0.48788341557E+02  0.47000000000E+01 0.  1.
<mgrwt>
<rscale>  0 0.33240761E+03</rscale>
<asrwt>0</asrwt>
<pdfrwt beam="1">  1       21 0.19679536E-01 0.33240761E+03</pdfrwt>
<pdfrwt beam="2">  1       21 0.33223115E-01 0.33240761E+03</pdfrwt>
<totfact> 0.20027768E+05</totfact>
</mgrwt>
</event>
