<event>
 8    1  0.9974463E-006  0.2760688E+03  0.7546771E-02  0.1097856E+00
         21   -1    0    0  504  503  0.00000000000E+00  0.00000000000E+00  0.37016559492E+02  0.37016559492E+02  0.00000000000E+00 0.  1.
         21   -1    0    0  503  504 -0.00000000000E+00 -0.00000000000E+00 -0.51472915114E+03  0.51472915114E+03  0.00000000000E+00 0.  1.
         25    2    1    2    0    0 -0.62737660468E+01 -0.46341299810E+02 -0.16841777529E+03  0.21488474749E+03  0.12499612578E+03 0.  0.
         25    2    1    2    0    0  0.62737660468E+01  0.46341299810E+02 -0.30929481636E+03  0.33686096314E+03  0.12500059543E+03 0.  0.
          5    1    3    3  501    0 -0.62787892479E+02 -0.27010000222E+02 -0.11859312157E+03  0.13696086316E+03  0.47000000000E+01 0. -1.
         -5    1    3    3    0  501  0.56514126432E+02 -0.19331299588E+02 -0.49824653719E+02  0.77923884325E+02  0.47000000000E+01 0. -1.
          5    1    4    4  502    0 -0.56963073765E-01  0.40081404848E+02 -0.16029671231E+02  0.43423065520E+02  0.47000000000E+01 0.  1.
         -5    1    4    4    0  502  0.63307291205E+01  0.62598949616E+01 -0.29326514513E+03  0.29343789762E+03  0.47000000000E+01 0.  1.
<mgrwt>
<rscale>  0 0.27606885E+03</rscale>
<asrwt>0</asrwt>
<pdfrwt beam="1">  1       21 0.56948561E-02 0.27606885E+03</pdfrwt>
<pdfrwt beam="2">  1       21 0.79189089E-01 0.27606885E+03</pdfrwt>
<totfact> 0.29687814E+05</totfact>
</mgrwt>
</event>
<event>
 8    1  0.9974463E-006  0.3541444E+03  0.7546771E-02  0.1060927E+00
         21   -1    0    0  504  503  0.00000000000E+00  0.00000000000E+00  0.11402819765E+03  0.11402819765E+03  0.00000000000E+00 0. -1.
         21   -1    0    0  503  504 -0.00000000000E+00 -0.00000000000E+00 -0.27497202807E+03  0.27497202807E+03  0.00000000000E+00 0. -1.
         25    2    1    2    0    0 -0.34128826464E+02 -0.77805226284E+02 -0.18180349166E+03  0.23642433659E+03  0.12500210927E+03 0.  0.
         25    2    1    2    0    0  0.34128826464E+02  0.77805226284E+02  0.20859661237E+02  0.15257588913E+03  0.12500338572E+03 0.  0.
          5    1    3    3  501    0 -0.16464950378E+02 -0.10785947305E+03 -0.10296984350E+03  0.15009876478E+03  0.47000000000E+01 0. -1.
         -5    1    3    3    0  501 -0.17663876087E+02  0.30054246767E+02 -0.78833648151E+02  0.86325571807E+02  0.47000000000E+01 0. -1.
          5    1    4    4  502    0 -0.53767515467E+01  0.10154729862E+03  0.77117267787E-01  0.10179812995E+03  0.47000000000E+01 0. -1.
         -5    1    4    4    0  502  0.39505578011E+02 -0.23742072338E+02  0.20782543969E+02  0.50777759174E+02  0.47000000000E+01 0. -1.
<mgrwt>
<rscale>  0 0.35414440E+03</rscale>
<asrwt>0</asrwt>
<pdfrwt beam="1">  1       21 0.17542800E-01 0.35414440E+03</pdfrwt>
<pdfrwt beam="2">  1       21 0.42303388E-01 0.35414440E+03</pdfrwt>
<totfact> 0.15150813E+05</totfact>
</mgrwt>
</event>
<event>
 8    1  0.9974463E-006  0.2621935E+03  0.7546771E-02  0.1105832E+00
         21   -1    0    0  504  503  0.00000000000E+00  0.00000000000E+00  0.13719066824E+04  0.13719066824E+04  0.00000000000E+00 0. -1.
         21   -1    0    0  503  504 -0.00000000000E+00 -0.00000000000E+00 -0.12527347409E+02  0.12527347409E+02  0.00000000000E+00 0. -1.
         25    2    1    2    0    0  0.91352554393E+01  0.37003191690E+02  0.62470632867E+03  0.63822872744E+03  0.12500088944E+03 0.  0.
         25    2    1    2    0    0 -0.91352554393E+01 -0.37003191690E+02  0.73467300631E+03  0.74620530236E+03  0.12500095192E+03 0.  0.
          5    1    3    3  501    0 -0.64516298269E+01  0.68130416583E+02  0.56348898816E+03  0.56764892933E+03  0.47000000000E+01 0. -1.
         -5    1    3    3    0  501  0.15586885266E+02 -0.31127224893E+02  0.61217340505E+02  0.70579798104E+02  0.47000000000E+01 0. -1.
          5    1    4    4  502    0  0.32249657134E+02 -0.60752080202E+02  0.25544300118E+03  0.26458282727E+03  0.47000000000E+01 0.  1.
         -5    1    4    4    0  502 -0.41384912574E+02  0.23748888512E+02  0.47923000514E+03  0.48162247509E+03  0.47000000000E+01 0.  1.
<mgrwt>
<rscale>  0 0.26219345E+03</rscale>
<asrwt>0</asrwt>
<pdfrwt beam="1">  1       21 0.21106245E+00 0.26219345E+03</pdfrwt>
<pdfrwt beam="2">  1       21 0.19272853E-02 0.26219345E+03</pdfrwt>
<totfact> 0.14426967E+05</totfact>
</mgrwt>
</event>
<event>
 8    1  0.9974463E-006  0.3183796E+03  0.7546771E-02  0.1076397E+00
         21   -1    0    0  504  503  0.00000000000E+00  0.00000000000E+00  0.13354627836E+03  0.13354627836E+03  0.00000000000E+00 0. -1.
         21   -1    0    0  503  504 -0.00000000000E+00 -0.00000000000E+00 -0.18975741602E+03  0.18975741602E+03  0.00000000000E+00 0. -1.
         25    2    1    2    0    0  0.20776822069E+02  0.38730399433E+02 -0.11770647256E+03  0.17722637004E+03  0.12499060917E+03 0.  0.
         25    2    1    2    0    0 -0.20776822069E+02 -0.38730399433E+02  0.61495334893E+02  0.14607732434E+03  0.12500075319E+03 0.  0.
          5    1    3    3  501    0  0.52672337893E+02 -0.44857363622E+01 -0.62814760444E+01  0.53441968069E+02  0.47000000000E+01 0. -1.
         -5    1    3    3    0  501 -0.31895515824E+02  0.43216135795E+02 -0.11142499652E+03  0.12378440197E+03  0.47000000000E+01 0. -1.
          5    1    4    4  502    0  0.20715071886E+02  0.38219139767E+02  0.30033771361E+02  0.53046529293E+02  0.47000000000E+01 0.  1.
         -5    1    4    4    0  502 -0.41491893956E+02 -0.76949539200E+02  0.31461563532E+02  0.93030795047E+02  0.47000000000E+01 0.  1.
<mgrwt>
<rscale>  0 0.31837963E+03</rscale>
<asrwt>0</asrwt>
<pdfrwt beam="1">  1       21 0.20545581E-01 0.31837963E+03</pdfrwt>
<pdfrwt beam="2">  1       21 0.29193449E-01 0.31837963E+03</pdfrwt>
<totfact> 0.23919481E+05</totfact>
</mgrwt>
</event>
<event>
 8    1  0.9974463E-006  0.4291050E+03  0.7546771E-02  0.1034143E+00
         21   -1    0    0  504  503  0.00000000000E+00  0.00000000000E+00  0.24743545504E+03  0.24743545504E+03  0.00000000000E+00 0.  1.
         21   -1    0    0  503  504 -0.00000000000E+00 -0.00000000000E+00 -0.18603956992E+03  0.18603956992E+03  0.00000000000E+00 0.  1.
         25    2    1    2    0    0 -0.45899985928E+02  0.59863472884E+02  0.18951592325E+03  0.23923356464E+03  0.12500387671E+03 0.  0.
         25    2    1    2    0    0  0.45899985928E+02 -0.59863472884E+02 -0.12812003813E+03  0.19424146031E+03  0.12499822655E+03 0.  0.
          5    1    3    3  501    0  0.31540547234E+02  0.18800244481E+02  0.12480535426E+03  0.13017957507E+03  0.47000000000E+01 0. -1.
         -5    1    3    3    0  501 -0.77440533162E+02  0.41063228404E+02  0.64710568987E+02  0.10905398957E+03  0.47000000000E+01 0. -1.
          5    1    4    4  502    0  0.34695507155E+02  0.34182693567E+02 -0.28152992954E+02  0.56452774675E+02  0.47000000000E+01 0. -1.
         -5    1    4    4    0  502  0.11204478773E+02 -0.94046166452E+02 -0.99967045174E+02  0.13778868564E+03  0.47000000000E+01 0. -1.
<mgrwt>
<rscale>  0 0.42910505E+03</rscale>
<asrwt>0</asrwt>
<pdfrwt beam="1">  1       21 0.38066993E-01 0.42910505E+03</pdfrwt>
<pdfrwt beam="2">  1       21 0.28621472E-01 0.42910505E+03</pdfrwt>
<totfact> 0.72387970E+04</totfact>
</mgrwt>
</event>
<event>
 8    1  0.9974463E-006  0.2733489E+03  0.7546771E-02  0.1099378E+00
         21   -1    0    0  504  503  0.00000000000E+00  0.00000000000E+00  0.12246196187E+03  0.12246196187E+03  0.00000000000E+00 0. -1.
         21   -1    0    0  503  504 -0.00000000000E+00 -0.00000000000E+00 -0.15253638705E+03  0.15253638705E+03  0.00000000000E+00 0. -1.
         25    2    1    2    0    0  0.10713744203E+02  0.51546416449E+01 -0.69286190241E+02  0.14345584315E+03  0.12505058228E+03 0.  0.
         25    2    1    2    0    0 -0.10713744203E+02 -0.51546416449E+01  0.39211765061E+02  0.13154250578E+03  0.12499805463E+03 0.  0.
          5    1    3    3  501    0 -0.42261885108E+01 -0.59082884619E+02 -0.35275779456E+02  0.69102232528E+02  0.47000000000E+01 0. -1.
         -5    1    3    3    0  501  0.14939932714E+02  0.64237526264E+02 -0.34010410786E+02  0.74353610617E+02  0.47000000000E+01 0. -1.
          5    1    4    4  502    0  0.32319772731E+02  0.33742398027E+02 -0.17660271566E+02  0.50170632105E+02  0.47000000000E+01 0. -1.
         -5    1    4    4    0  502 -0.43033516934E+02 -0.38897039672E+02  0.56872036627E+02  0.81371873673E+02  0.47000000000E+01 0. -1.
<mgrwt>
<rscale>  0 0.27334890E+03</rscale>
<asrwt>0</asrwt>
<pdfrwt beam="1">  1       21 0.18840302E-01 0.27334890E+03</pdfrwt>
<pdfrwt beam="2">  1       21 0.23467137E-01 0.27334890E+03</pdfrwt>
<totfact> 0.43364825E+05</totfact>
</mgrwt>
</event>
<event>
 8    1  0.9974463E-006  0.2890451E+03  0.7546771E-02  0.1090849E+00
         21   -1    0    0  504  503  0.00000000000E+00  0.00000000000E+00  0.23630458321E+02  0.23630458321E+02  0.00000000000E+00 0. -1.
         21   -1    0    0  503  504 -0.00000000000E+00 -0.00000000000E+00 -0.88389196047E+03  0.88389196047E+03  0.00000000000E+00 0. -1.
         25    2    1    2    0    0  0.63490517618E+02 -0.26942008930E+02 -0.35960318606E+03  0.38690648913E+03  0.12500104895E+03 0.  0.
         25    2    1    2    0    0 -0.63490517618E+02  0.26942008930E+02 -0.50065831609E+03  0.52061592966E+03  0.12500111627E+03 0.  0.
          5    1    3    3  501    0  0.96264692753E+02 -0.30998364036E+02 -0.20366874685E+03  0.22744414278E+03  0.47000000000E+01 0.  1.
         -5    1    3    3    0  501 -0.32774175135E+02  0.40563551057E+01 -0.15593443921E+03  0.15946234635E+03  0.47000000000E+01 0.  1.
          5    1    4    4  502    0 -0.97456032976E+02  0.12818145006E+02 -0.27829701542E+03  0.29518350563E+03  0.47000000000E+01 0. -1.
         -5    1    4    4    0  502  0.33965515358E+02  0.14123863924E+02 -0.22236130067E+03  0.22543242402E+03  0.47000000000E+01 0. -1.
<mgrwt>
<rscale>  0 0.28904513E+03</rscale>
<asrwt>0</asrwt>
<pdfrwt beam="1">  1       21 0.36354551E-02 0.28904513E+03</pdfrwt>
<pdfrwt beam="2">  1       21 0.13598338E+00 0.28904513E+03</pdfrwt>
<totfact> 0.17138420E+05</totfact>
</mgrwt>
</event>
<event>
 8    1  0.9974463E-006  0.5140048E+03  0.7546771E-02  0.1010187E+00
         21   -1    0    0  504  503  0.00000000000E+00  0.00000000000E+00  0.23229446083E+03  0.23229446083E+03  0.00000000000E+00 0. -1.
         21   -1    0    0  503  504 -0.00000000000E+00 -0.00000000000E+00 -0.28433840721E+03  0.28433840721E+03  0.00000000000E+00 0. -1.
         25    2    1    2    0    0 -0.96724501923E+02  0.15690610339E+02 -0.22910104336E+03  0.27877244664E+03  0.12499985765E+03 0.  0.
         25    2    1    2    0    0  0.96724501923E+02 -0.15690610339E+02  0.17705709697E+03  0.23786042141E+03  0.12500615968E+03 0.  0.
          5    1    3    3  501    0 -0.95917518977E+02  0.46452643336E+02 -0.10086568113E+03  0.14681278606E+03  0.47000000000E+01 0.  1.
         -5    1    3    3    0  501 -0.80698294618E+00 -0.30762032998E+02 -0.12823536222E+03  0.13195966058E+03  0.47000000000E+01 0.  1.
          5    1    4    4  502    0  0.86190141304E+01 -0.31936482230E+02  0.13445686670E+03  0.13854589602E+03  0.47000000000E+01 0.  1.
         -5    1    4    4    0  502  0.88105487793E+02  0.16245871891E+02  0.42600230272E+02  0.99314525383E+02  0.47000000000E+01 0.  1.
<mgrwt>
<rscale>  0 0.51400481E+03</rscale>
<asrwt>0</asrwt>
<pdfrwt beam="1">  1       21 0.35737609E-01 0.51400481E+03</pdfrwt>
<pdfrwt beam="2">  1       21 0.43744370E-01 0.51400481E+03</pdfrwt>
<totfact> 0.34194091E+04</totfact>
</mgrwt>
</event>
<event>
 8    1  0.9974463E-006  0.2823564E+03  0.7546771E-02  0.1094409E+00
         21   -1    0    0  504  503  0.00000000000E+00  0.00000000000E+00  0.82688273435E+02  0.82688273435E+02  0.00000000000E+00 0.  1.
         21   -1    0    0  503  504 -0.00000000000E+00 -0.00000000000E+00 -0.24104132616E+03  0.24104132616E+03  0.00000000000E+00 0.  1.
         25    2    1    2    0    0  0.10373532848E+02 -0.59345127308E+02 -0.49361158532E+02  0.14727919298E+03  0.12500072957E+03 0.  0.
         25    2    1    2    0    0 -0.10373532848E+02  0.59345127308E+02 -0.10899189419E+03  0.17645040661E+03  0.12500423463E+03 0.  0.
          5    1    3    3  501    0  0.64342522541E+02 -0.20204423844E+02 -0.43052337875E+02  0.80148441946E+02  0.47000000000E+01 0.  1.
         -5    1    3    3    0  501 -0.53968989693E+02 -0.39140703464E+02 -0.63088206569E+01  0.67130751032E+02  0.47000000000E+01 0.  1.
          5    1    4    4  502    0 -0.64856318171E+00 -0.54043307347E+01  0.25660470415E+02  0.26649149458E+02  0.47000000000E+01 0.  1.
         -5    1    4    4    0  502 -0.97249696668E+01  0.64749458043E+02 -0.13465236460E+03  0.14980125715E+03  0.47000000000E+01 0.  1.
<mgrwt>
<rscale>  0 0.28235645E+03</rscale>
<asrwt>0</asrwt>
<pdfrwt beam="1">  1       21 0.12721273E-01 0.28235645E+03</pdfrwt>
<pdfrwt beam="2">  1       21 0.37083281E-01 0.28235645E+03</pdfrwt>
<totfact> 0.36344042E+05</totfact>
</mgrwt>
</event>
<event>
 8    1  0.9974463E-006  0.2877855E+03  0.7546771E-02  0.1091511E+00
         21   -1    0    0  504  503  0.00000000000E+00  0.00000000000E+00  0.19818057303E+03  0.19818057303E+03  0.00000000000E+00 0.  1.
         21   -1    0    0  503  504 -0.00000000000E+00 -0.00000000000E+00 -0.10447608582E+03  0.10447608582E+03  0.00000000000E+00 0.  1.
         25    2    1    2    0    0 -0.61623563904E+01 -0.55911621205E+02  0.82143495671E+00  0.13708835732E+03  0.12501383498E+03 0.  0.
         25    2    1    2    0    0  0.61623563904E+01  0.55911621205E+02  0.92883052254E+02  0.16556830152E+03  0.12498606743E+03 0.  0.
          5    1    3    3  501    0 -0.39163509568E+02  0.25665820195E+02 -0.10564089266E+02  0.48230745277E+02  0.47000000000E+01 0.  1.
         -5    1    3    3    0  501  0.33001153177E+02 -0.81577441399E+02  0.11385524223E+02  0.88857612044E+02  0.47000000000E+01 0.  1.
          5    1    4    4  502    0 -0.58541412869E+02  0.36208429751E+02  0.51998126597E+02  0.86394690666E+02  0.47000000000E+01 0.  1.
         -5    1    4    4    0  502  0.64703769260E+02  0.19703191454E+02  0.40884925657E+02  0.79173610855E+02  0.47000000000E+01 0.  1.
<mgrwt>
<rscale>  0 0.28778555E+03</rscale>
<asrwt>0</asrwt>
<pdfrwt beam="1">  1       21 0.30489319E-01 0.28778555E+03</pdfrwt>
<pdfrwt beam="2">  1       21 0.16073244E-01 0.28778555E+03</pdfrwt>
<totfact> 0.34963499E+05</totfact>
</mgrwt>
</event>
<event>
 8    1  0.9974463E-006  0.3870530E+03  0.7546771E-02  0.1048357E+00
         21   -1    0    0  504  503  0.00000000000E+00  0.00000000000E+00  0.11081079370E+04  0.11081079370E+04  0.00000000000E+00 0. -1.
         21   -1    0    0  503  504 -0.00000000000E+00 -0.00000000000E+00 -0.33798615853E+02  0.33798615853E+02  0.00000000000E+00 0. -1.
         25    2    1    2    0    0  0.13669056759E+03  0.36108163175E+02  0.66368525265E+03  0.68999369132E+03  0.12500027505E+03 0.  0.
         25    2    1    2    0    0 -0.13669056759E+03 -0.36108163175E+02  0.41062406852E+03  0.45191286155E+03  0.12499999231E+03 0.  0.
          5    1    3    3  501    0  0.15912921126E+03  0.25181371028E+02  0.53191523009E+03  0.55579862300E+03  0.47000000000E+01 0.  1.
         -5    1    3    3    0  501 -0.22438643677E+02  0.10926792147E+02  0.13177002256E+03  0.13419506832E+03  0.47000000000E+01 0.  1.
          5    1    4    4  502    0 -0.73913808554E+02 -0.81601654413E+02  0.21952469087E+03  0.24563236960E+03  0.47000000000E+01 0. -1.
         -5    1    4    4    0  502 -0.62776759033E+02  0.45493491239E+02  0.19109937765E+03  0.20628049195E+03  0.47000000000E+01 0. -1.
<mgrwt>
<rscale>  0 0.38705304E+03</rscale>
<asrwt>0</asrwt>
<pdfrwt beam="1">  1       21 0.17047812E+00 0.38705304E+03</pdfrwt>
<pdfrwt beam="2">  1       21 0.51997879E-02 0.38705304E+03</pdfrwt>
<totfact> 0.49010232E+04</totfact>
</mgrwt>
</event>
<event>
 8    1  0.9974463E-006  0.2713146E+03  0.7546771E-02  0.1100530E+00
         21   -1    0    0  504  503  0.00000000000E+00  0.00000000000E+00  0.58835323263E+02  0.58835323263E+02  0.00000000000E+00 0.  1.
         21   -1    0    0  503  504 -0.00000000000E+00 -0.00000000000E+00 -0.31278661621E+03  0.31278661621E+03  0.00000000000E+00 0.  1.
         25    2    1    2    0    0 -0.37987327400E+02  0.33857235644E+02 -0.14580155699E+03  0.19867576975E+03  0.12499847205E+03 0.  0.
         25    2    1    2    0    0  0.37987327400E+02 -0.33857235644E+02 -0.10814973595E+03  0.17294616972E+03  0.12499865114E+03 0.  0.
          5    1    3    3  501    0 -0.63284191672E+02 -0.81333280693E+01 -0.13331376420E+03  0.14787051656E+03  0.47000000000E+01 0.  1.
         -5    1    3    3    0  501  0.25296864272E+02  0.41990563713E+02 -0.12487792790E+02  0.50805253190E+02  0.47000000000E+01 0.  1.
          5    1    4    4  502    0  0.40130532037E+02 -0.56927383234E+02 -0.82587634759E+01  0.70295687901E+02  0.47000000000E+01 0. -1.
         -5    1    4    4    0  502 -0.21432046364E+01  0.23070147590E+02 -0.99890972475E+02  0.10265048182E+03  0.47000000000E+01 0. -1.
<mgrwt>
<rscale>  0 0.27131459E+03</rscale>
<asrwt>0</asrwt>
<pdfrwt beam="1">  1       21 0.90515884E-02 0.27131459E+03</pdfrwt>
<pdfrwt beam="2">  1       21 0.48121017E-01 0.27131459E+03</pdfrwt>
<totfact> 0.39219956E+05</totfact>
</mgrwt>
</event>
<event>
 8    1  0.9974463E-006  0.2843317E+03  0.7546771E-02  0.1093346E+00
         21   -1    0    0  504  503  0.00000000000E+00  0.00000000000E+00  0.17923178356E+03  0.17923178356E+03  0.00000000000E+00 0. -1.
         21   -1    0    0  503  504 -0.00000000000E+00 -0.00000000000E+00 -0.11276528150E+03  0.11276528150E+03  0.00000000000E+00 0. -1.
         25    2    1    2    0    0  0.47088725414E+02 -0.26103812183E+02  0.75384698433E+02  0.15558592566E+03  0.12500148172E+03 0.  0.
         25    2    1    2    0    0 -0.47088725414E+02  0.26103812183E+02 -0.89181963756E+01  0.13641113940E+03  0.12501882920E+03 0.  0.
          5    1    3    3  501    0  0.52849338348E+02  0.12382513320E+02  0.96681300167E+02  0.11097631730E+03  0.47000000000E+01 0. -1.
         -5    1    3    3    0  501 -0.57606129338E+01 -0.38486325503E+02 -0.21296601733E+02  0.44609608354E+02  0.47000000000E+01 0. -1.
          5    1    4    4  502    0 -0.82470754267E+02 -0.12477050114E+02 -0.65725799773E+01  0.83799707019E+02  0.47000000000E+01 0.  1.
         -5    1    4    4    0  502  0.35382028853E+02  0.38580862296E+02 -0.23456163983E+01  0.52611432385E+02  0.47000000000E+01 0.  1.
<mgrwt>
<rscale>  0 0.28433166E+03</rscale>
<asrwt>0</asrwt>
<pdfrwt beam="1">  1       21 0.27574120E-01 0.28433166E+03</pdfrwt>
<pdfrwt beam="2">  1       21 0.17348505E-01 0.28433166E+03</pdfrwt>
<totfact> 0.36979833E+05</totfact>
</mgrwt>
</event>
<event>
 8    1  0.9974463E-006  0.2969642E+03  0.7546771E-02  0.1086768E+00
         21   -1    0    0  504  503  0.00000000000E+00  0.00000000000E+00  0.11474321760E+03  0.11474321760E+03  0.00000000000E+00 0.  1.
         21   -1    0    0  503  504 -0.00000000000E+00 -0.00000000000E+00 -0.19214153948E+03  0.19214153948E+03  0.00000000000E+00 0.  1.
         25    2    1    2    0    0 -0.14885542995E+02 -0.20310460147E+02  0.39920260779E+02  0.13361035171E+03  0.12499601866E+03 0.  0.
         25    2    1    2    0    0  0.14885542995E+02  0.20310460147E+02 -0.11731858266E+03  0.17327440537E+03  0.12500510204E+03 0.  0.
          5    1    3    3  501    0 -0.51977926436E+02  0.10505025548E+02 -0.19718174005E+02  0.56771091098E+02  0.47000000000E+01 0. -1.
         -5    1    3    3    0  501  0.37092383440E+02 -0.30815485696E+02  0.59638434784E+02  0.76839260612E+02  0.47000000000E+01 0. -1.
          5    1    4    4  502    0  0.42935647673E+01  0.70291498846E+02 -0.92300592659E+02  0.11619302438E+03  0.47000000000E+01 0.  1.
         -5    1    4    4    0  502  0.10591978228E+02 -0.49981038699E+02 -0.25017989999E+02  0.57081380990E+02  0.47000000000E+01 0.  1.
<mgrwt>
<rscale>  0 0.29696423E+03</rscale>
<asrwt>0</asrwt>
<pdfrwt beam="1">  1       21 0.17652803E-01 0.29696423E+03</pdfrwt>
<pdfrwt beam="2">  1       21 0.29560237E-01 0.29696423E+03</pdfrwt>
<totfact> 0.31171015E+05</totfact>
</mgrwt>
</event>
<event>
 8    1  0.9974463E-006  0.2678811E+03  0.7546771E-02  0.1102498E+00
         21   -1    0    0  504  503  0.00000000000E+00  0.00000000000E+00  0.35896939480E+03  0.35896939480E+03  0.00000000000E+00 0. -1.
         21   -1    0    0  503  504 -0.00000000000E+00 -0.00000000000E+00 -0.49976598039E+02  0.49976598039E+02  0.00000000000E+00 0. -1.
         25    2    1    2    0    0  0.12041556681E+02  0.73028470847E+01  0.22471942022E+03  0.25752734023E+03  0.12499272970E+03 0.  0.
         25    2    1    2    0    0 -0.12041556681E+02 -0.73028470847E+01  0.84273376541E+02  0.15141865261E+03  0.12500910248E+03 0.  0.
          5    1    3    3  501    0 -0.55256918793E+00 -0.43591984217E+02  0.18873893447E+03  0.19376542985E+03  0.47000000000E+01 0.  1.
         -5    1    3    3    0  501  0.12594125869E+02  0.50894831302E+02  0.35980485746E+02  0.63761910371E+02  0.47000000000E+01 0.  1.
          5    1    4    4  502    0 -0.20806571289E+01  0.38581021737E+02 -0.14832607381E+02  0.41652378252E+02  0.47000000000E+01 0. -1.
         -5    1    4    4    0  502 -0.99608995522E+01 -0.45883868821E+02  0.99105983922E+02  0.10976627436E+03  0.47000000000E+01 0. -1.
<mgrwt>
<rscale>  0 0.26788109E+03</rscale>
<asrwt>0</asrwt>
<pdfrwt beam="1">  1       21 0.55226059E-01 0.26788109E+03</pdfrwt>
<pdfrwt beam="2">  1       21 0.76887076E-02 0.26788109E+03</pdfrwt>
<totfact> 0.39092039E+05</totfact>
</mgrwt>
</event>
<event>
 8    1  0.9974463E-006  0.2966234E+03  0.7546771E-02  0.1086941E+00
         21   -1    0    0  504  503  0.00000000000E+00  0.00000000000E+00  0.14267344322E+02  0.14267344322E+02  0.00000000000E+00 0.  1.
         21   -1    0    0  503  504 -0.00000000000E+00 -0.00000000000E+00 -0.15417281434E+04  0.15417281434E+04  0.00000000000E+00 0.  1.
         25    2    1    2    0    0 -0.58872519230E+02  0.53825225573E+02 -0.75134131679E+03  0.76583413020E+03  0.12500004893E+03 0.  0.
         25    2    1    2    0    0  0.58872519230E+02 -0.53825225573E+02 -0.77611948227E+03  0.79016135750E+03  0.12502156497E+03 0.  0.
          5    1    3    3  501    0 -0.97171667829E+02  0.29430148294E+02 -0.47558953268E+03  0.48632906581E+03  0.47000000000E+01 0.  1.
         -5    1    3    3    0  501  0.38299148599E+02  0.24395077279E+02 -0.27575178411E+03  0.27950506439E+03  0.47000000000E+01 0.  1.
          5    1    4    4  502    0  0.83237142911E+02 -0.48304939769E+02 -0.73849597078E+03  0.74475511279E+03  0.47000000000E+01 0. -1.
         -5    1    4    4    0  502 -0.24364623681E+02 -0.55202858040E+01 -0.37623511485E+02  0.45406244713E+02  0.47000000000E+01 0. -1.
<mgrwt>
<rscale>  0 0.29662344E+03</rscale>
<asrwt>0</asrwt>
<pdfrwt beam="1">  1       21 0.21949776E-02 0.29662344E+03</pdfrwt>
<pdfrwt beam="2">  1       21 0.23718877E+00 0.29662344E+03</pdfrwt>
<totfact> 0.78937829E+04</totfact>
</mgrwt>
</event>
<event>
 8    1  0.9974463E-006  0.3468011E+03  0.7546771E-02  0.1063936E+00
         21   -1    0    0  504  503  0.00000000000E+00  0.00000000000E+00  0.67885417395E+02  0.67885417395E+02  0.00000000000E+00 0. -1.
         21   -1    0    0  503  504 -0.00000000000E+00 -0.00000000000E+00 -0.44291915883E+03  0.44291915883E+03  0.00000000000E+00 0. -1.
         25    2    1    2    0    0  0.98237059541E+02 -0.54951640630E+02 -0.12549944893E+03  0.20985947297E+03  0.12498273496E+03 0.  0.
         25    2    1    2    0    0 -0.98237059541E+02  0.54951640630E+02 -0.24953429250E+03  0.30094510326E+03  0.12502155559E+03 0.  0.
          5    1    3    3  501    0  0.91109521125E+02 -0.43634723587E+02 -0.15038141154E+03  0.18122249551E+03  0.47000000000E+01 0. -1.
         -5    1    3    3    0  501  0.71275384165E+01 -0.11316917043E+02  0.24881962603E+02  0.28636977463E+02  0.47000000000E+01 0. -1.
          5    1    4    4  502    0 -0.87763137423E+02  0.91187457178E+02 -0.21531548764E+03  0.24980066024E+03  0.47000000000E+01 0. -1.
         -5    1    4    4    0  502 -0.10473922118E+02 -0.36235816548E+02 -0.34218804863E+02  0.51144443018E+02  0.47000000000E+01 0. -1.
<mgrwt>
<rscale>  0 0.34680111E+03</rscale>
<asrwt>0</asrwt>
<pdfrwt beam="1">  1       21 0.10443910E-01 0.34680111E+03</pdfrwt>
<pdfrwt beam="2">  1       21 0.68141411E-01 0.34680111E+03</pdfrwt>
<totfact> 0.14129436E+05</totfact>
</mgrwt>
</event>
<event>
 8    1  0.9974463E-006  0.2725106E+03  0.7546771E-02  0.1099851E+00
         21   -1    0    0  504  503  0.00000000000E+00  0.00000000000E+00  0.10627704102E+03  0.10627704102E+03  0.00000000000E+00 0.  1.
         21   -1    0    0  503  504 -0.00000000000E+00 -0.00000000000E+00 -0.17468966171E+03  0.17468966171E+03  0.00000000000E+00 0.  1.
         25    2    1    2    0    0 -0.38651237877E+01 -0.10476311824E+01  0.21553650411E+02  0.12690699158E+03  0.12499915180E+03 0.  0.
         25    2    1    2    0    0  0.38651237877E+01  0.10476311824E+01 -0.89966271100E+02  0.15405971116E+03  0.12499771180E+03 0.  0.
          5    1    3    3  501    0 -0.38514780526E+02 -0.42127125267E+02 -0.17976417716E+02  0.60027698574E+02  0.47000000000E+01 0. -1.
         -5    1    3    3    0  501  0.34649656738E+02  0.41079494084E+02  0.39530068127E+02  0.66879293002E+02  0.47000000000E+01 0. -1.
          5    1    4    4  502    0 -0.29749879701E+02  0.52156981509E+02 -0.62633921674E+02  0.86893637319E+02  0.47000000000E+01 0.  1.
         -5    1    4    4    0  502  0.33615003488E+02 -0.51109350326E+02 -0.27332349426E+02  0.67166073843E+02  0.47000000000E+01 0.  1.
<mgrwt>
<rscale>  0 0.27251055E+03</rscale>
<asrwt>0</asrwt>
<pdfrwt beam="1">  1       21 0.16350314E-01 0.27251055E+03</pdfrwt>
<pdfrwt beam="2">  1       21 0.26875332E-01 0.27251055E+03</pdfrwt>
<totfact> 0.43479029E+05</totfact>
</mgrwt>
</event>
<event>
 8    1  0.9974463E-006  0.3064556E+03  0.7546771E-02  0.1082057E+00
         21   -1    0    0  504  503  0.00000000000E+00  0.00000000000E+00  0.12682058799E+02  0.12682058799E+02  0.00000000000E+00 0.  1.
         21   -1    0    0  503  504 -0.00000000000E+00 -0.00000000000E+00 -0.18513368953E+04  0.18513368953E+04  0.00000000000E+00 0.  1.
         25    2    1    2    0    0  0.62450485644E+02  0.37595769506E+02 -0.12258201269E+04  0.12343314743E+04  0.12500279949E+03 0.  0.
         25    2    1    2    0    0 -0.62450485644E+02 -0.37595769506E+02 -0.61283470965E+03  0.62968747985E+03  0.12500574343E+03 0.  0.
          5    1    3    3  501    0  0.57078246740E+02 -0.36788983553E+02 -0.48529962511E+03  0.49005017263E+03  0.47000000000E+01 0. -1.
         -5    1    3    3    0  501  0.53722389038E+01  0.74384753060E+02 -0.74052050178E+03  0.74428130166E+03  0.47000000000E+01 0. -1.
          5    1    4    4  502    0 -0.95079598500E+02 -0.52130678872E+02 -0.44766642561E+03  0.46063549185E+03  0.47000000000E+01 0. -1.
         -5    1    4    4    0  502  0.32629112856E+02  0.14534909365E+02 -0.16516828403E+03  0.16905198800E+03  0.47000000000E+01 0. -1.
<mgrwt>
<rscale>  0 0.30645563E+03</rscale>
<asrwt>0</asrwt>
<pdfrwt beam="1">  1       21 0.19510876E-02 0.30645563E+03</pdfrwt>
<pdfrwt beam="2">  1       21 0.28482083E+00 0.30645563E+03</pdfrwt>
<totfact> 0.49482020E+04</totfact>
</mgrwt>
</event>
<event>
 8    1  0.9974463E-006  0.3098750E+03  0.7546771E-02  0.1080406E+00
         21   -1    0    0  504  503  0.00000000000E+00  0.00000000000E+00  0.10147094755E+03  0.10147094755E+03  0.00000000000E+00 0. -1.
         21   -1    0    0  503  504 -0.00000000000E+00 -0.00000000000E+00 -0.23657632630E+03  0.23657632630E+03  0.00000000000E+00 0. -1.
         25    2    1    2    0    0 -0.20181322955E+02  0.71212696797E+02 -0.87741094679E+01  0.14553369355E+03  0.12499814790E+03 0.  0.
         25    2    1    2    0    0  0.20181322955E+02 -0.71212696797E+02 -0.12633126928E+03  0.19251358030E+03  0.12499341991E+03 0.  0.
          5    1    3    3  501    0 -0.66268050889E+02  0.13786679963E+02  0.11954255286E+02  0.68895002232E+02  0.47000000000E+01 0.  1.
         -5    1    3    3    0  501  0.46086727934E+02  0.57426016834E+02 -0.20728364754E+02  0.76638691315E+02  0.47000000000E+01 0.  1.
          5    1    4    4  502    0 -0.38009376189E+00  0.26759084807E+02 -0.75300127526E+02  0.80052434669E+02  0.47000000000E+01 0. -1.
         -5    1    4    4    0  502  0.20561416717E+02 -0.97971781604E+02 -0.51031141753E+02  0.11246114563E+03  0.47000000000E+01 0. -1.
<mgrwt>
<rscale>  0 0.30987497E+03</rscale>
<asrwt>0</asrwt>
<pdfrwt beam="1">  1       21 0.15610915E-01 0.30987497E+03</pdfrwt>
<pdfrwt beam="2">  1       21 0.36396358E-01 0.30987497E+03</pdfrwt>
<totfact> 0.25812317E+05</totfact>
</mgrwt>
</event>
<event>
 8    1  0.9974463E-006  0.3075732E+03  0.7546771E-02  0.1081515E+00
         21   -1    0    0  504  503  0.00000000000E+00  0.00000000000E+00  0.10514172338E+03  0.10514172338E+03  0.00000000000E+00 0.  1.
         21   -1    0    0  503  504 -0.00000000000E+00 -0.00000000000E+00 -0.22493754993E+03  0.22493754993E+03  0.00000000000E+00 0.  1.
         25    2    1    2    0    0 -0.18586309620E+02  0.50258340485E+02  0.17145124323E+02  0.13707803723E+03  0.12500032524E+03 0.  0.
         25    2    1    2    0    0  0.18586309620E+02 -0.50258340485E+02 -0.13694095087E+03  0.19300123607E+03  0.12500120562E+03 0.  0.
          5    1    3    3  501    0 -0.47194450420E+02  0.17680981953E+02  0.58236432601E+02  0.77158961601E+02  0.47000000000E+01 0. -1.
         -5    1    3    3    0  501  0.28608140799E+02  0.32577358531E+02 -0.41091308278E+02  0.59919075634E+02  0.47000000000E+01 0. -1.
          5    1    4    4  502    0  0.28955430849E+02 -0.45094940273E+02  0.16751998047E+01  0.53822550183E+02  0.47000000000E+01 0.  1.
         -5    1    4    4    0  502 -0.10369121228E+02 -0.51634002121E+01 -0.13861615068E+03  0.13917868589E+03  0.47000000000E+01 0.  1.
<mgrwt>
<rscale>  0 0.30757322E+03</rscale>
<asrwt>0</asrwt>
<pdfrwt beam="1">  1       21 0.16175650E-01 0.30757322E+03</pdfrwt>
<pdfrwt beam="2">  1       21 0.34605777E-01 0.30757322E+03</pdfrwt>
<totfact> 0.26763071E+05</totfact>
</mgrwt>
</event>
<event>
 8    1  0.9974463E-006  0.2830535E+03  0.7546771E-02  0.1094033E+00
         21   -1    0    0  504  503  0.00000000000E+00  0.00000000000E+00  0.50200939787E+02  0.50200939787E+02  0.00000000000E+00 0.  1.
         21   -1    0    0  503  504 -0.00000000000E+00 -0.00000000000E+00 -0.39899281331E+03  0.39899281331E+03  0.00000000000E+00 0.  1.
         25    2    1    2    0    0  0.51566775974E+02  0.20194802883E+02 -0.11633931136E+03  0.17951851822E+03  0.12500040227E+03 0.  0.
         25    2    1    2    0    0 -0.51566775974E+02 -0.20194802883E+02 -0.23245256216E+03  0.26967523488E+03  0.12499430469E+03 0.  0.
          5    1    3    3  501    0  0.69540427599E+02  0.27554837508E+02 -0.15263884532E+02  0.76486706765E+02  0.47000000000E+01 0. -1.
         -5    1    3    3    0  501 -0.17973651625E+02 -0.73600346246E+01 -0.10107542683E+03  0.10303181146E+03  0.47000000000E+01 0. -1.
          5    1    4    4  502    0 -0.27082839941E+02 -0.59953633243E+02 -0.54257494442E+02  0.85404239130E+02  0.47000000000E+01 0. -1.
         -5    1    4    4    0  502 -0.24483936032E+02  0.39758830360E+02 -0.17819506772E+03  0.18427099575E+03  0.47000000000E+01 0. -1.
<mgrwt>
<rscale>  0 0.28305345E+03</rscale>
<asrwt>0</asrwt>
<pdfrwt beam="1">  1       21 0.77232214E-02 0.28305345E+03</pdfrwt>
<pdfrwt beam="2">  1       21 0.61383511E-01 0.28305345E+03</pdfrwt>
<totfact> 0.30788673E+05</totfact>
</mgrwt>
</event>
<event>
 8    1  0.9974463E-006  0.2741459E+03  0.7546771E-02  0.1098930E+00
         21   -1    0    0  504  503  0.00000000000E+00  0.00000000000E+00  0.32583646142E+03  0.32583646142E+03  0.00000000000E+00 0. -1.
         21   -1    0    0  503  504 -0.00000000000E+00 -0.00000000000E+00 -0.57663873583E+02  0.57663873583E+02  0.00000000000E+00 0. -1.
         25    2    1    2    0    0  0.10015067528E+02 -0.35696048470E+02  0.74926273375E+02  0.15038464895E+03  0.12500834670E+03 0.  0.
         25    2    1    2    0    0 -0.10015067528E+02  0.35696048470E+02  0.19324631446E+03  0.23311568605E+03  0.12499710227E+03 0.  0.
          5    1    3    3  501    0  0.44685829493E+02 -0.50963402664E+02  0.86963664028E+02  0.11035787525E+03  0.47000000000E+01 0.  1.
         -5    1    3    3    0  501 -0.34670761965E+02  0.15267354194E+02 -0.12037390652E+02  0.40026773702E+02  0.47000000000E+01 0.  1.
          5    1    4    4  502    0 -0.16619360490E+02 -0.45327225863E+02  0.81623446618E+02  0.94948604967E+02  0.47000000000E+01 0. -1.
         -5    1    4    4    0  502  0.66042929616E+01  0.81023274333E+02  0.11162286784E+03  0.13816708108E+03  0.47000000000E+01 0. -1.
<mgrwt>
<rscale>  0 0.27414589E+03</rscale>
<asrwt>0</asrwt>
<pdfrwt beam="1">  1       21 0.50128685E-01 0.27414589E+03</pdfrwt>
<pdfrwt beam="2">  1       21 0.88713654E-02 0.27414589E+03</pdfrwt>
<totfact> 0.37279772E+05</totfact>
</mgrwt>
</event>
<event>
 8    1  0.9974463E-006  0.4431277E+03  0.7546771E-02  0.1029791E+00
         21   -1    0    0  504  503  0.00000000000E+00  0.00000000000E+00  0.42773842123E+03  0.42773842123E+03  0.00000000000E+00 0. -1.
         21   -1    0    0  503  504 -0.00000000000E+00 -0.00000000000E+00 -0.11476766326E+03  0.11476766326E+03  0.00000000000E+00 0. -1.
         25    2    1    2    0    0  0.32815572126E+02  0.14899545656E+03  0.28004405868E+03  0.34254249217E+03  0.12503669977E+03 0.  0.
         25    2    1    2    0    0 -0.32815572126E+02 -0.14899545656E+03  0.32926699296E+02  0.19996359233E+03  0.12499905152E+03 0.  0.
          5    1    3    3  501    0 -0.95957990444E+01  0.12672157502E+03  0.11793922189E+03  0.17344217190E+03  0.47000000000E+01 0.  1.
         -5    1    3    3    0  501  0.42411371170E+02  0.22273881541E+02  0.16210483679E+03  0.16910032027E+03  0.47000000000E+01 0.  1.
          5    1    4    4  502    0 -0.57125173242E+02 -0.76278276907E+02  0.66323951990E+02  0.11620076400E+03  0.47000000000E+01 0.  1.
         -5    1    4    4    0  502  0.24309601117E+02 -0.72717179651E+02 -0.33397252694E+02  0.83762828333E+02  0.47000000000E+01 0.  1.
<mgrwt>
<rscale>  0 0.44312770E+03</rscale>
<asrwt>0</asrwt>
<pdfrwt beam="1">  1       21 0.65805910E-01 0.44312770E+03</pdfrwt>
<pdfrwt beam="2">  1       21 0.17656564E-01 0.44312770E+03</pdfrwt>
<totfact> 0.57016815E+04</totfact>
</mgrwt>
</event>
<event>
 8    1  0.9974463E-006  0.2651263E+03  0.7546771E-02  0.1104102E+00
         21   -1    0    0  504  503  0.00000000000E+00  0.00000000000E+00  0.87299364754E+02  0.87299364754E+02  0.00000000000E+00 0. -1.
         21   -1    0    0  503  504 -0.00000000000E+00 -0.00000000000E+00 -0.20129573491E+03  0.20129573491E+03  0.00000000000E+00 0. -1.
         25    2    1    2    0    0 -0.11551857816E+02  0.38251397217E+02 -0.77302482884E+02  0.15231064710E+03  0.12500497811E+03 0.  0.
         25    2    1    2    0    0  0.11551857816E+02 -0.38251397217E+02 -0.36693887273E+02  0.13628445256E+03  0.12502158149E+03 0.  0.
          5    1    3    3  501    0 -0.13488046562E+01 -0.17740879238E+02  0.27423601534E+02  0.33025777678E+02  0.47000000000E+01 0. -1.
         -5    1    3    3    0  501 -0.10203053160E+02  0.55992276455E+02 -0.10472608442E+03  0.11928486943E+03  0.47000000000E+01 0. -1.
          5    1    4    4  502    0  0.63986883879E+02 -0.15514515417E+02  0.37452352561E+01  0.66114584505E+02  0.47000000000E+01 0. -1.
         -5    1    4    4    0  502 -0.52435026063E+02 -0.22736881800E+02 -0.40439122529E+02  0.70169868057E+02  0.47000000000E+01 0. -1.
<mgrwt>
<rscale>  0 0.26512631E+03</rscale>
<asrwt>0</asrwt>
<pdfrwt beam="1">  1       21 0.13430672E-01 0.26512631E+03</pdfrwt>
<pdfrwt beam="2">  1       21 0.30968574E-01 0.26512631E+03</pdfrwt>
<totfact> 0.47319703E+05</totfact>
</mgrwt>
</event>
<event>
 8    1  0.9974463E-006  0.3598133E+03  0.7546771E-02  0.1058658E+00
         21   -1    0    0  504  503  0.00000000000E+00  0.00000000000E+00  0.94240105470E+02  0.94240105470E+02  0.00000000000E+00 0. -1.
         21   -1    0    0  503  504 -0.00000000000E+00 -0.00000000000E+00 -0.34344625573E+03  0.34344625573E+03  0.00000000000E+00 0. -1.
         25    2    1    2    0    0  0.52366752841E+02 -0.78402390878E+01 -0.26822643962E+03  0.30062473141E+03  0.12500424022E+03 0.  0.
         25    2    1    2    0    0 -0.52366752841E+02  0.78402390878E+01  0.19020289364E+02  0.13706162978E+03  0.12498148983E+03 0.  0.
          5    1    3    3  501    0  0.38737099418E+02 -0.13496763506E+02 -0.10727164618E+02  0.42660140145E+02  0.47000000000E+01 0.  1.
         -5    1    3    3    0  501  0.13629653422E+02  0.56565244180E+01 -0.25749927500E+03  0.25796459127E+03  0.47000000000E+01 0.  1.
          5    1    4    4  502    0 -0.25783437222E+02  0.64947478526E+02 -0.31781434833E+01  0.70108139312E+02  0.47000000000E+01 0.  1.
         -5    1    4    4    0  502 -0.26583315619E+02 -0.57107239438E+02  0.22198432847E+02  0.66953490472E+02  0.47000000000E+01 0.  1.
<mgrwt>
<rscale>  0 0.35981335E+03</rscale>
<asrwt>0</asrwt>
<pdfrwt beam="1">  1       21 0.14498478E-01 0.35981335E+03</pdfrwt>
<pdfrwt beam="2">  1       21 0.52837885E-01 0.35981335E+03</pdfrwt>
<totfact> 0.13514165E+05</totfact>
</mgrwt>
</event>
<event>
 8    1  0.9974463E-006  0.2589121E+03  0.7546771E-02  0.1107799E+00
         21   -1    0    0  504  503  0.00000000000E+00  0.00000000000E+00  0.55082028784E+03  0.55082028784E+03  0.00000000000E+00 0. -1.
         21   -1    0    0  503  504 -0.00000000000E+00 -0.00000000000E+00 -0.30425285668E+02  0.30425285668E+02  0.00000000000E+00 0. -1.
         25    2    1    2    0    0 -0.28485459067E+02  0.23228019489E+00  0.29995930385E+03  0.32623774865E+03  0.12507601425E+03 0.  0.
         25    2    1    2    0    0  0.28485459067E+02 -0.23228019489E+00  0.22043569832E+03  0.25500782486E+03  0.12500247324E+03 0.  0.
          5    1    3    3  501    0 -0.63035985065E+02  0.40316434511E+02  0.16703318800E+03  0.18308775545E+03  0.47000000000E+01 0. -1.
         -5    1    3    3    0  501  0.34550525997E+02 -0.40084154316E+02  0.13292611586E+03  0.14314999319E+03  0.47000000000E+01 0. -1.
          5    1    4    4  502    0  0.57536679570E+02 -0.16627308868E+02  0.21190596754E+03  0.22025704523E+03  0.47000000000E+01 0. -1.
         -5    1    4    4    0  502 -0.29051220502E+02  0.16395028673E+02  0.85297307820E+01  0.34750779633E+02  0.47000000000E+01 0. -1.
<mgrwt>
<rscale>  0 0.25891207E+03</rscale>
<asrwt>0</asrwt>
<pdfrwt beam="1">  1       21 0.84741575E-01 0.25891207E+03</pdfrwt>
<pdfrwt beam="2">  1       21 0.46808136E-02 0.25891207E+03</pdfrwt>
<totfact> 0.35685037E+05</totfact>
</mgrwt>
</event>
<event>
 8    1  0.9974463E-006  0.2674340E+03  0.7546771E-02  0.1102757E+00
         21   -1    0    0  504  503  0.00000000000E+00  0.00000000000E+00  0.44670357530E+03  0.44670357530E+03  0.00000000000E+00 0. -1.
         21   -1    0    0  503  504 -0.00000000000E+00 -0.00000000000E+00 -0.40027068567E+02  0.40027068567E+02  0.00000000000E+00 0. -1.
         25    2    1    2    0    0  0.11490028305E+02 -0.39747490008E+02  0.16090792017E+03  0.20791469265E+03  0.12500110773E+03 0.  0.
         25    2    1    2    0    0 -0.11490028305E+02  0.39747490008E+02  0.24576858656E+03  0.27881595122E+03  0.12499701116E+03 0.  0.
          5    1    3    3  501    0 -0.32536481009E+02 -0.24649917579E+02  0.78341226563E+00  0.41096773205E+02  0.47000000000E+01 0. -1.
         -5    1    3    3    0  501  0.44026509314E+02 -0.15097572429E+02  0.16012450790E+03  0.16681791944E+03  0.47000000000E+01 0. -1.
          5    1    4    4  502    0  0.17175819912E+02 -0.14130170157E+02 -0.27246246686E+01  0.22895066672E+02  0.47000000000E+01 0.  1.
         -5    1    4    4    0  502 -0.28665848217E+02  0.53877660165E+02  0.24849321123E+03  0.25592088454E+03  0.47000000000E+01 0.  1.
<mgrwt>
<rscale>  0 0.26743399E+03</rscale>
<asrwt>0</asrwt>
<pdfrwt beam="1">  1       21 0.68723624E-01 0.26743399E+03</pdfrwt>
<pdfrwt beam="2">  1       21 0.61580108E-02 0.26743399E+03</pdfrwt>
<totfact> 0.35740794E+05</totfact>
</mgrwt>
</event>
<event>
 8    1  0.9974463E-006  0.3086615E+03  0.7546771E-02  0.1080989E+00
         21   -1    0    0  504  503  0.00000000000E+00  0.00000000000E+00  0.57625593808E+03  0.57625593808E+03  0.00000000000E+00 0. -1.
         21   -1    0    0  503  504 -0.00000000000E+00 -0.00000000000E+00 -0.41332295823E+02  0.41332295823E+02  0.00000000000E+00 0. -1.
         25    2    1    2    0    0  0.39167160071E+02  0.73148216336E+02  0.19505054715E+03  0.24607808929E+03  0.12499992841E+03 0.  0.
         25    2    1    2    0    0 -0.39167160071E+02 -0.73148216336E+02  0.33987309511E+03  0.37151014462E+03  0.12498535432E+03 0.  0.
          5    1    3    3  501    0  0.33789040442E+02 -0.18623932976E+02  0.12355613997E+03  0.12952513215E+03  0.47000000000E+01 0. -1.
         -5    1    3    3    0  501  0.53781196284E+01  0.91772149312E+02  0.71494407180E+02  0.11655295714E+03  0.47000000000E+01 0. -1.
          5    1    4    4  502    0 -0.83375924364E+02 -0.62490486481E+02  0.23711333082E+03  0.25903943198E+03  0.47000000000E+01 0. -1.
         -5    1    4    4    0  502  0.44208764293E+02 -0.10657729855E+02  0.10275976429E+03  0.11247071264E+03  0.47000000000E+01 0. -1.
<mgrwt>
<rscale>  0 0.30866150E+03</rscale>
<asrwt>0</asrwt>
<pdfrwt beam="1">  1       21 0.88654754E-01 0.30866150E+03</pdfrwt>
<pdfrwt beam="2">  1       21 0.63588151E-02 0.30866150E+03</pdfrwt>
<totfact> 0.18767673E+05</totfact>
</mgrwt>
</event>
<event>
 8    1  0.9974463E-006  0.3119354E+03  0.7546771E-02  0.1079422E+00
         21   -1    0    0  504  503  0.00000000000E+00  0.00000000000E+00  0.52887010989E+02  0.52887010989E+02  0.00000000000E+00 0. -1.
         21   -1    0    0  503  504 -0.00000000000E+00 -0.00000000000E+00 -0.45996038423E+03  0.45996038423E+03  0.00000000000E+00 0. -1.
         25    2    1    2    0    0  0.57532292617E+02  0.37305622838E+00 -0.82810092598E+02  0.16059659901E+03  0.12499460914E+03 0.  0.
         25    2    1    2    0    0 -0.57532292617E+02 -0.37305622838E+00 -0.32426328065E+03  0.35225079621E+03  0.12499537747E+03 0.  0.
          5    1    3    3  501    0  0.50547357903E+02 -0.47172691025E+02 -0.88025143549E+02  0.11203041581E+03  0.47000000000E+01 0.  1.
         -5    1    3    3    0  501  0.69849347138E+01  0.47545747253E+02  0.52150509511E+01  0.48566183206E+02  0.47000000000E+01 0.  1.
          5    1    4    4  502    0  0.24493644344E+02  0.37760475597E+02 -0.82837119547E+02  0.94392110398E+02  0.47000000000E+01 0.  1.
         -5    1    4    4    0  502 -0.82025936961E+02 -0.38133531825E+02 -0.24142616110E+03  0.25785868581E+03  0.47000000000E+01 0.  1.
<mgrwt>
<rscale>  0 0.31193544E+03</rscale>
<asrwt>0</asrwt>
<pdfrwt beam="1">  1       21 0.81364632E-02 0.31193544E+03</pdfrwt>
<pdfrwt beam="2">  1       21 0.70763136E-01 0.31193544E+03</pdfrwt>
<totfact> 0.20402018E+05</totfact>
</mgrwt>
</event>
<event>
 8    1  0.9974463E-006  0.3419672E+03  0.7546771E-02  0.1065961E+00
         21   -1    0    0  504  503  0.00000000000E+00  0.00000000000E+00  0.64059629799E+03  0.64059629799E+03  0.00000000000E+00 0. -1.
         21   -1    0    0  503  504 -0.00000000000E+00 -0.00000000000E+00 -0.45637790073E+02  0.45637790073E+02  0.00000000000E+00 0. -1.
         25    2    1    2    0    0  0.41277498826E+02 -0.10729223467E+03  0.33724702505E+03  0.37759163743E+03  0.12499773287E+03 0.  0.
         25    2    1    2    0    0 -0.41277498826E+02  0.10729223467E+03  0.25771148287E+03  0.30864245064E+03  0.12501799232E+03 0.  0.
          5    1    3    3  501    0  0.42976175017E+02 -0.12947081873E+02  0.23120104184E+03  0.23556440796E+03  0.47000000000E+01 0.  1.
         -5    1    3    3    0  501 -0.16986761917E+01 -0.94345152793E+02  0.10604598321E+03  0.14202722947E+03  0.47000000000E+01 0.  1.
          5    1    4    4  502    0 -0.11387893347E+02  0.89135856340E+02  0.25811867645E+03  0.27335366494E+03  0.47000000000E+01 0. -1.
         -5    1    4    4    0  502 -0.29889605479E+02  0.18156378326E+02 -0.40719358480E+00  0.35288785700E+02  0.47000000000E+01 0. -1.
<mgrwt>
<rscale>  0 0.34196725E+03</rscale>
<asrwt>0</asrwt>
<pdfrwt beam="1">  1       21 0.98553271E-01 0.34196725E+03</pdfrwt>
<pdfrwt beam="2">  1       21 0.70211989E-02 0.34196725E+03</pdfrwt>
<totfact> 0.12191278E+05</totfact>
</mgrwt>
</event>
<event>
 8    1  0.9974463E-006  0.2771293E+03  0.7546771E-02  0.1097267E+00
         21   -1    0    0  504  503  0.00000000000E+00  0.00000000000E+00  0.17361948725E+02  0.17361948725E+02  0.00000000000E+00 0.  1.
         21   -1    0    0  503  504 -0.00000000000E+00 -0.00000000000E+00 -0.11058757829E+04  0.11058757829E+04  0.00000000000E+00 0.  1.
         25    2    1    2    0    0  0.90216512619E+01  0.80707152858E+01 -0.78154696111E+03  0.79157327646E+03  0.12500429176E+03 0.  0.
         25    2    1    2    0    0 -0.90216512619E+01 -0.80707152858E+01 -0.30696687311E+03  0.33166445520E+03  0.12500449201E+03 0.  0.
          5    1    3    3  501    0  0.42116325446E+02  0.52880816608E+02 -0.35851066812E+03  0.36485908895E+03  0.47000000000E+01 0.  1.
         -5    1    3    3    0  501 -0.33094674184E+02 -0.44810101322E+02 -0.42303629299E+03  0.42671418751E+03  0.47000000000E+01 0.  1.
          5    1    4    4  502    0  0.48244744461E+02  0.21519529132E+02 -0.19792907599E+03  0.20491133357E+03  0.47000000000E+01 0.  1.
         -5    1    4    4    0  502 -0.57266395723E+02 -0.29590244417E+02 -0.10903779712E+03  0.12675312164E+03  0.47000000000E+01 0.  1.
<mgrwt>
<rscale>  0 0.27712927E+03</rscale>
<asrwt>0</asrwt>
<pdfrwt beam="1">  1       21 0.26710686E-02 0.27712927E+03</pdfrwt>
<pdfrwt beam="2">  1       21 0.17013477E+00 0.27712927E+03</pdfrwt>
<totfact> 0.15758963E+05</totfact>
</mgrwt>
</event>
<event>
 8    1  0.9974463E-006  0.3357396E+03  0.7546771E-02  0.1068625E+00
         21   -1    0    0  504  503  0.00000000000E+00  0.00000000000E+00  0.25822402684E+03  0.25822402684E+03  0.00000000000E+00 0.  1.
         21   -1    0    0  503  504 -0.00000000000E+00 -0.00000000000E+00 -0.10913106825E+03  0.10913106825E+03  0.00000000000E+00 0.  1.
         25    2    1    2    0    0 -0.18848979002E+02  0.10760358602E+03  0.47283458796E+02  0.17261515325E+03  0.12500579956E+03 0.  0.
         25    2    1    2    0    0  0.18848979002E+02 -0.10760358602E+03  0.10180949979E+03  0.19473994185E+03  0.12499861987E+03 0.  0.
          5    1    3    3  501    0 -0.65865497762E+01  0.15818564761E+02 -0.40940066592E+02  0.44629459795E+02  0.47000000000E+01 0.  1.
         -5    1    3    3    0  501 -0.12262429226E+02  0.91785021257E+02  0.88223525388E+02  0.12798569346E+03  0.47000000000E+01 0.  1.
          5    1    4    4  502    0  0.22042556866E+02 -0.55135005346E+02 -0.19315177859E+02  0.62617163968E+02  0.47000000000E+01 0. -1.
         -5    1    4    4    0  502 -0.31935778642E+01 -0.52468580671E+02  0.12112467765E+03  0.13212277788E+03  0.47000000000E+01 0. -1.
<mgrwt>
<rscale>  0 0.33573957E+03</rscale>
<asrwt>0</asrwt>
<pdfrwt beam="1">  1       21 0.39726773E-01 0.33573957E+03</pdfrwt>
<pdfrwt beam="2">  1       21 0.16789395E-01 0.33573957E+03</pdfrwt>
<totfact> 0.18782799E+05</totfact>
</mgrwt>
</event>
<event>
 8    1  0.9974463E-006  0.3545041E+03  0.7546771E-02  0.1060781E+00
         21   -1    0    0  504  503  0.00000000000E+00  0.00000000000E+00  0.11261490374E+04  0.11261490374E+04  0.00000000000E+00 0. -1.
         21   -1    0    0  503  504 -0.00000000000E+00 -0.00000000000E+00 -0.27898872388E+02  0.27898872388E+02  0.00000000000E+00 0. -1.
         25    2    1    2    0    0 -0.26133650755E+02 -0.76557780846E+02  0.23603289623E+03  0.27906925536E+03  0.12499623864E+03 0.  0.
         25    2    1    2    0    0  0.26133650755E+02  0.76557780846E+02  0.86221726883E+03  0.87497865447E+03  0.12499986245E+03 0.  0.
          5    1    3    3  501    0 -0.73592925193E+01  0.32866914016E+02  0.31781314499E+02  0.46546054340E+02  0.47000000000E+01 0. -1.
         -5    1    3    3    0  501 -0.18774358236E+02 -0.10942469486E+03  0.20425158173E+03  0.23252320102E+03  0.47000000000E+01 0. -1.
          5    1    4    4  502    0  0.59060938221E+02  0.86452853203E+02  0.75615578171E+03  0.76338453381E+03  0.47000000000E+01 0.  1.
         -5    1    4    4    0  502 -0.32927287466E+02 -0.98950723565E+01  0.10606148712E+03  0.11159412066E+03  0.47000000000E+01 0.  1.
<mgrwt>
<rscale>  0 0.35450409E+03</rscale>
<asrwt>0</asrwt>
<pdfrwt beam="1">  1       21 0.17325366E+00 0.35450409E+03</pdfrwt>
<pdfrwt beam="2">  1       21 0.42921351E-02 0.35450409E+03</pdfrwt>
<totfact> 0.65715884E+04</totfact>
</mgrwt>
</event>
<event>
 8    1  0.9974463E-006  0.4524516E+03  0.7546771E-02  0.1026993E+00
         21   -1    0    0  504  503  0.00000000000E+00  0.00000000000E+00  0.88691706430E+03  0.88691706430E+03  0.00000000000E+00 0.  1.
         21   -1    0    0  503  504 -0.00000000000E+00 -0.00000000000E+00 -0.57703378143E+02  0.57703378143E+02  0.00000000000E+00 0.  1.
         25    2    1    2    0    0 -0.14596824798E+03 -0.51938274724E+02  0.63896588666E+03  0.66925713450E+03  0.12499357571E+03 0.  0.
         25    2    1    2    0    0  0.14596824798E+03  0.51938274724E+02  0.19024779949E+03  0.27536330794E+03  0.12500564926E+03 0.  0.
          5    1    3    3  501    0 -0.89217642671E+02 -0.79337593804E+02  0.27484648978E+03  0.29969471883E+03  0.47000000000E+01 0.  1.
         -5    1    3    3    0  501 -0.56750605305E+02  0.27399319080E+02  0.36411939688E+03  0.36956241567E+03  0.47000000000E+01 0.  1.
          5    1    4    4  502    0  0.10957900975E+03  0.80529983382E+02  0.85369107174E+02  0.16063191482E+03  0.47000000000E+01 0.  1.
         -5    1    4    4    0  502  0.36389238230E+02 -0.28591708657E+02  0.10487869232E+03  0.11473139311E+03  0.47000000000E+01 0.  1.
<mgrwt>
<rscale>  0 0.45245159E+03</rscale>
<asrwt>0</asrwt>
<pdfrwt beam="1">  1       21 0.13644877E+00 0.45245159E+03</pdfrwt>
<pdfrwt beam="2">  1       21 0.88774435E-02 0.45245159E+03</pdfrwt>
<totfact> 0.34608523E+04</totfact>
</mgrwt>
</event>
<event>
 8    1  0.9974463E-006  0.2632964E+03  0.7546771E-02  0.1105179E+00
         21   -1    0    0  504  503  0.00000000000E+00  0.00000000000E+00  0.64138086249E+03  0.64138086249E+03  0.00000000000E+00 0.  1.
         21   -1    0    0  503  504 -0.00000000000E+00 -0.00000000000E+00 -0.27021763815E+02  0.27021763815E+02  0.00000000000E+00 0.  1.
         25    2    1    2    0    0 -0.41174627359E+02 -0.24451946036E+01  0.31262060916E+03  0.33920244847E+03  0.12500130745E+03 0.  0.
         25    2    1    2    0    0  0.41174627359E+02  0.24451946036E+01  0.30173848951E+03  0.32920017783E+03  0.12500124846E+03 0.  0.
          5    1    3    3  501    0 -0.55738686554E+01 -0.47307014544E+02  0.45742477522E+02  0.66207898975E+02  0.47000000000E+01 0.  1.
         -5    1    3    3    0  501 -0.35600758704E+02  0.44861819940E+02  0.26687813164E+03  0.27299454950E+03  0.47000000000E+01 0.  1.
          5    1    4    4  502    0 -0.44040141717E+02  0.11629362501E+02  0.10408220162E+03  0.11371002968E+03  0.47000000000E+01 0.  1.
         -5    1    4    4    0  502  0.85214769076E+02 -0.91841678969E+01  0.19765628789E+03  0.21549014815E+03  0.47000000000E+01 0.  1.
<mgrwt>
<rscale>  0 0.26329635E+03</rscale>
<asrwt>0</asrwt>
<pdfrwt beam="1">  1       21 0.98673967E-01 0.26329635E+03</pdfrwt>
<pdfrwt beam="2">  1       21 0.41571949E-02 0.26329635E+03</pdfrwt>
<totfact> 0.30516786E+05</totfact>
</mgrwt>
</event>
<event>
 8    1  0.9974463E-006  0.6032346E+03  0.7546771E-02  0.9898718E-01
         21   -1    0    0  504  503  0.00000000000E+00  0.00000000000E+00  0.28753312526E+03  0.28753312526E+03  0.00000000000E+00 0.  1.
         21   -1    0    0  503  504 -0.00000000000E+00 -0.00000000000E+00 -0.31639133458E+03  0.31639133458E+03  0.00000000000E+00 0.  1.
         25    2    1    2    0    0  0.10853083084E+03 -0.22447329206E+03 -0.12935127052E+03  0.30745592664E+03  0.12502078047E+03 0.  0.
         25    2    1    2    0    0 -0.10853083084E+03  0.22447329206E+03  0.10049306121E+03  0.29646853319E+03  0.12501014251E+03 0.  0.
          5    1    3    3  501    0  0.56307505619E+02 -0.21262803287E+03 -0.78882727802E+02  0.23372160854E+03  0.47000000000E+01 0. -1.
         -5    1    3    3    0  501  0.52223325219E+02 -0.11845259194E+02 -0.50468542721E+02  0.73734318107E+02  0.47000000000E+01 0. -1.
          5    1    4    4  502    0  0.18226670042E+02 -0.20918556442E+01  0.33339930409E+01  0.19229999231E+02  0.47000000000E+01 0. -1.
         -5    1    4    4    0  502 -0.12675750088E+03  0.22656514771E+03  0.97159068165E+02  0.27723853396E+03  0.47000000000E+01 0. -1.
<mgrwt>
<rscale>  0 0.60323458E+03</rscale>
<asrwt>0</asrwt>
<pdfrwt beam="1">  1       21 0.44235865E-01 0.60323458E+03</pdfrwt>
<pdfrwt beam="2">  1       21 0.48675590E-01 0.60323458E+03</pdfrwt>
<totfact> 0.17243484E+04</totfact>
</mgrwt>
</event>
<event>
 8    1  0.9974463E-006  0.3033373E+03  0.7546771E-02  0.1083584E+00
         21   -1    0    0  504  503  0.00000000000E+00  0.00000000000E+00  0.35549226125E+03  0.35549226125E+03  0.00000000000E+00 0. -1.
         21   -1    0    0  503  504 -0.00000000000E+00 -0.00000000000E+00 -0.64708527075E+02  0.64708527075E+02  0.00000000000E+00 0. -1.
         25    2    1    2    0    0  0.26130612093E+01  0.31346267959E+02  0.25618249337E+03  0.28678097852E+03  0.12499777251E+03 0.  0.
         25    2    1    2    0    0 -0.26130612093E+01 -0.31346267959E+02  0.34601240807E+02  0.13341980980E+03  0.12495672522E+03 0.  0.
          5    1    3    3  501    0  0.41259319745E+02 -0.16629986152E+02  0.19412107630E+03  0.19920835869E+03  0.47000000000E+01 0. -1.
         -5    1    3    3    0  501 -0.38646258536E+02  0.47976254111E+02  0.62061417062E+02  0.87572619837E+02  0.47000000000E+01 0. -1.
          5    1    4    4  502    0  0.59649754347E+02 -0.12507262494E+02  0.36732664653E+01  0.61238122891E+02  0.47000000000E+01 0.  1.
         -5    1    4    4    0  502 -0.62262815556E+02 -0.18839005465E+02  0.30927974341E+02  0.72181686907E+02  0.47000000000E+01 0.  1.
<mgrwt>
<rscale>  0 0.30333731E+03</rscale>
<asrwt>0</asrwt>
<pdfrwt beam="1">  1       21 0.54691116E-01 0.30333731E+03</pdfrwt>
<pdfrwt beam="2">  1       21 0.99551582E-02 0.30333731E+03</pdfrwt>
<totfact> 0.25107670E+05</totfact>
</mgrwt>
</event>
<event>
 8    1  0.9974463E-006  0.2712089E+03  0.7546771E-02  0.1100590E+00
         21   -1    0    0  504  503  0.00000000000E+00  0.00000000000E+00  0.10811355445E+03  0.10811355445E+03  0.00000000000E+00 0.  1.
         21   -1    0    0  503  504 -0.00000000000E+00 -0.00000000000E+00 -0.17008570192E+03  0.17008570192E+03  0.00000000000E+00 0.  1.
         25    2    1    2    0    0 -0.51284912786E+02 -0.71917995629E+01 -0.21745547017E+02  0.13704545910E+03  0.12500689895E+03 0.  0.
         25    2    1    2    0    0  0.51284912786E+02  0.71917995629E+01 -0.40226600456E+02  0.14115379728E+03  0.12499740334E+03 0.  0.
          5    1    3    3  501    0 -0.53636136351E+02  0.47630757406E+02  0.11373611476E+02  0.72780307857E+02  0.47000000000E+01 0.  1.
         -5    1    3    3    0  501  0.23512235645E+01 -0.54822556969E+02 -0.33119158493E+02  0.64265151242E+02  0.47000000000E+01 0.  1.
          5    1    4    4  502    0 -0.24445627719E+02 -0.12879507870E+02 -0.54589577467E+02  0.61364341482E+02  0.47000000000E+01 0.  1.
         -5    1    4    4    0  502  0.75730540506E+02  0.20071307432E+02  0.14362977011E+02  0.79789455794E+02  0.47000000000E+01 0.  1.
<mgrwt>
<rscale>  0 0.27120892E+03</rscale>
<asrwt>0</asrwt>
<pdfrwt beam="1">  1       21 0.16632855E-01 0.27120892E+03</pdfrwt>
<pdfrwt beam="2">  1       21 0.26167031E-01 0.27120892E+03</pdfrwt>
<totfact> 0.44369043E+05</totfact>
</mgrwt>
</event>
<event>
 8    1  0.9974463E-006  0.2746498E+03  0.7546771E-02  0.1098648E+00
         21   -1    0    0  504  503  0.00000000000E+00  0.00000000000E+00  0.12399752889E+03  0.12399752889E+03  0.00000000000E+00 0.  1.
         21   -1    0    0  503  504 -0.00000000000E+00 -0.00000000000E+00 -0.15208468711E+03  0.15208468711E+03  0.00000000000E+00 0.  1.
         25    2    1    2    0    0 -0.22556606794E+02  0.15715797291E+02  0.35973321577E+02  0.13294537884E+03  0.12499842837E+03 0.  0.
         25    2    1    2    0    0  0.22556606794E+02 -0.15715797291E+02 -0.64060479793E+02  0.14313683716E+03  0.12501448831E+03 0.  0.
          5    1    3    3  501    0 -0.25881348130E+02 -0.35769271545E+02  0.60970472843E+02  0.75423958571E+02  0.47000000000E+01 0.  1.
         -5    1    3    3    0  501  0.33247413359E+01  0.51485068836E+02 -0.24997151266E+02  0.57521420266E+02  0.47000000000E+01 0.  1.
          5    1    4    4  502    0  0.65716002269E+02  0.22898629934E+02 -0.38383356228E+02  0.79613517963E+02  0.47000000000E+01 0.  1.
         -5    1    4    4    0  502 -0.43159395475E+02 -0.38614427226E+02 -0.25677123565E+02  0.63523319201E+02  0.47000000000E+01 0.  1.
<mgrwt>
<rscale>  0 0.27464978E+03</rscale>
<asrwt>0</asrwt>
<pdfrwt beam="1">  1       21 0.19076543E-01 0.27464978E+03</pdfrwt>
<pdfrwt beam="2">  1       21 0.23397644E-01 0.27464978E+03</pdfrwt>
<totfact> 0.42595059E+05</totfact>
</mgrwt>
</event>
<event>
 8    1  0.9974463E-006  0.4385451E+03  0.7546771E-02  0.1031194E+00
         21   -1    0    0  504  503  0.00000000000E+00  0.00000000000E+00  0.23199159110E+03  0.23199159110E+03  0.00000000000E+00 0.  1.
         21   -1    0    0  503  504 -0.00000000000E+00 -0.00000000000E+00 -0.20725079581E+03  0.20725079581E+03  0.00000000000E+00 0.  1.
         25    2    1    2    0    0 -0.94002748624E+02 -0.60642043509E+02  0.15380298680E+03  0.22758545943E+03  0.12500323358E+03 0.  0.
         25    2    1    2    0    0  0.94002748624E+02  0.60642043509E+02 -0.12906219152E+03  0.21165692747E+03  0.12501052547E+03 0.  0.
          5    1    3    3  501    0 -0.21488482116E+02 -0.72574738464E+02  0.26153814259E+02  0.80218199476E+02  0.47000000000E+01 0. -1.
         -5    1    3    3    0  501 -0.72514266509E+02  0.11932694956E+02  0.12764917254E+03  0.14736725996E+03  0.47000000000E+01 0. -1.
          5    1    4    4  502    0 -0.64210754355E+01 -0.78099503167E+01  0.17779635390E+02  0.20986447253E+02  0.47000000000E+01 0. -1.
         -5    1    4    4    0  502  0.10042382406E+03  0.68451993825E+02 -0.14684182691E+03  0.19067048022E+03  0.47000000000E+01 0. -1.
<mgrwt>
<rscale>  0 0.43854506E+03</rscale>
<asrwt>0</asrwt>
<pdfrwt beam="1">  1       21 0.35691014E-01 0.43854506E+03</pdfrwt>
<pdfrwt beam="2">  1       21 0.31884738E-01 0.43854506E+03</pdfrwt>
<totfact> 0.66467177E+04</totfact>
</mgrwt>
</event>
<event>
 8    1  0.9974463E-006  0.3926695E+03  0.7546771E-02  0.1046348E+00
         21   -1    0    0  504  503  0.00000000000E+00  0.00000000000E+00  0.17989480425E+03  0.17989480425E+03  0.00000000000E+00 0. -1.
         21   -1    0    0  503  504 -0.00000000000E+00 -0.00000000000E+00 -0.21427704415E+03  0.21427704415E+03  0.00000000000E+00 0. -1.
         25    2    1    2    0    0  0.14184041669E+03  0.14556744231E+02 -0.68241853474E+02  0.20155659387E+03  0.12505001942E+03 0.  0.
         25    2    1    2    0    0 -0.14184041669E+03 -0.14556744231E+02  0.33859613570E+02  0.19261525453E+03  0.12499424081E+03 0.  0.
          5    1    3    3  501    0 -0.19019481532E+02  0.10460671376E+02 -0.27784114322E+02  0.35569837392E+02  0.47000000000E+01 0.  1.
         -5    1    3    3    0  501  0.16085989822E+03  0.40960728549E+01 -0.40457739152E+02  0.16598675648E+03  0.47000000000E+01 0.  1.
          5    1    4    4  502    0 -0.11252706070E+03 -0.54560550555E+02  0.57205321902E+02  0.13759989797E+03  0.47000000000E+01 0.  1.
         -5    1    4    4    0  502 -0.29313355994E+02  0.40003806324E+02 -0.23345708332E+02  0.55015356561E+02  0.47000000000E+01 0.  1.
<mgrwt>
<rscale>  0 0.39266946E+03</rscale>
<asrwt>0</asrwt>
<pdfrwt beam="1">  1       21 0.27676124E-01 0.39266946E+03</pdfrwt>
<pdfrwt beam="2">  1       21 0.32965699E-01 0.39266946E+03</pdfrwt>
<totfact> 0.10425252E+05</totfact>
</mgrwt>
</event>
<event>
 8    1  0.9974463E-006  0.2957140E+03  0.7546771E-02  0.1087403E+00
         21   -1    0    0  504  503  0.00000000000E+00  0.00000000000E+00  0.53408059904E+03  0.53408059904E+03  0.00000000000E+00 0. -1.
         21   -1    0    0  503  504 -0.00000000000E+00 -0.00000000000E+00 -0.40933309349E+02  0.40933309349E+02  0.00000000000E+00 0. -1.
         25    2    1    2    0    0  0.22916481840E+02  0.18753552326E+02  0.10422058770E+03  0.16542148380E+03  0.12500190214E+03 0.  0.
         25    2    1    2    0    0 -0.22916481840E+02 -0.18753552326E+02  0.38892670200E+03  0.40959242459E+03  0.12500045556E+03 0.  0.
          5    1    3    3  501    0 -0.40217853155E+02 -0.23601295333E+02  0.17574108479E+02  0.50054331907E+02  0.47000000000E+01 0. -1.
         -5    1    3    3    0  501  0.63134334995E+02  0.42354847659E+02  0.86646479220E+02  0.11536715190E+03  0.47000000000E+01 0. -1.
          5    1    4    4  502    0  0.13392320297E+02  0.49086404798E+02  0.16829547335E+03  0.17588145362E+03  0.47000000000E+01 0. -1.
         -5    1    4    4    0  502 -0.36308802137E+02 -0.67839957124E+02  0.22063122865E+03  0.23371097097E+03  0.47000000000E+01 0. -1.
<mgrwt>
<rscale>  0 0.29571396E+03</rscale>
<asrwt>0</asrwt>
<pdfrwt beam="1">  1       21 0.82166241E-01 0.29571396E+03</pdfrwt>
<pdfrwt beam="2">  1       21 0.62974326E-02 0.29571396E+03</pdfrwt>
<totfact> 0.22832497E+05</totfact>
</mgrwt>
</event>
<event>
 8    1  0.9974463E-006  0.3003793E+03  0.7546771E-02  0.1085051E+00
         21   -1    0    0  504  503  0.00000000000E+00  0.00000000000E+00  0.47936320726E+02  0.47936320726E+02  0.00000000000E+00 0. -1.
         21   -1    0    0  503  504 -0.00000000000E+00 -0.00000000000E+00 -0.47056040470E+03  0.47056040470E+03  0.00000000000E+00 0. -1.
         25    2    1    2    0    0 -0.77001960134E+02 -0.25008203968E+02 -0.17784507680E+03  0.23196646968E+03  0.12499943834E+03 0.  0.
         25    2    1    2    0    0  0.77001960134E+02  0.25008203968E+02 -0.24477900718E+03  0.28653025575E+03  0.12501245127E+03 0.  0.
          5    1    3    3  501    0 -0.57827214017E+01  0.21081946417E+02 -0.13495016695E+03  0.13679007965E+03  0.47000000000E+01 0. -1.
         -5    1    3    3    0  501 -0.71219238732E+02 -0.46090150384E+02 -0.42894909849E+02  0.95176390029E+02  0.47000000000E+01 0. -1.
          5    1    4    4  502    0 -0.17077504038E+02 -0.33468885058E+02 -0.56007228651E+02  0.67607004610E+02  0.47000000000E+01 0.  1.
         -5    1    4    4    0  502  0.94079464172E+02  0.58477089025E+02 -0.18877177853E+03  0.21892325113E+03  0.47000000000E+01 0.  1.
<mgrwt>
<rscale>  0 0.30037932E+03</rscale>
<asrwt>0</asrwt>
<pdfrwt beam="1">  1       21 0.73748190E-02 0.30037932E+03</pdfrwt>
<pdfrwt beam="2">  1       21 0.72393904E-01 0.30037932E+03</pdfrwt>
<totfact> 0.23096271E+05</totfact>
</mgrwt>
</event>
<event>
 8    1  0.9974463E-006  0.3161320E+03  0.7546771E-02  0.1077443E+00
         21   -1    0    0  504  503  0.00000000000E+00  0.00000000000E+00  0.97116488236E+03  0.97116488236E+03  0.00000000000E+00 0. -1.
         21   -1    0    0  503  504 -0.00000000000E+00 -0.00000000000E+00 -0.25726698678E+02  0.25726698678E+02  0.00000000000E+00 0. -1.
         25    2    1    2    0    0  0.80151223548E+02  0.45335027435E+02  0.56617778486E+03  0.58708204581E+03  0.12501424359E+03 0.  0.
         25    2    1    2    0    0 -0.80151223548E+02 -0.45335027435E+02  0.37926039883E+03  0.40980953523E+03  0.12500368673E+03 0.  0.
          5    1    3    3  501    0  0.11394616759E+03  0.30517947844E+02  0.43377884696E+03  0.44955672870E+03  0.47000000000E+01 0. -1.
         -5    1    3    3    0  501 -0.33794944043E+02  0.14817079591E+02  0.13239893789E+03  0.13752531711E+03  0.47000000000E+01 0. -1.
          5    1    4    4  502    0 -0.75375966518E+02 -0.76964355656E+02  0.34989389720E+03  0.36613232262E+03  0.47000000000E+01 0.  1.
         -5    1    4    4    0  502 -0.47752570301E+01  0.31629328221E+02  0.29366501631E+02  0.43677212611E+02  0.47000000000E+01 0.  1.
<mgrwt>
<rscale>  0 0.31613204E+03</rscale>
<asrwt>0</asrwt>
<pdfrwt beam="1">  1       21 0.14940995E+00 0.31613204E+03</pdfrwt>
<pdfrwt beam="2">  1       21 0.39579544E-02 0.31613204E+03</pdfrwt>
<totfact> 0.11486930E+05</totfact>
</mgrwt>
</event>
<event>
 8    1  0.9974463E-006  0.2790000E+03  0.7546771E-02  0.1096236E+00
         21   -1    0    0  504  503  0.00000000000E+00  0.00000000000E+00  0.27714599309E+03  0.27714599309E+03  0.00000000000E+00 0.  1.
         21   -1    0    0  503  504 -0.00000000000E+00 -0.00000000000E+00 -0.70216577446E+02  0.70216577446E+02  0.00000000000E+00 0.  1.
         25    2    1    2    0    0 -0.13679694436E+02  0.40314246266E+02  0.15946225699E+03  0.20704044746E+03  0.12500065194E+03 0.  0.
         25    2    1    2    0    0  0.13679694436E+02 -0.40314246266E+02  0.47467158649E+02  0.14032212308E+03  0.12499917833E+03 0.  0.
          5    1    3    3  501    0 -0.38150883525E+02 -0.53203100077E+01 -0.53226217327E+00  0.38809392102E+02  0.47000000000E+01 0.  1.
         -5    1    3    3    0  501  0.24471189090E+02  0.45634556273E+02  0.15999451917E+03  0.16823105535E+03  0.47000000000E+01 0.  1.
          5    1    4    4  502    0 -0.35524053353E+02 -0.65552693923E+02  0.15577996829E+02  0.76314337004E+02  0.47000000000E+01 0. -1.
         -5    1    4    4    0  502  0.49203747789E+02  0.25238447657E+02  0.31889161820E+02  0.64007786075E+02  0.47000000000E+01 0. -1.
<mgrwt>
<rscale>  0 0.27899995E+03</rscale>
<asrwt>0</asrwt>
<pdfrwt beam="1">  1       21 0.42637844E-01 0.27899995E+03</pdfrwt>
<pdfrwt beam="2">  1       21 0.10802551E-01 0.27899995E+03</pdfrwt>
<totfact> 0.36740363E+05</totfact>
</mgrwt>
</event>
<event>
 8    1  0.9974463E-006  0.3530912E+03  0.7546771E-02  0.1061353E+00
         21   -1    0    0  504  503  0.00000000000E+00  0.00000000000E+00  0.44504067921E+02  0.44504067921E+02  0.00000000000E+00 0. -1.
         21   -1    0    0  503  504 -0.00000000000E+00 -0.00000000000E+00 -0.70034829486E+03  0.70034829486E+03  0.00000000000E+00 0. -1.
         25    2    1    2    0    0 -0.85257202545E+01 -0.50233716090E+02 -0.56793386710E+03  0.58375440781E+03  0.12499686834E+03 0.  0.
         25    2    1    2    0    0  0.85257202545E+01  0.50233716090E+02 -0.87910359836E+02  0.16109795497E+03  0.12501282171E+03 0.  0.
          5    1    3    3  501    0 -0.92512782646E+01 -0.84933451187E+02 -0.50056195650E+03  0.50782244887E+03  0.47000000000E+01 0.  1.
         -5    1    3    3    0  501  0.72555801014E+00  0.34699735097E+02 -0.67371910607E+02  0.75931958944E+02  0.47000000000E+01 0.  1.
          5    1    4    4  502    0 -0.13757699045E+02  0.84600445809E+02 -0.83299112451E+02  0.11961330131E+03  0.47000000000E+01 0.  1.
         -5    1    4    4    0  502  0.22283419300E+02 -0.34366729720E+02 -0.46112473849E+01  0.41484653666E+02  0.47000000000E+01 0.  1.
<mgrwt>
<rscale>  0 0.35309120E+03</rscale>
<asrwt>0</asrwt>
<pdfrwt beam="1">  1       21 0.68467801E-02 0.35309120E+03</pdfrwt>
<pdfrwt beam="2">  1       21 0.10774588E+00 0.35309120E+03</pdfrwt>
<totfact> 0.10226787E+05</totfact>
</mgrwt>
</event>
<event>
 8    1  0.9974463E-006  0.2952846E+03  0.7546771E-02  0.1087622E+00
         21   -1    0    0  504  503  0.00000000000E+00  0.00000000000E+00  0.58578413123E+02  0.58578413123E+02  0.00000000000E+00 0.  1.
         21   -1    0    0  503  504 -0.00000000000E+00 -0.00000000000E+00 -0.37212079196E+03  0.37212079196E+03  0.00000000000E+00 0.  1.
         25    2    1    2    0    0 -0.34190309884E+02 -0.29011972777E+01 -0.25984857768E+03  0.29039071126E+03  0.12501234992E+03 0.  0.
         25    2    1    2    0    0  0.34190309884E+02  0.29011972777E+01 -0.53693801162E+02  0.14030849382E+03  0.12500421961E+03 0.  0.
          5    1    3    3  501    0 -0.29782643155E+02  0.46006514044E+02 -0.22059167386E+03  0.22734639153E+03  0.47000000000E+01 0.  1.
         -5    1    3    3    0  501 -0.44076667294E+01 -0.48907711321E+02 -0.39256903816E+02  0.63044319728E+02  0.47000000000E+01 0.  1.
          5    1    4    4  502    0  0.75042023405E+02 -0.22045799544E+02 -0.17950001870E+02  0.80384172082E+02  0.47000000000E+01 0.  1.
         -5    1    4    4    0  502 -0.40851713521E+02  0.24946996822E+02 -0.35743799292E+02  0.59924321739E+02  0.47000000000E+01 0.  1.
<mgrwt>
<rscale>  0 0.29528458E+03</rscale>
<asrwt>0</asrwt>
<pdfrwt beam="1">  1       21 0.90120636E-02 0.29528458E+03</pdfrwt>
<pdfrwt beam="2">  1       21 0.57249352E-01 0.29528458E+03</pdfrwt>
<totfact> 0.27214308E+05</totfact>
</mgrwt>
</event>
<event>
 8    1  0.9974463E-006  0.2938628E+03  0.7546771E-02  0.1088349E+00
         21   -1    0    0  504  503  0.00000000000E+00  0.00000000000E+00  0.72843227342E+02  0.72843227342E+02  0.00000000000E+00 0. -1.
         21   -1    0    0  503  504 -0.00000000000E+00 -0.00000000000E+00 -0.29637396895E+03  0.29637396895E+03  0.00000000000E+00 0. -1.
         25    2    1    2    0    0  0.40002265590E+02  0.37015232469E+02 -0.18049308885E+03  0.22622165845E+03  0.12501269912E+03 0.  0.
         25    2    1    2    0    0 -0.40002265590E+02 -0.37015232469E+02 -0.43037652758E+02  0.14299553785E+03  0.12500070241E+03 0.  0.
          5    1    3    3  501    0  0.42180149975E+02  0.64860827652E+00 -0.42843980279E+00  0.42448313338E+02  0.47000000000E+01 0. -1.
         -5    1    3    3    0  501 -0.21778843854E+01  0.36366624192E+02 -0.18006464905E+03  0.18377334511E+03  0.47000000000E+01 0. -1.
          5    1    4    4  502    0 -0.43204480826E+02 -0.64190130181E+02  0.14727305488E+02  0.78904901641E+02  0.47000000000E+01 0. -1.
         -5    1    4    4    0  502  0.32022152365E+01  0.27174897712E+02 -0.57764958245E+02  0.64090636205E+02  0.47000000000E+01 0. -1.
<mgrwt>
<rscale>  0 0.29386280E+03</rscale>
<asrwt>0</asrwt>
<pdfrwt beam="1">  1       21 0.11206651E-01 0.29386280E+03</pdfrwt>
<pdfrwt beam="2">  1       21 0.45595993E-01 0.29386280E+03</pdfrwt>
<totfact> 0.29855688E+05</totfact>
</mgrwt>
</event>
<event>
 8    1  0.9974463E-006  0.3042693E+03  0.7546771E-02  0.1083126E+00
         21   -1    0    0  504  503  0.00000000000E+00  0.00000000000E+00  0.15405748688E+02  0.15405748688E+02  0.00000000000E+00 0.  1.
         21   -1    0    0  503  504 -0.00000000000E+00 -0.00000000000E+00 -0.15023578028E+04  0.15023578028E+04  0.00000000000E+00 0.  1.
         25    2    1    2    0    0  0.82019897628E+02 -0.26938512696E+02 -0.78371391915E+03  0.79830075099E+03  0.12499453947E+03 0.  0.
         25    2    1    2    0    0 -0.82019897628E+02  0.26938512696E+02 -0.70323813501E+03  0.71946280054E+03  0.12501959749E+03 0.  0.
          5    1    3    3  501    0  0.66904347248E+02 -0.42139477333E+02 -0.76603569480E+03  0.77011992763E+03  0.47000000000E+01 0.  1.
         -5    1    3    3    0  501  0.15115550380E+02  0.15200964637E+02 -0.17678224350E+02  0.28180823362E+02  0.47000000000E+01 0.  1.
          5    1    4    4  502    0 -0.10976096703E+03 -0.32285633151E+01 -0.54197036468E+03  0.55300258561E+03  0.47000000000E+01 0. -1.
         -5    1    4    4    0  502  0.27741069400E+02  0.30167076011E+02 -0.16126777033E+03  0.16646021493E+03  0.47000000000E+01 0. -1.
<mgrwt>
<rscale>  0 0.30426927E+03</rscale>
<asrwt>0</asrwt>
<pdfrwt beam="1">  1       21 0.23701158E-02 0.30426927E+03</pdfrwt>
<pdfrwt beam="2">  1       21 0.23113191E+00 0.30426927E+03</pdfrwt>
<totfact> 0.75495576E+04</totfact>
</mgrwt>
</event>
<event>
 8    1  0.9974463E-006  0.3766035E+03  0.7546771E-02  0.1052196E+00
         21   -1    0    0  504  503  0.00000000000E+00  0.00000000000E+00  0.28045375789E+03  0.28045375789E+03  0.00000000000E+00 0.  1.
         21   -1    0    0  503  504 -0.00000000000E+00 -0.00000000000E+00 -0.12642921512E+03  0.12642921512E+03  0.00000000000E+00 0.  1.
         25    2    1    2    0    0 -0.12151681238E+03  0.33613202566E+02  0.14479815352E+03  0.22910008916E+03  0.12499664999E+03 0.  0.
         25    2    1    2    0    0  0.12151681238E+03 -0.33613202566E+02  0.92263892469E+01  0.17778288385E+03  0.12500177780E+03 0.  0.
          5    1    3    3  501    0 -0.31899182463E+02 -0.38258983541E+02  0.87130199489E+02  0.10047422220E+03  0.47000000000E+01 0.  1.
         -5    1    3    3    0  501 -0.89617629921E+02  0.71872186107E+02  0.57667954032E+02  0.12862586696E+03  0.47000000000E+01 0.  1.
          5    1    4    4  502    0  0.61630426494E+02  0.44921546932E+02 -0.99866310824E+01  0.77058923228E+02  0.47000000000E+01 0.  1.
         -5    1    4    4    0  502  0.59886385890E+02 -0.78534749498E+02  0.19213020329E+02  0.10072396062E+03  0.47000000000E+01 0.  1.
<mgrwt>
<rscale>  0 0.37660350E+03</rscale>
<asrwt>0</asrwt>
<pdfrwt beam="1">  1       21 0.43146732E-01 0.37660350E+03</pdfrwt>
<pdfrwt beam="2">  1       21 0.19450649E-01 0.37660350E+03</pdfrwt>
<totfact> 0.11921571E+05</totfact>
</mgrwt>
</event>
<event>
 8    1  0.9974463E-006  0.2874842E+03  0.7546771E-02  0.1091670E+00
         21   -1    0    0  504  503  0.00000000000E+00  0.00000000000E+00  0.91625691075E+02  0.91625691075E+02  0.00000000000E+00 0.  1.
         21   -1    0    0  503  504 -0.00000000000E+00 -0.00000000000E+00 -0.22550216409E+03  0.22550216409E+03  0.00000000000E+00 0.  1.
         25    2    1    2    0    0  0.41252937105E+02 -0.26045724705E+02 -0.10064605948E+02  0.13455797680E+03  0.12499747291E+03 0.  0.
         25    2    1    2    0    0 -0.41252937105E+02  0.26045724705E+02 -0.12381186707E+03  0.18256987836E+03  0.12498878935E+03 0.  0.
          5    1    3    3  501    0 -0.42806776039E+02  0.10687424912E+01  0.91668884134E+01  0.44041845199E+02  0.47000000000E+01 0. -1.
         -5    1    3    3    0  501  0.84059713144E+02 -0.27114467196E+02 -0.19231494361E+02  0.90516131604E+02  0.47000000000E+01 0. -1.
          5    1    4    4  502    0 -0.65733758834E+02 -0.32257025417E+01 -0.15696732637E+02  0.67821896338E+02  0.47000000000E+01 0. -1.
         -5    1    4    4    0  502  0.24480821729E+02  0.29271427246E+02 -0.10811513443E+03  0.11474798202E+03  0.47000000000E+01 0. -1.
<mgrwt>
<rscale>  0 0.28748420E+03</rscale>
<asrwt>0</asrwt>
<pdfrwt beam="1">  1       21 0.14096260E-01 0.28748420E+03</pdfrwt>
<pdfrwt beam="2">  1       21 0.34692641E-01 0.28748420E+03</pdfrwt>
<totfact> 0.34435613E+05</totfact>
</mgrwt>
</event>
<event>
 8    1  0.9974463E-006  0.3902417E+03  0.7546771E-02  0.1047212E+00
         21   -1    0    0  504  503  0.00000000000E+00  0.00000000000E+00  0.13281587042E+03  0.13281587042E+03  0.00000000000E+00 0. -1.
         21   -1    0    0  503  504 -0.00000000000E+00 -0.00000000000E+00 -0.28665366059E+03  0.28665366059E+03  0.00000000000E+00 0. -1.
         25    2    1    2    0    0 -0.46799617506E+02  0.14189749354E+03 -0.88872252141E+02  0.21411209004E+03  0.12498242688E+03 0.  0.
         25    2    1    2    0    0  0.46799617506E+02 -0.14189749354E+03 -0.64965538032E+02  0.20535744096E+03  0.12500421815E+03 0.  0.
          5    1    3    3  501    0 -0.25389357710E+02  0.51119696628E+02 -0.10475124002E+03  0.11938490338E+03  0.47000000000E+01 0.  1.
         -5    1    3    3    0  501 -0.21410259797E+02  0.90777796914E+02  0.15878987882E+02  0.94727186664E+02  0.47000000000E+01 0.  1.
          5    1    4    4  502    0 -0.32235520752E+02 -0.35008739656E+02 -0.53634566399E+02  0.71857479522E+02  0.47000000000E+01 0. -1.
         -5    1    4    4    0  502  0.79035138259E+02 -0.10688875389E+03 -0.11330971633E+02  0.13349996144E+03  0.47000000000E+01 0. -1.
<mgrwt>
<rscale>  0 0.39024175E+03</rscale>
<asrwt>0</asrwt>
<pdfrwt beam="1">  1       21 0.20433211E-01 0.39024175E+03</pdfrwt>
<pdfrwt beam="2">  1       21 0.44100563E-01 0.39024175E+03</pdfrwt>
<totfact> 0.10345679E+05</totfact>
</mgrwt>
</event>
<event>
 8    1  0.9974463E-006  0.3717537E+03  0.7546771E-02  0.1054024E+00
         21   -1    0    0  504  503  0.00000000000E+00  0.00000000000E+00  0.76660717239E+02  0.76660717239E+02  0.00000000000E+00 0.  1.
         21   -1    0    0  503  504 -0.00000000000E+00 -0.00000000000E+00 -0.45068985107E+03  0.45068985107E+03  0.00000000000E+00 0.  1.
         25    2    1    2    0    0  0.51757476696E+02  0.19936222671E+02 -0.84283285827E+01  0.13700996164E+03  0.12499761397E+03 0.  0.
         25    2    1    2    0    0 -0.51757476696E+02 -0.19936222671E+02 -0.36560080525E+03  0.39034060667E+03  0.12500220417E+03 0.  0.
          5    1    3    3  501    0  0.37433618137E+02 -0.10005458002E+02 -0.62325159376E+02  0.73538428375E+02  0.47000000000E+01 0.  1.
         -5    1    3    3    0  501  0.14323858558E+02  0.29941680673E+02  0.53896830793E+02  0.63471533265E+02  0.47000000000E+01 0.  1.
          5    1    4    4  502    0 -0.26812821629E+02 -0.37171647300E+02 -0.33843589439E+02  0.57167624691E+02  0.47000000000E+01 0. -1.
         -5    1    4    4    0  502 -0.24944655067E+02  0.17235424629E+02 -0.33175721581E+03  0.33317298198E+03  0.47000000000E+01 0. -1.
<mgrwt>
<rscale>  0 0.37175372E+03</rscale>
<asrwt>0</asrwt>
<pdfrwt beam="1">  1       21 0.11793956E-01 0.37175372E+03</pdfrwt>
<pdfrwt beam="2">  1       21 0.69336901E-01 0.37175372E+03</pdfrwt>
<totfact> 0.10854536E+05</totfact>
</mgrwt>
</event>
<event>
 8    1  0.9974463E-006  0.3292520E+03  0.7546771E-02  0.1071468E+00
         21   -1    0    0  504  503  0.00000000000E+00  0.00000000000E+00  0.10255605700E+04  0.10255605700E+04  0.00000000000E+00 0. -1.
         21   -1    0    0  503  504 -0.00000000000E+00 -0.00000000000E+00 -0.26426256931E+02  0.26426256931E+02  0.00000000000E+00 0. -1.
         25    2    1    2    0    0  0.65894842867E+02 -0.47741470698E+02  0.27691827096E+03  0.31453095744E+03  0.12499846422E+03 0.  0.
         25    2    1    2    0    0 -0.65894842867E+02  0.47741470698E+02  0.72221604212E+03  0.73745586950E+03  0.12499507839E+03 0.  0.
          5    1    3    3  501    0  0.33072348455E+02 -0.75339220581E+02  0.25104739870E+03  0.26422843296E+03  0.47000000000E+01 0.  1.
         -5    1    3    3    0  501  0.32822494411E+02  0.27597749882E+02  0.25870872260E+02  0.50302524484E+02  0.47000000000E+01 0.  1.
          5    1    4    4  502    0 -0.72489990497E+02 -0.22546867606E+02  0.30882311443E+03  0.31805182906E+03  0.47000000000E+01 0. -1.
         -5    1    4    4    0  502  0.65951476308E+01  0.70288338305E+02  0.41339292769E+03  0.41940404044E+03  0.47000000000E+01 0. -1.
<mgrwt>
<rscale>  0 0.32925204E+03</rscale>
<asrwt>0</asrwt>
<pdfrwt beam="1">  1       21 0.15777852E+00 0.32925204E+03</pdfrwt>
<pdfrwt beam="2">  1       21 0.40655788E-02 0.32925204E+03</pdfrwt>
<totfact> 0.94319724E+04</totfact>
</mgrwt>
</event>
<event>
 8    1  0.9974463E-006  0.2750224E+03  0.7546771E-02  0.1098439E+00
         21   -1    0    0  504  503  0.00000000000E+00  0.00000000000E+00  0.22988111640E+03  0.22988111640E+03  0.00000000000E+00 0. -1.
         21   -1    0    0  503  504 -0.00000000000E+00 -0.00000000000E+00 -0.82257001253E+02  0.82257001253E+02  0.00000000000E+00 0. -1.
         25    2    1    2    0    0  0.98329147377E+01 -0.21563729836E+02  0.14538619034E+02  0.12801863096E+03  0.12496286558E+03 0.  0.
         25    2    1    2    0    0 -0.98329147377E+01  0.21563729836E+02  0.13308549612E+03  0.18411948669E+03  0.12500622163E+03 0.  0.
          5    1    3    3  501    0  0.10747704484E+02  0.45696401005E+02  0.33630397515E+02  0.57937620364E+02  0.47000000000E+01 0.  1.
         -5    1    3    3    0  501 -0.91478974601E+00 -0.67260130840E+02 -0.19091778481E+02  0.70081010598E+02  0.47000000000E+01 0.  1.
          5    1    4    4  502    0 -0.34575368664E+00 -0.41953507859E+02  0.10630102529E+03  0.11437750804E+03  0.47000000000E+01 0. -1.
         -5    1    4    4    0  502 -0.94871610511E+01  0.63517237694E+02  0.26784470825E+02  0.69741978653E+02  0.47000000000E+01 0. -1.
<mgrwt>
<rscale>  0 0.27502241E+03</rscale>
<asrwt>0</asrwt>
<pdfrwt beam="1">  1       21 0.35366325E-01 0.27502241E+03</pdfrwt>
<pdfrwt beam="2">  1       21 0.12654923E-01 0.27502241E+03</pdfrwt>
<totfact> 0.40414874E+05</totfact>
</mgrwt>
</event>
<event>
 8    1  0.9974463E-006  0.3532882E+03  0.7546771E-02  0.1061273E+00
         21   -1    0    0  504  503  0.00000000000E+00  0.00000000000E+00  0.15546456376E+04  0.15546456376E+04  0.00000000000E+00 0. -1.
         21   -1    0    0  503  504 -0.00000000000E+00 -0.00000000000E+00 -0.20070904874E+02  0.20070904874E+02  0.00000000000E+00 0. -1.
         25    2    1    2    0    0  0.94013531351E+02 -0.53675276002E+02  0.10442434780E+04  0.10572528817E+04  0.12497853889E+03 0.  0.
         25    2    1    2    0    0 -0.94013531351E+02  0.53675276002E+02  0.49033125479E+03  0.51746366084E+03  0.12499728610E+03 0.  0.
          5    1    3    3  501    0  0.26821911554E+02  0.17605203816E+02  0.60576119217E+02  0.68708910341E+02  0.47000000000E+01 0.  1.
         -5    1    3    3    0  501  0.67191619798E+02 -0.71280479818E+02  0.98366735874E+03  0.98854397132E+03  0.47000000000E+01 0.  1.
          5    1    4    4  502    0  0.13919418756E+02  0.37254848767E+02  0.51537809251E+02  0.65267984169E+02  0.47000000000E+01 0. -1.
         -5    1    4    4    0  502 -0.10793295011E+03  0.16420427234E+02  0.43879344554E+03  0.45219567667E+03  0.47000000000E+01 0. -1.
<mgrwt>
<rscale>  0 0.35328824E+03</rscale>
<asrwt>0</asrwt>
<pdfrwt beam="1">  1       21 0.23917616E+00 0.35328824E+03</pdfrwt>
<pdfrwt beam="2">  1       21 0.30878327E-02 0.35328824E+03</pdfrwt>
<totfact> 0.42442461E+04</totfact>
</mgrwt>
</event>
<event>
 8    1  0.9974463E-006  0.4497049E+03  0.7546771E-02  0.1027810E+00
         21   -1    0    0  504  503  0.00000000000E+00  0.00000000000E+00  0.12700613974E+04  0.12700613974E+04  0.00000000000E+00 0. -1.
         21   -1    0    0  503  504 -0.00000000000E+00 -0.00000000000E+00 -0.39808023596E+02  0.39808023596E+02  0.00000000000E+00 0. -1.
         25    2    1    2    0    0  0.13965932811E+02 -0.17924595921E+03  0.46646229252E+03  0.51530928032E+03  0.12502968794E+03 0.  0.
         25    2    1    2    0    0 -0.13965932811E+02  0.17924595921E+03  0.76379108133E+03  0.79456014072E+03  0.12499936055E+03 0.  0.
          5    1    3    3  501    0  0.51584935001E+01 -0.30423791666E+02  0.25288488356E+03  0.25480398640E+03  0.47000000000E+01 0.  1.
         -5    1    3    3    0  501  0.88074393113E+01 -0.14882216754E+03  0.21357740896E+03  0.26050529392E+03  0.47000000000E+01 0.  1.
          5    1    4    4  502    0  0.62715062282E+01 -0.10242828525E+01  0.24175592197E+03  0.24188508998E+03  0.47000000000E+01 0. -1.
         -5    1    4    4    0  502 -0.20237439040E+02  0.18027024206E+03  0.52203515935E+03  0.55267505074E+03  0.47000000000E+01 0. -1.
<mgrwt>
<rscale>  0 0.44970494E+03</rscale>
<asrwt>0</asrwt>
<pdfrwt beam="1">  1       21 0.19539403E+00 0.44970494E+03</pdfrwt>
<pdfrwt beam="2">  1       21 0.61243123E-02 0.44970494E+03</pdfrwt>
<totfact> 0.24258739E+04</totfact>
</mgrwt>
</event>
<event>
 8    1  0.9974463E-006  0.5067762E+03  0.7546771E-02  0.1012025E+00
         21   -1    0    0  504  503  0.00000000000E+00  0.00000000000E+00  0.39885142473E+02  0.39885142473E+02  0.00000000000E+00 0.  1.
         21   -1    0    0  503  504 -0.00000000000E+00 -0.00000000000E+00 -0.16097602799E+04  0.16097602799E+04  0.00000000000E+00 0.  1.
         25    2    1    2    0    0 -0.11666396859E+03  0.62226931629E+02 -0.21090651749E+03  0.27854951494E+03  0.12500240225E+03 0.  0.
         25    2    1    2    0    0  0.11666396859E+03 -0.62226931629E+02 -0.13589686199E+04  0.13710959074E+04  0.12500241919E+03 0.  0.
          5    1    3    3  501    0  0.65775992394E+01  0.25223225045E+02  0.51980260019E+01  0.26992320533E+02  0.47000000000E+01 0. -1.
         -5    1    3    3    0  501 -0.12324156783E+03  0.37003706584E+02 -0.21610454349E+03  0.25155719441E+03  0.47000000000E+01 0. -1.
          5    1    4    4  502    0  0.44526651232E+02 -0.86449706373E+02 -0.55069252015E+03  0.55923207718E+03  0.47000000000E+01 0. -1.
         -5    1    4    4    0  502  0.72137317360E+02  0.24222774744E+02 -0.80827609978E+03  0.81186383024E+03  0.47000000000E+01 0. -1.
<mgrwt>
<rscale>  0 0.50677616E+03</rscale>
<asrwt>0</asrwt>
<pdfrwt beam="1">  1       21 0.61361760E-02 0.50677616E+03</pdfrwt>
<pdfrwt beam="2">  1       21 0.24765542E+00 0.50677616E+03</pdfrwt>
<totfact> 0.10957690E+04</totfact>
</mgrwt>
</event>
<event>
 8    1  0.9974463E-006  0.2627145E+03  0.7546771E-02  0.1105523E+00
         21   -1    0    0  504  503  0.00000000000E+00  0.00000000000E+00  0.10314079474E+03  0.10314079474E+03  0.00000000000E+00 0. -1.
         21   -1    0    0  503  504 -0.00000000000E+00 -0.00000000000E+00 -0.16729298654E+03  0.16729298654E+03  0.00000000000E+00 0. -1.
         25    2    1    2    0    0 -0.34401193578E+02  0.19255456827E+02 -0.22972626818E+02  0.13304502707E+03  0.12497608935E+03 0.  0.
         25    2    1    2    0    0  0.34401193578E+02 -0.19255456827E+02 -0.41179564982E+02  0.13738875421E+03  0.12500279387E+03 0.  0.
          5    1    3    3  501    0  0.34612664607E+02  0.41790578440E+02  0.58755745289E+01  0.54782308947E+02  0.47000000000E+01 0.  1.
         -5    1    3    3    0  501 -0.69013858185E+02 -0.22535121613E+02 -0.28848201347E+02  0.78262718127E+02  0.47000000000E+01 0.  1.
          5    1    4    4  502    0  0.51533421650E+02 -0.59208204245E+02 -0.19707857637E+01  0.78659258790E+02  0.47000000000E+01 0. -1.
         -5    1    4    4    0  502 -0.17132228071E+02  0.39952747418E+02 -0.39208779218E+02  0.58729495424E+02  0.47000000000E+01 0. -1.
<mgrwt>
<rscale>  0 0.26271453E+03</rscale>
<asrwt>0</asrwt>
<pdfrwt beam="1">  1       21 0.15867815E-01 0.26271453E+03</pdfrwt>
<pdfrwt beam="2">  1       21 0.25737382E-01 0.26271453E+03</pdfrwt>
<totfact> 0.50045998E+05</totfact>
</mgrwt>
</event>
<event>
 8    1  0.9974463E-006  0.2850265E+03  0.7546771E-02  0.1092975E+00
         21   -1    0    0  504  503  0.00000000000E+00  0.00000000000E+00  0.63272842279E+03  0.63272842279E+03  0.00000000000E+00 0. -1.
         21   -1    0    0  503  504 -0.00000000000E+00 -0.00000000000E+00 -0.32099111484E+02  0.32099111484E+02  0.00000000000E+00 0. -1.
         25    2    1    2    0    0  0.47140543322E+02 -0.95095138913E+01  0.41419451657E+03  0.43530962667E+03  0.12499884734E+03 0.  0.
         25    2    1    2    0    0 -0.47140543322E+02  0.95095138913E+01  0.18643479473E+03  0.22951790760E+03  0.12493148339E+03 0.  0.
          5    1    3    3  501    0 -0.23897645836E+02 -0.34727609886E+02  0.26192849434E+03  0.26534078185E+03  0.47000000000E+01 0.  1.
         -5    1    3    3    0  501  0.71038189159E+02  0.25218095994E+02  0.15226602223E+03  0.16996884482E+03  0.47000000000E+01 0.  1.
          5    1    4    4  502    0 -0.54147473277E+02  0.37837828418E+02  0.18859154326E+03  0.19988124052E+03  0.47000000000E+01 0. -1.
         -5    1    4    4    0  502  0.70069299542E+01 -0.28328314527E+02 -0.21567485310E+01  0.29636667079E+02  0.47000000000E+01 0. -1.
<mgrwt>
<rscale>  0 0.28502646E+03</rscale>
<asrwt>0</asrwt>
<pdfrwt beam="1">  1       21 0.97342825E-01 0.28502646E+03</pdfrwt>
<pdfrwt beam="2">  1       21 0.49383253E-02 0.28502646E+03</pdfrwt>
<totfact> 0.23395860E+05</totfact>
</mgrwt>
</event>
<event>
 8    1  0.9974463E-006  0.4195306E+03  0.7546771E-02  0.1037219E+00
         21   -1    0    0  504  503  0.00000000000E+00  0.00000000000E+00  0.19352550632E+04  0.19352550632E+04  0.00000000000E+00 0. -1.
         21   -1    0    0  503  504 -0.00000000000E+00 -0.00000000000E+00 -0.22736791604E+02  0.22736791604E+02  0.00000000000E+00 0. -1.
         25    2    1    2    0    0  0.14064104223E+03  0.69609239317E+02  0.12420859546E+04  0.12581845292E+04  0.12500176768E+03 0.  0.
         25    2    1    2    0    0 -0.14064104223E+03 -0.69609239317E+02  0.67043231699E+03  0.69980732561E+03  0.12500180939E+03 0.  0.
          5    1    3    3  501    0  0.90525935176E+02  0.31589943567E+01  0.95336217260E+03  0.95766718976E+03  0.47000000000E+01 0.  1.
         -5    1    3    3    0  501  0.50115107053E+02  0.66450244960E+02  0.28872378199E+03  0.30051733942E+03  0.47000000000E+01 0.  1.
          5    1    4    4  502    0 -0.11627293218E+03 -0.89463890488E+02  0.63694471056E+03  0.65363891925E+03  0.47000000000E+01 0. -1.
         -5    1    4    4    0  502 -0.24368110051E+02  0.19854651171E+02  0.33487606438E+02  0.46168406357E+02  0.47000000000E+01 0. -1.
<mgrwt>
<rscale>  0 0.41953065E+03</rscale>
<asrwt>0</asrwt>
<pdfrwt beam="1">  1       21 0.29773142E+00 0.41953065E+03</pdfrwt>
<pdfrwt beam="2">  1       21 0.34979694E-02 0.41953065E+03</pdfrwt>
<totfact> 0.14813146E+04</totfact>
</mgrwt>
</event>
<event>
 8    1  0.9974463E-006  0.4467960E+03  0.7546771E-02  0.1028682E+00
         21   -1    0    0  504  503  0.00000000000E+00  0.00000000000E+00  0.96743716450E+02  0.96743716450E+02  0.00000000000E+00 0.  1.
         21   -1    0    0  503  504 -0.00000000000E+00 -0.00000000000E+00 -0.51586473428E+03  0.51586473428E+03  0.00000000000E+00 0.  1.
         25    2    1    2    0    0 -0.13301065594E+03 -0.12645194367E+03 -0.17599095806E+03  0.28333746897E+03  0.12500150142E+03 0.  0.
         25    2    1    2    0    0  0.13301065594E+03  0.12645194367E+03 -0.24313005978E+03  0.32927098176E+03  0.12500089925E+03 0.  0.
          5    1    3    3  501    0 -0.29230936405E+02 -0.71675009414E+02 -0.14078639677E+03  0.16073162145E+03  0.47000000000E+01 0.  1.
         -5    1    3    3    0  501 -0.10377971953E+03 -0.54776934253E+02 -0.35204561286E+02  0.12260584753E+03  0.47000000000E+01 0.  1.
          5    1    4    4  502    0  0.43891315100E+01  0.29085784773E+02 -0.12699454534E+03  0.13044137341E+03  0.47000000000E+01 0. -1.
         -5    1    4    4    0  502  0.12862152443E+03  0.97366158894E+02 -0.11613551444E+03  0.19882960835E+03  0.47000000000E+01 0. -1.
<mgrwt>
<rscale>  0 0.44679602E+03</rscale>
<asrwt>0</asrwt>
<pdfrwt beam="1">  1       21 0.14883649E-01 0.44679602E+03</pdfrwt>
<pdfrwt beam="2">  1       21 0.79363805E-01 0.44679602E+03</pdfrwt>
<totfact> 0.51270456E+04</totfact>
</mgrwt>
</event>
<event>
 8    1  0.9974463E-006  0.3093610E+03  0.7546771E-02  0.1080653E+00
         21   -1    0    0  504  503  0.00000000000E+00  0.00000000000E+00  0.63819787210E+02  0.63819787210E+02  0.00000000000E+00 0.  1.
         21   -1    0    0  503  504 -0.00000000000E+00 -0.00000000000E+00 -0.37490037875E+03  0.37490037875E+03  0.00000000000E+00 0.  1.
         25    2    1    2    0    0 -0.37928722038E+02 -0.68624634427E+02 -0.22124529399E+03  0.26597164158E+03  0.12507400051E+03 0.  0.
         25    2    1    2    0    0  0.37928722038E+02  0.68624634427E+02 -0.89835297552E+02  0.17274852439E+03  0.12499497424E+03 0.  0.
          5    1    3    3  501    0 -0.11413693691E+02  0.36310019284E+02 -0.71658746491E+02  0.81275801151E+02  0.47000000000E+01 0. -1.
         -5    1    3    3    0  501 -0.26515028347E+02 -0.10493465371E+03 -0.14958654750E+03  0.18469584043E+03  0.47000000000E+01 0. -1.
          5    1    4    4  502    0  0.41475015218E+02  0.51553626216E+02 -0.12027591140E+03  0.13735478924E+03  0.47000000000E+01 0.  1.
         -5    1    4    4    0  502 -0.35462931805E+01  0.17071008210E+02  0.30440613846E+02  0.35393735151E+02  0.47000000000E+01 0.  1.
<mgrwt>
<rscale>  0 0.30936103E+03</rscale>
<asrwt>0</asrwt>
<pdfrwt beam="1">  1       21 0.98184287E-02 0.30936103E+03</pdfrwt>
<pdfrwt beam="2">  1       21 0.57676982E-01 0.30936103E+03</pdfrwt>
<totfact> 0.22929628E+05</totfact>
</mgrwt>
</event>
<event>
 8    1  0.9974463E-006  0.2840788E+03  0.7546771E-02  0.1093482E+00
         21   -1    0    0  504  503  0.00000000000E+00  0.00000000000E+00  0.16967523725E+03  0.16967523725E+03  0.00000000000E+00 0.  1.
         21   -1    0    0  503  504 -0.00000000000E+00 -0.00000000000E+00 -0.11890473093E+03  0.11890473093E+03  0.00000000000E+00 0.  1.
         25    2    1    2    0    0 -0.19512414192E+01  0.61848328409E+02  0.52672414296E+02  0.14909142910E+03  0.12499939174E+03 0.  0.
         25    2    1    2    0    0  0.19512414192E+01 -0.61848328409E+02 -0.19019079807E+01  0.13948853908E+03  0.12499764882E+03 0.  0.
          5    1    3    3  501    0  0.57193211776E+02  0.54085440129E+02  0.37725416960E+02  0.87416219274E+02  0.47000000000E+01 0.  1.
         -5    1    3    3    0  501 -0.59144453196E+02  0.77628882792E+01  0.14946997336E+02  0.61675209830E+02  0.47000000000E+01 0.  1.
          5    1    4    4  502    0  0.26429203347E+02 -0.10723051468E+02  0.53041878811E+02  0.60407098342E+02  0.47000000000E+01 0. -1.
         -5    1    4    4    0  502 -0.24477961927E+02 -0.51125276940E+02 -0.54943786792E+02  0.79081440739E+02  0.47000000000E+01 0. -1.
<mgrwt>
<rscale>  0 0.28407878E+03</rscale>
<asrwt>0</asrwt>
<pdfrwt beam="1">  1       21 0.26103883E-01 0.28407878E+03</pdfrwt>
<pdfrwt beam="2">  1       21 0.18293036E-01 0.28407878E+03</pdfrwt>
<totfact> 0.37262567E+05</totfact>
</mgrwt>
</event>
<event>
 8    1  0.9974463E-006  0.3594954E+03  0.7546771E-02  0.1058784E+00
         21   -1    0    0  504  503  0.00000000000E+00  0.00000000000E+00  0.59952552129E+02  0.59952552129E+02  0.00000000000E+00 0. -1.
         21   -1    0    0  503  504 -0.00000000000E+00 -0.00000000000E+00 -0.53891350928E+03  0.53891350928E+03  0.00000000000E+00 0. -1.
         25    2    1    2    0    0  0.12561882042E+03 -0.11173118305E+02 -0.19297825813E+03  0.26224235915E+03  0.12500208080E+03 0.  0.
         25    2    1    2    0    0 -0.12561882042E+03  0.11173118305E+02 -0.28598269902E+03  0.33662370226E+03  0.12499794465E+03 0.  0.
          5    1    3    3  501    0  0.11781911410E+03 -0.56442420702E+02 -0.15224043808E+03  0.20066472408E+03  0.47000000000E+01 0. -1.
         -5    1    3    3    0  501  0.77997063191E+01  0.45269302397E+02 -0.40737820051E+02  0.61577635069E+02  0.47000000000E+01 0. -1.
          5    1    4    4  502    0 -0.13755097251E+03 -0.20204358777E+02 -0.19500268117E+03  0.23953417672E+03  0.47000000000E+01 0. -1.
         -5    1    4    4    0  502  0.11932152091E+02  0.31377477082E+02 -0.90980017851E+02  0.97089525541E+02  0.47000000000E+01 0. -1.
<mgrwt>
<rscale>  0 0.35949543E+03</rscale>
<asrwt>0</asrwt>
<pdfrwt beam="1">  1       21 0.92234694E-02 0.35949543E+03</pdfrwt>
<pdfrwt beam="2">  1       21 0.82909772E-01 0.35949543E+03</pdfrwt>
<totfact> 0.11272693E+05</totfact>
</mgrwt>
</event>
<event>
 8    1  0.9974463E-006  0.3036649E+03  0.7546771E-02  0.1083423E+00
         21   -1    0    0  504  503  0.00000000000E+00  0.00000000000E+00  0.10149166475E+03  0.10149166475E+03  0.00000000000E+00 0.  1.
         21   -1    0    0  503  504 -0.00000000000E+00 -0.00000000000E+00 -0.22714270606E+03  0.22714270606E+03  0.00000000000E+00 0.  1.
         25    2    1    2    0    0  0.34900028065E+02  0.14754173364E+02  0.20946584508E+02  0.13228793732E+03  0.12500256545E+03 0.  0.
         25    2    1    2    0    0 -0.34900028065E+02 -0.14754173364E+02 -0.14659762582E+03  0.19634643348E+03  0.12500144182E+03 0.  0.
          5    1    3    3  501    0  0.47552121634E+02  0.62950844124E+02  0.29081492404E+01  0.79085778619E+02  0.47000000000E+01 0. -1.
         -5    1    3    3    0  501 -0.12652093569E+02 -0.48196670760E+02  0.18038435268E+02  0.53202158706E+02  0.47000000000E+01 0. -1.
          5    1    4    4  502    0  0.13967191519E+02  0.16743029219E+01 -0.14373557570E+03  0.14449875934E+03  0.47000000000E+01 0.  1.
         -5    1    4    4    0  502 -0.48867219584E+02 -0.16428476286E+02 -0.28620501142E+01  0.51847674141E+02  0.47000000000E+01 0.  1.
<mgrwt>
<rscale>  0 0.30366489E+03</rscale>
<asrwt>0</asrwt>
<pdfrwt beam="1">  1       21 0.15614102E-01 0.30366489E+03</pdfrwt>
<pdfrwt beam="2">  1       21 0.34945031E-01 0.30366489E+03</pdfrwt>
<totfact> 0.28037776E+05</totfact>
</mgrwt>
</event>
<event>
 8    1  0.9974463E-006  0.3054768E+03  0.7546771E-02  0.1082534E+00
         21   -1    0    0  504  503  0.00000000000E+00  0.00000000000E+00  0.43539022827E+02  0.43539022827E+02  0.00000000000E+00 0. -1.
         21   -1    0    0  503  504 -0.00000000000E+00 -0.00000000000E+00 -0.53581868099E+03  0.53581868099E+03  0.00000000000E+00 0. -1.
         25    2    1    2    0    0  0.80174431626E+02 -0.13138888654E+02 -0.30912621086E+03  0.34319994742E+03  0.12500647897E+03 0.  0.
         25    2    1    2    0    0 -0.80174431626E+02  0.13138888654E+02 -0.18315344730E+03  0.23615775640E+03  0.12499892307E+03 0.  0.
          5    1    3    3  501    0  0.17074876554E+02  0.18691376567E+02 -0.24889557940E+03  0.25022393653E+03  0.47000000000E+01 0.  1.
         -5    1    3    3    0  501  0.63099555072E+02 -0.31830265221E+02 -0.60230631461E+02  0.92976010888E+02  0.47000000000E+01 0.  1.
          5    1    4    4  502    0 -0.27136001725E+02  0.33648617795E+02  0.87042678192E+00  0.43490685347E+02  0.47000000000E+01 0. -1.
         -5    1    4    4    0  502 -0.53038429900E+02 -0.20509729142E+02 -0.18402387408E+03  0.19266707105E+03  0.47000000000E+01 0. -1.
<mgrwt>
<rscale>  0 0.30547682E+03</rscale>
<asrwt>0</asrwt>
<pdfrwt beam="1">  1       21 0.66983108E-02 0.30547682E+03</pdfrwt>
<pdfrwt beam="2">  1       21 0.82433648E-01 0.30547682E+03</pdfrwt>
<totfact> 0.20313343E+05</totfact>
</mgrwt>
</event>
<event>
 8    1  0.9974463E-006  0.3008777E+03  0.7546771E-02  0.1084803E+00
         21   -1    0    0  504  503  0.00000000000E+00  0.00000000000E+00  0.15049031251E+03  0.15049031251E+03  0.00000000000E+00 0.  1.
         21   -1    0    0  503  504 -0.00000000000E+00 -0.00000000000E+00 -0.15038739962E+03  0.15038739962E+03  0.00000000000E+00 0.  1.
         25    2    1    2    0    0  0.71542150227E+02  0.12312836971E+02 -0.41631127458E+02  0.15042496254E+03  0.12499853347E+03 0.  0.
         25    2    1    2    0    0 -0.71542150227E+02 -0.12312836971E+02  0.41734040352E+02  0.15045274959E+03  0.12499765806E+03 0.  0.
          5    1    3    3  501    0  0.64760905270E+02  0.14210495065E+02 -0.84057642231E+02  0.10716198131E+03  0.47000000000E+01 0. -1.
         -5    1    3    3    0  501  0.67812449576E+01 -0.18976580938E+01  0.42426514772E+02  0.43262981233E+02  0.47000000000E+01 0. -1.
          5    1    4    4  502    0  0.18675042503E+00 -0.31779397580E+02  0.64937661616E+02  0.72449671376E+02  0.47000000000E+01 0.  1.
         -5    1    4    4    0  502 -0.71728900652E+02  0.19466560608E+02 -0.23203621264E+02  0.78003078212E+02  0.47000000000E+01 0.  1.
<mgrwt>
<rscale>  0 0.30087769E+03</rscale>
<asrwt>0</asrwt>
<pdfrwt beam="1">  1       21 0.23152356E-01 0.30087769E+03</pdfrwt>
<pdfrwt beam="2">  1       21 0.23136523E-01 0.30087769E+03</pdfrwt>
<totfact> 0.30009609E+05</totfact>
</mgrwt>
</event>
<event>
 8    1  0.9974463E-006  0.4918717E+03  0.7546771E-02  0.1015923E+00
         21   -1    0    0  504  503  0.00000000000E+00  0.00000000000E+00  0.35668659075E+03  0.35668659075E+03  0.00000000000E+00 0. -1.
         21   -1    0    0  503  504 -0.00000000000E+00 -0.00000000000E+00 -0.16957305385E+03  0.16957305385E+03  0.00000000000E+00 0. -1.
         25    2    1    2    0    0  0.60877828817E+02 -0.20128401388E+03  0.12058543338E+03  0.27274024293E+03  0.12500011635E+03 0.  0.
         25    2    1    2    0    0 -0.60877828817E+02  0.20128401388E+03  0.66528103523E+02  0.25351940167E+03  0.12499893672E+03 0.  0.
          5    1    3    3  501    0  0.14695083936E+01 -0.18099513926E+03  0.97826008502E+02  0.20579946022E+03  0.47000000000E+01 0. -1.
         -5    1    3    3    0  501  0.59408320423E+02 -0.20288874620E+02  0.22759424881E+02  0.66940782710E+02  0.47000000000E+01 0. -1.
          5    1    4    4  502    0 -0.80114076929E+02  0.14938845353E+03  0.91419382959E+02  0.19265193731E+03  0.47000000000E+01 0. -1.
         -5    1    4    4    0  502  0.19236248112E+02  0.51895560347E+02 -0.24891279436E+02  0.60867464356E+02  0.47000000000E+01 0. -1.
<mgrwt>
<rscale>  0 0.49187167E+03</rscale>
<asrwt>0</asrwt>
<pdfrwt beam="1">  1       21 0.54874860E-01 0.49187167E+03</pdfrwt>
<pdfrwt beam="2">  1       21 0.26088162E-01 0.49187167E+03</pdfrwt>
<totfact> 0.39754322E+04</totfact>
</mgrwt>
</event>
<event>
 8    1  0.9974463E-006  0.2899267E+03  0.7546771E-02  0.1090387E+00
         21   -1    0    0  504  503  0.00000000000E+00  0.00000000000E+00  0.29590155815E+02  0.29590155815E+02  0.00000000000E+00 0. -1.
         21   -1    0    0  503  504 -0.00000000000E+00 -0.00000000000E+00 -0.71018124946E+03  0.71018124946E+03  0.00000000000E+00 0. -1.
         25    2    1    2    0    0 -0.71081537112E+02  0.18335901575E+02 -0.34177458207E+03  0.37124740964E+03  0.12500393599E+03 0.  0.
         25    2    1    2    0    0  0.71081537112E+02 -0.18335901575E+02 -0.33881651158E+03  0.36852399564E+03  0.12499806653E+03 0.  0.
          5    1    3    3  501    0 -0.54234418398E+02 -0.50299955595E+02 -0.17759917946E+03  0.19244483941E+03  0.47000000000E+01 0. -1.
         -5    1    3    3    0  501 -0.16847118714E+02  0.68635857170E+02 -0.16417540261E+03  0.17880257023E+03  0.47000000000E+01 0. -1.
          5    1    4    4  502    0 -0.14387001672E+02 -0.36939377409E+02 -0.20315490628E+03  0.20703987385E+03  0.47000000000E+01 0.  1.
         -5    1    4    4    0  502  0.85468538784E+02  0.18603475834E+02 -0.13566160530E+03  0.16148412178E+03  0.47000000000E+01 0.  1.
<mgrwt>
<rscale>  0 0.28992671E+03</rscale>
<asrwt>0</asrwt>
<pdfrwt beam="1">  1       21 0.45523322E-02 0.28992671E+03</pdfrwt>
<pdfrwt beam="2">  1       21 0.10925864E+00 0.28992671E+03</pdfrwt>
<totfact> 0.20304427E+05</totfact>
</mgrwt>
</event>
<event>
 8    1  0.9974463E-006  0.3845633E+03  0.7546771E-02  0.1049260E+00
         21   -1    0    0  504  503  0.00000000000E+00  0.00000000000E+00  0.25632256121E+03  0.25632256121E+03  0.00000000000E+00 0. -1.
         21   -1    0    0  503  504 -0.00000000000E+00 -0.00000000000E+00 -0.14424105001E+03  0.14424105001E+03  0.00000000000E+00 0. -1.
         25    2    1    2    0    0  0.13581057090E+02  0.25213112389E+02 -0.93170289447E+02  0.15851781623E+03  0.12500819604E+03 0.  0.
         25    2    1    2    0    0 -0.13581057090E+02 -0.25213112389E+02  0.20525180064E+03  0.24204579499E+03  0.12505086587E+03 0.  0.
          5    1    3    3  501    0 -0.19688890782E+02 -0.24155355552E+02 -0.93636766273E+02  0.98798115468E+02  0.47000000000E+01 0.  1.
         -5    1    3    3    0  501  0.33269947872E+02  0.49368467941E+02  0.46647682596E+00  0.59719700760E+02  0.47000000000E+01 0.  1.
          5    1    4    4  502    0 -0.49739547245E+02 -0.45450584078E+02  0.58079245568E+02  0.89078992579E+02  0.47000000000E+01 0. -1.
         -5    1    4    4    0  502  0.36158490155E+02  0.20237471689E+02  0.14717255508E+03  0.15296680241E+03  0.47000000000E+01 0. -1.
<mgrwt>
<rscale>  0 0.38456331E+03</rscale>
<asrwt>0</asrwt>
<pdfrwt beam="1">  1       21 0.39434240E-01 0.38456331E+03</pdfrwt>
<pdfrwt beam="2">  1       21 0.22190931E-01 0.38456331E+03</pdfrwt>
<totfact> 0.11148163E+05</totfact>
</mgrwt>
</event>
<event>
 8    1  0.9974463E-006  0.2896106E+03  0.7546771E-02  0.1090553E+00
         21   -1    0    0  504  503  0.00000000000E+00  0.00000000000E+00  0.61479255939E+03  0.61479255939E+03  0.00000000000E+00 0. -1.
         21   -1    0    0  503  504 -0.00000000000E+00 -0.00000000000E+00 -0.34106758430E+02  0.34106758430E+02  0.00000000000E+00 0. -1.
         25    2    1    2    0    0 -0.31962710554E+02  0.21459836379E+02  0.15111335447E+03  0.19985355373E+03  0.12499623032E+03 0.  0.
         25    2    1    2    0    0  0.31962710554E+02 -0.21459836379E+02  0.42957244649E+03  0.44904576409E+03  0.12500988770E+03 0.  0.
          5    1    3    3  501    0 -0.45492767465E+02  0.60634493414E+02  0.13546680505E+03  0.15530447178E+03  0.47000000000E+01 0. -1.
         -5    1    3    3    0  501  0.13530056911E+02 -0.39174657035E+02  0.15646549417E+02  0.44549081949E+02  0.47000000000E+01 0. -1.
          5    1    4    4  502    0  0.62339954137E+02  0.21490641136E+02  0.32763581587E+03  0.33423859050E+03  0.47000000000E+01 0.  1.
         -5    1    4    4    0  502 -0.30377243583E+02 -0.42950477516E+02  0.10193663062E+03  0.11480717360E+03  0.47000000000E+01 0.  1.
<mgrwt>
<rscale>  0 0.28961064E+03</rscale>
<asrwt>0</asrwt>
<pdfrwt beam="1">  1       21 0.94583462E-01 0.28961064E+03</pdfrwt>
<pdfrwt beam="2">  1       21 0.52471941E-02 0.28961064E+03</pdfrwt>
<totfact> 0.22552645E+05</totfact>
</mgrwt>
</event>
<event>
 8    1  0.9974463E-006  0.2973681E+03  0.7546771E-02  0.1086564E+00
         21   -1    0    0  504  503  0.00000000000E+00  0.00000000000E+00  0.22938553589E+02  0.22938553589E+02  0.00000000000E+00 0.  1.
         21   -1    0    0  503  504 -0.00000000000E+00 -0.00000000000E+00 -0.96374662837E+03  0.96374662837E+03  0.00000000000E+00 0.  1.
         25    2    1    2    0    0 -0.58244113639E+02  0.58018856153E+00 -0.28599242500E+03  0.31750527989E+03  0.12500088885E+03 0.  0.
         25    2    1    2    0    0  0.58244113639E+02 -0.58018856153E+00 -0.65481564978E+03  0.66917990207E+03  0.12500197092E+03 0.  0.
          5    1    3    3  501    0  0.22422288071E+02 -0.39786957555E+02 -0.12081092296E+03  0.12924058998E+03  0.47000000000E+01 0. -1.
         -5    1    3    3    0  501 -0.80666401710E+02  0.40367146117E+02 -0.16518150204E+03  0.18826468991E+03  0.47000000000E+01 0. -1.
          5    1    4    4  502    0  0.69793088656E+02  0.36469987424E+02 -0.24235542123E+03  0.25487129185E+03  0.47000000000E+01 0.  1.
         -5    1    4    4    0  502 -0.11548975017E+02 -0.37050175985E+02 -0.41246022855E+03  0.41430861022E+03  0.47000000000E+01 0.  1.
<mgrwt>
<rscale>  0 0.29736815E+03</rscale>
<asrwt>0</asrwt>
<pdfrwt beam="1">  1       21 0.35290086E-02 0.29736815E+03</pdfrwt>
<pdfrwt beam="2">  1       21 0.14826870E+00 0.29736815E+03</pdfrwt>
<totfact> 0.14311777E+05</totfact>
</mgrwt>
</event>
<event>
 8    1  0.9974463E-006  0.4362446E+03  0.7546771E-02  0.1031905E+00
         21   -1    0    0  504  503  0.00000000000E+00  0.00000000000E+00  0.52946655431E+03  0.52946655431E+03  0.00000000000E+00 0.  1.
         21   -1    0    0  503  504 -0.00000000000E+00 -0.00000000000E+00 -0.89858991171E+02  0.89858991171E+02  0.00000000000E+00 0.  1.
         25    2    1    2    0    0 -0.95161705352E+02  0.49902164842E+02  0.42260026858E+03  0.45361023896E+03  0.12500114264E+03 0.  0.
         25    2    1    2    0    0  0.95161705352E+02 -0.49902164842E+02  0.17007294560E+02  0.16571530652E+03  0.12500535399E+03 0.  0.
          5    1    3    3  501    0 -0.17383067739E+02  0.76280657500E+02  0.15561366422E+03  0.17423722978E+03  0.47000000000E+01 0.  1.
         -5    1    3    3    0  501 -0.77778637614E+02 -0.26378492657E+02  0.26698660436E+03  0.27937300917E+03  0.47000000000E+01 0.  1.
          5    1    4    4  502    0  0.88084542332E+02 -0.57172250010E+02  0.60175247215E+02  0.12112267808E+03  0.47000000000E+01 0.  1.
         -5    1    4    4    0  502  0.70771630208E+01  0.72700851675E+01 -0.43167952655E+02  0.44592628440E+02  0.47000000000E+01 0.  1.
<mgrwt>
<rscale>  0 0.43624457E+03</rscale>
<asrwt>0</asrwt>
<pdfrwt beam="1">  1       21 0.81456391E-01 0.43624457E+03</pdfrwt>
<pdfrwt beam="2">  1       21 0.13824461E-01 0.43624457E+03</pdfrwt>
<totfact> 0.55463466E+04</totfact>
</mgrwt>
</event>
<event>
 8    1  0.9974463E-006  0.3023763E+03  0.7546771E-02  0.1084059E+00
         21   -1    0    0  504  503  0.00000000000E+00  0.00000000000E+00  0.85578828954E+03  0.85578828954E+03  0.00000000000E+00 0.  1.
         21   -1    0    0  503  504 -0.00000000000E+00 -0.00000000000E+00 -0.26709705800E+02  0.26709705800E+02  0.00000000000E+00 0.  1.
         25    2    1    2    0    0  0.62897176653E+02  0.52477414774E+02  0.48127750385E+03  0.50394684932E+03  0.12499782933E+03 0.  0.
         25    2    1    2    0    0 -0.62897176653E+02 -0.52477414774E+02  0.34780107989E+03  0.37855114602E+03  0.12500178033E+03 0.  0.
          5    1    3    3  501    0  0.58668465867E+02  0.47308155962E+02  0.48772863451E+03  0.49353962498E+03  0.47000000000E+01 0. -1.
         -5    1    3    3    0  501  0.42287107861E+01  0.51692588122E+01 -0.64511306621E+01  0.10407224337E+02  0.47000000000E+01 0. -1.
          5    1    4    4  502    0 -0.17302961052E+02 -0.54615366384E+02  0.31952132804E+03  0.32465088908E+03  0.47000000000E+01 0.  1.
         -5    1    4    4    0  502 -0.45594215602E+02  0.21379516102E+01  0.28279751850E+02  0.53900256939E+02  0.47000000000E+01 0.  1.
<mgrwt>
<rscale>  0 0.30237628E+03</rscale>
<asrwt>0</asrwt>
<pdfrwt beam="1">  1       21 0.13165972E+00 0.30237628E+03</pdfrwt>
<pdfrwt beam="2">  1       21 0.41091862E-02 0.30237628E+03</pdfrwt>
<totfact> 0.15087225E+05</totfact>
</mgrwt>
</event>
<event>
 8    1  0.9974463E-006  0.3313059E+03  0.7546771E-02  0.1070561E+00
         21   -1    0    0  504  503  0.00000000000E+00  0.00000000000E+00  0.51270298404E+02  0.51270298404E+02  0.00000000000E+00 0. -1.
         21   -1    0    0  503  504 -0.00000000000E+00 -0.00000000000E+00 -0.53522016649E+03  0.53522016649E+03  0.00000000000E+00 0. -1.
         25    2    1    2    0    0  0.90712053770E+02  0.93235354312E+01 -0.34668701068E+03  0.37965360420E+03  0.12501748196E+03 0.  0.
         25    2    1    2    0    0 -0.90712053770E+02 -0.93235354312E+01 -0.13726285740E+03  0.20683686069E+03  0.12499915962E+03 0.  0.
          5    1    3    3  501    0  0.78785265145E+02 -0.39634365301E+02 -0.13018784863E+03  0.15731804362E+03  0.47000000000E+01 0.  1.
         -5    1    3    3    0  501  0.11926788625E+02  0.48957900732E+02 -0.21649916205E+03  0.22233556058E+03  0.47000000000E+01 0.  1.
          5    1    4    4  502    0 -0.11021700565E+03  0.72149363011E+01 -0.61004099430E+02  0.12626731084E+03  0.47000000000E+01 0. -1.
         -5    1    4    4    0  502  0.19504951881E+02 -0.16538471732E+02 -0.76258757967E+02  0.80569549842E+02  0.47000000000E+01 0. -1.
<mgrwt>
<rscale>  0 0.33130589E+03</rscale>
<asrwt>0</asrwt>
<pdfrwt beam="1">  1       21 0.78877383E-02 0.33130589E+03</pdfrwt>
<pdfrwt beam="2">  1       21 0.82341563E-01 0.33130589E+03</pdfrwt>
<totfact> 0.15207341E+05</totfact>
</mgrwt>
</event>
<event>
 8    1  0.9974463E-006  0.2979265E+03  0.7546771E-02  0.1086282E+00
         21   -1    0    0  504  503  0.00000000000E+00  0.00000000000E+00  0.40690552254E+02  0.40690552254E+02  0.00000000000E+00 0. -1.
         21   -1    0    0  503  504 -0.00000000000E+00 -0.00000000000E+00 -0.54533659008E+03  0.54533659008E+03  0.00000000000E+00 0. -1.
         25    2    1    2    0    0 -0.27009498403E+02  0.74316109391E+02 -0.21760420932E+03  0.26311379294E+03  0.12499951601E+03 0.  0.
         25    2    1    2    0    0  0.27009498403E+02 -0.74316109391E+02 -0.28704182851E+03  0.32291334940E+03  0.12501049070E+03 0.  0.
          5    1    3    3  501    0 -0.52160920083E+02  0.79497041971E+02 -0.21704185351E+03  0.23700168236E+03  0.47000000000E+01 0.  1.
         -5    1    3    3    0  501  0.25151421680E+02 -0.51809325799E+01 -0.56235580973E+00  0.26112110580E+02  0.47000000000E+01 0.  1.
          5    1    4    4  502    0 -0.43670298306E+02 -0.55217806555E+01 -0.54076356675E+02  0.69885101180E+02  0.47000000000E+01 0. -1.
         -5    1    4    4    0  502  0.70679796709E+02 -0.68794328735E+02 -0.23296547183E+03  0.25302824822E+03  0.47000000000E+01 0. -1.
<mgrwt>
<rscale>  0 0.29792648E+03</rscale>
<asrwt>0</asrwt>
<pdfrwt beam="1">  1       21 0.62600854E-02 0.29792648E+03</pdfrwt>
<pdfrwt beam="2">  1       21 0.83897931E-01 0.29792648E+03</pdfrwt>
<totfact> 0.21975577E+05</totfact>
</mgrwt>
</event>
<event>
 8    1  0.9974463E-006  0.3010265E+03  0.7546771E-02  0.1084729E+00
         21   -1    0    0  504  503  0.00000000000E+00  0.00000000000E+00  0.21071201743E+03  0.21071201743E+03  0.00000000000E+00 0.  1.
         21   -1    0    0  503  504 -0.00000000000E+00 -0.00000000000E+00 -0.10751283247E+03  0.10751283247E+03  0.00000000000E+00 0.  1.
         25    2    1    2    0    0  0.10002300652E+02 -0.75157226851E+02  0.13785608630E+02  0.14685366566E+03  0.12500920505E+03 0.  0.
         25    2    1    2    0    0 -0.10002300652E+02  0.75157226851E+02  0.89413576330E+02  0.17137118423E+03  0.12499856153E+03 0.  0.
          5    1    3    3  501    0 -0.22057514540E+02 -0.48979084403E+01  0.54672218913E+02  0.59343617817E+02  0.47000000000E+01 0.  1.
         -5    1    3    3    0  501  0.32059815192E+02 -0.70259318411E+02 -0.40886610283E+02  0.87510047847E+02  0.47000000000E+01 0.  1.
          5    1    4    4  502    0  0.27949349460E+02 -0.25074989974E+02  0.14503357749E+02  0.40526024274E+02  0.47000000000E+01 0. -1.
         -5    1    4    4    0  502 -0.37951650112E+02  0.10023221683E+03  0.74910218581E+02  0.13084515996E+03  0.47000000000E+01 0. -1.
<mgrwt>
<rscale>  0 0.30102655E+03</rscale>
<asrwt>0</asrwt>
<pdfrwt beam="1">  1       21 0.32417233E-01 0.30102655E+03</pdfrwt>
<pdfrwt beam="2">  1       21 0.16540436E-01 0.30102655E+03</pdfrwt>
<totfact> 0.29293413E+05</totfact>
</mgrwt>
</event>
<event>
 8    1  0.9974463E-006  0.8807007E+03  0.7546771E-02  0.9450033E-01
         21   -1    0    0  504  503  0.00000000000E+00  0.00000000000E+00  0.62260040957E+03  0.62260040957E+03  0.00000000000E+00 0.  1.
         21   -1    0    0  503  504 -0.00000000000E+00 -0.00000000000E+00 -0.31144924962E+03  0.31144924962E+03  0.00000000000E+00 0.  1.
         25    2    1    2    0    0 -0.24588429672E+03 -0.15352062381E+03 -0.17003419248E+03  0.35855833512E+03  0.12499913505E+03 0.  0.
         25    2    1    2    0    0  0.24588429672E+03  0.15352062381E+03  0.48118535243E+03  0.57549132406E+03  0.12499300527E+03 0.  0.
          5    1    3    3  501    0 -0.18072053065E+03 -0.15183836715E+03 -0.84149745579E+02  0.25063533194E+03  0.47000000000E+01 0.  1.
         -5    1    3    3    0  501 -0.65163766071E+02 -0.16822566679E+01 -0.85884446901E+02  0.10792300318E+03  0.47000000000E+01 0.  1.
          5    1    4    4  502    0  0.19640886455E+03  0.61291783252E+02  0.36518011915E+03  0.41917983514E+03  0.47000000000E+01 0. -1.
         -5    1    4    4    0  502  0.49475432179E+02  0.92228840561E+02  0.11600523327E+03  0.15631148892E+03  0.47000000000E+01 0. -1.
<mgrwt>
<rscale>  0 0.88070070E+03</rscale>
<asrwt>0</asrwt>
<pdfrwt beam="1">  1       21 0.95784678E-01 0.88070070E+03</pdfrwt>
<pdfrwt beam="2">  1       21 0.47915270E-01 0.88070070E+03</pdfrwt>
<totfact> 0.29695167E+03</totfact>
</mgrwt>
</event>
<event>
 8    1  0.9974463E-006  0.2777662E+03  0.7546771E-02  0.1096915E+00
         21   -1    0    0  504  503  0.00000000000E+00  0.00000000000E+00  0.10769049796E+04  0.10769049796E+04  0.00000000000E+00 0.  1.
         21   -1    0    0  503  504 -0.00000000000E+00 -0.00000000000E+00 -0.17911063379E+02  0.17911063379E+02  0.00000000000E+00 0.  1.
         25    2    1    2    0    0  0.59200842900E+02 -0.85767065854E+01  0.49291258259E+03  0.51202057132E+03  0.12499580666E+03 0.  0.
         25    2    1    2    0    0 -0.59200842900E+02  0.85767065854E+01  0.56608133366E+03  0.58279547169E+03  0.12499674319E+03 0.  0.
          5    1    3    3  501    0 -0.36656946453E+02  0.61513687315E+01  0.88276012304E+02  0.95897421283E+02  0.47000000000E+01 0. -1.
         -5    1    3    3    0  501  0.95857789352E+02 -0.14728075317E+02  0.40463657029E+03  0.41612315003E+03  0.47000000000E+01 0. -1.
          5    1    4    4  502    0 -0.91392455204E+02 -0.14217431124E+02  0.46610638489E+03  0.47521781138E+03  0.47000000000E+01 0. -1.
         -5    1    4    4    0  502  0.32191612304E+02  0.22794137709E+02  0.99974948769E+02  0.10757766031E+03  0.47000000000E+01 0. -1.
<mgrwt>
<rscale>  0 0.27776618E+03</rscale>
<asrwt>0</asrwt>
<pdfrwt beam="1">  1       21 0.16567764E+00 0.27776618E+03</pdfrwt>
<pdfrwt beam="2">  1       21 0.27555491E-02 0.27776618E+03</pdfrwt>
<totfact> 0.16108321E+05</totfact>
</mgrwt>
</event>
<event>
 8    1  0.9974463E-006  0.3552307E+03  0.7546771E-02  0.1060488E+00
         21   -1    0    0  504  503  0.00000000000E+00  0.00000000000E+00  0.11686958266E+04  0.11686958266E+04  0.00000000000E+00 0.  1.
         21   -1    0    0  503  504 -0.00000000000E+00 -0.00000000000E+00 -0.26993520542E+02  0.26993520542E+02  0.00000000000E+00 0.  1.
         25    2    1    2    0    0 -0.71430245584E+02  0.10334109953E+03  0.53123463656E+03  0.56001400700E+03  0.12499514435E+03 0.  0.
         25    2    1    2    0    0  0.71430245584E+02 -0.10334109953E+03  0.61046766948E+03  0.63567534014E+03  0.12502279686E+03 0.  0.
          5    1    3    3  501    0 -0.10126956264E+03  0.44020039795E+02  0.32133053642E+03  0.33980684493E+03  0.47000000000E+01 0.  1.
         -5    1    3    3    0  501  0.29839317060E+02  0.59321059733E+02  0.20990410014E+03  0.22020716207E+03  0.47000000000E+01 0.  1.
          5    1    4    4  502    0  0.32727731953E+02  0.11200460971E+02  0.42676935031E+02  0.55135882585E+02  0.47000000000E+01 0.  1.
         -5    1    4    4    0  502  0.38702513631E+02 -0.11454156050E+03  0.56779073445E+03  0.58053945755E+03  0.47000000000E+01 0.  1.
<mgrwt>
<rscale>  0 0.35523071E+03</rscale>
<asrwt>0</asrwt>
<pdfrwt beam="1">  1       21 0.17979932E+00 0.35523071E+03</pdfrwt>
<pdfrwt beam="2">  1       21 0.41528502E-02 0.35523071E+03</pdfrwt>
<totfact> 0.62474285E+04</totfact>
</mgrwt>
</event>
<event>
 8    1  0.9974463E-006  0.2826427E+03  0.7546771E-02  0.1094254E+00
         21   -1    0    0  504  503  0.00000000000E+00  0.00000000000E+00  0.14525608836E+03  0.14525608836E+03  0.00000000000E+00 0.  1.
         21   -1    0    0  503  504 -0.00000000000E+00 -0.00000000000E+00 -0.13749317574E+03  0.13749317574E+03  0.00000000000E+00 0.  1.
         25    2    1    2    0    0 -0.15708773508E+02 -0.32929552778E+02 -0.51062245021E+02  0.13986695140E+03  0.12499716083E+03 0.  0.
         25    2    1    2    0    0  0.15708773508E+02  0.32929552778E+02  0.58825157645E+02  0.14288231270E+03  0.12499534031E+03 0.  0.
          5    1    3    3  501    0 -0.42220911085E+02 -0.84848363717E+00 -0.78874088026E+02  0.89590942730E+02  0.47000000000E+01 0.  1.
         -5    1    3    3    0  501  0.26512137577E+02 -0.32081069140E+02  0.27811843005E+02  0.50276008666E+02  0.47000000000E+01 0.  1.
          5    1    4    4  502    0  0.50951391672E+02 -0.24099248046E+02  0.49985308023E+01  0.56779339375E+02  0.47000000000E+01 0.  1.
         -5    1    4    4    0  502 -0.35242618164E+02  0.57028800824E+02  0.53826626843E+02  0.86102973327E+02  0.47000000000E+01 0.  1.
<mgrwt>
<rscale>  0 0.28264268E+03</rscale>
<asrwt>0</asrwt>
<pdfrwt beam="1">  1       21 0.22347091E-01 0.28264268E+03</pdfrwt>
<pdfrwt beam="2">  1       21 0.21152796E-01 0.28264268E+03</pdfrwt>
<totfact> 0.38215731E+05</totfact>
</mgrwt>
</event>
<event>
 8    1  0.9974463E-006  0.2989970E+03  0.7546771E-02  0.1085743E+00
         21   -1    0    0  504  503  0.00000000000E+00  0.00000000000E+00  0.34359669972E+03  0.34359669972E+03  0.00000000000E+00 0. -1.
         21   -1    0    0  503  504 -0.00000000000E+00 -0.00000000000E+00 -0.65046606588E+02  0.65046606588E+02  0.00000000000E+00 0. -1.
         25    2    1    2    0    0  0.76091481685E+02  0.68432419213E+01  0.18001121679E+03  0.23208807183E+03  0.12499636542E+03 0.  0.
         25    2    1    2    0    0 -0.76091481685E+02 -0.68432419213E+01  0.98538876346E+02  0.17655523448E+03  0.12500038851E+03 0.  0.
          5    1    3    3  501    0  0.97756651242E+01  0.14385960182E+02 -0.16541785720E+02  0.24458948338E+02  0.47000000000E+01 0.  1.
         -5    1    3    3    0  501  0.66315816561E+02 -0.75427182605E+01  0.19655300251E+03  0.20762912349E+03  0.47000000000E+01 0.  1.
          5    1    4    4  502    0 -0.71717702714E+02  0.39035723041E+02  0.10124146831E+03  0.13015045702E+03  0.47000000000E+01 0.  1.
         -5    1    4    4    0  502 -0.43737789714E+01 -0.45878964962E+02 -0.27025919656E+01  0.46404777468E+02  0.47000000000E+01 0.  1.
<mgrwt>
<rscale>  0 0.29899699E+03</rscale>
<asrwt>0</asrwt>
<pdfrwt beam="1">  1       21 0.52861030E-01 0.29899699E+03</pdfrwt>
<pdfrwt beam="2">  1       21 0.10007170E-01 0.29899699E+03</pdfrwt>
<totfact> 0.26771037E+05</totfact>
</mgrwt>
</event>
<event>
 8    1  0.9974463E-006  0.3375158E+03  0.7546771E-02  0.1067859E+00
         21   -1    0    0  504  503  0.00000000000E+00  0.00000000000E+00  0.11399272556E+03  0.11399272556E+03  0.00000000000E+00 0. -1.
         21   -1    0    0  503  504 -0.00000000000E+00 -0.00000000000E+00 -0.24983378975E+03  0.24983378975E+03  0.00000000000E+00 0. -1.
         25    2    1    2    0    0  0.97018966413E+01 -0.95505380812E+02 -0.28968153053E+01  0.15763611276E+03  0.12500139177E+03 0.  0.
         25    2    1    2    0    0 -0.97018966413E+01  0.95505380812E+02 -0.13294424888E+03  0.20619040255E+03  0.12499961693E+03 0.  0.
          5    1    3    3  501    0 -0.32624396086E+02  0.99175541006E+01  0.22516005493E+02  0.41131126932E+02  0.47000000000E+01 0. -1.
         -5    1    3    3    0  501  0.42326292728E+02 -0.10542293491E+03 -0.25412820798E+02  0.11650498583E+03  0.47000000000E+01 0. -1.
          5    1    4    4  502    0  0.53931625166E+02  0.39238038061E+02 -0.86300023854E+02  0.10916972081E+03  0.47000000000E+01 0.  1.
         -5    1    4    4    0  502 -0.63633521808E+02  0.56267342751E+02 -0.46644225024E+02  0.97020681744E+02  0.47000000000E+01 0.  1.
<mgrwt>
<rscale>  0 0.33751583E+03</rscale>
<asrwt>0</asrwt>
<pdfrwt beam="1">  1       21 0.17537343E-01 0.33751583E+03</pdfrwt>
<pdfrwt beam="2">  1       21 0.38435967E-01 0.33751583E+03</pdfrwt>
<totfact> 0.18516955E+05</totfact>
</mgrwt>
</event>
<event>
 8    1  0.9974463E-006  0.2841959E+03  0.7546771E-02  0.1093419E+00
         21   -1    0    0  504  503  0.00000000000E+00  0.00000000000E+00  0.71769900509E+03  0.71769900509E+03  0.00000000000E+00 0.  1.
         21   -1    0    0  503  504 -0.00000000000E+00 -0.00000000000E+00 -0.28134121088E+02  0.28134121088E+02  0.00000000000E+00 0.  1.
         25    2    1    2    0    0 -0.60813566019E+02  0.22054642899E+02  0.39616336064E+03  0.42042188769E+03  0.12499783298E+03 0.  0.
         25    2    1    2    0    0  0.60813566019E+02 -0.22054642899E+02  0.29340152336E+03  0.32541123849E+03  0.12499329238E+03 0.  0.
          5    1    3    3  501    0 -0.46857634158E+02  0.25343920362E+02  0.47787782934E+02  0.71719693083E+02  0.47000000000E+01 0. -1.
         -5    1    3    3    0  501 -0.13955931861E+02 -0.32892774627E+01  0.34837557771E+03  0.34870219461E+03  0.47000000000E+01 0. -1.
          5    1    4    4  502    0  0.30962723771E+01 -0.12438747953E+01  0.25010466435E+03  0.25017107598E+03  0.47000000000E+01 0.  1.
         -5    1    4    4    0  502  0.57717293641E+02 -0.20810768104E+02  0.43296859014E+02  0.75240162512E+02  0.47000000000E+01 0.  1.
<mgrwt>
<rscale>  0 0.28419592E+03</rscale>
<asrwt>0</asrwt>
<pdfrwt beam="1">  1       21 0.11041522E+00 0.28419592E+03</pdfrwt>
<pdfrwt beam="2">  1       21 0.43283269E-02 0.28419592E+03</pdfrwt>
<totfact> 0.21591751E+05</totfact>
</mgrwt>
</event>
<event>
 8    1  0.9974463E-006  0.3018652E+03  0.7546771E-02  0.1084312E+00
         21   -1    0    0  504  503  0.00000000000E+00  0.00000000000E+00  0.70941153673E+02  0.70941153673E+02  0.00000000000E+00 0. -1.
         21   -1    0    0  503  504 -0.00000000000E+00 -0.00000000000E+00 -0.32112035197E+03  0.32112035197E+03  0.00000000000E+00 0. -1.
         25    2    1    2    0    0 -0.82798498589E+02 -0.16751697387E+02 -0.13066376050E+03  0.19958413804E+03  0.12499839646E+03 0.  0.
         25    2    1    2    0    0  0.82798498589E+02  0.16751697387E+02 -0.11951543780E+03  0.19247736760E+03  0.12500954536E+03 0.  0.
          5    1    3    3  501    0 -0.70253083532E+02 -0.15342972455E+02 -0.15546847138E+03  0.17135763229E+03  0.47000000000E+01 0. -1.
         -5    1    3    3    0  501 -0.12545415057E+02 -0.14087249314E+01  0.24804710889E+02  0.28226505755E+02  0.47000000000E+01 0. -1.
          5    1    4    4  502    0  0.11472328667E+02 -0.50930078823E+02 -0.42996402305E+02  0.67795780585E+02  0.47000000000E+01 0. -1.
         -5    1    4    4    0  502  0.71326169922E+02  0.67681776210E+02 -0.76519035494E+02  0.12468158701E+03  0.47000000000E+01 0. -1.
<mgrwt>
<rscale>  0 0.30186519E+03</rscale>
<asrwt>0</asrwt>
<pdfrwt beam="1">  1       21 0.10914024E-01 0.30186519E+03</pdfrwt>
<pdfrwt beam="2">  1       21 0.49403130E-01 0.30186519E+03</pdfrwt>
<totfact> 0.26431701E+05</totfact>
</mgrwt>
</event>
<event>
 8    1  0.9974463E-006  0.2562453E+03  0.7546771E-02  0.1109420E+00
         21   -1    0    0  504  503  0.00000000000E+00  0.00000000000E+00  0.70077036451E+02  0.70077036451E+02  0.00000000000E+00 0. -1.
         21   -1    0    0  503  504 -0.00000000000E+00 -0.00000000000E+00 -0.23424806355E+03  0.23424806355E+03  0.00000000000E+00 0. -1.
         25    2    1    2    0    0  0.22820182940E+02  0.75092301467E+01 -0.99457348015E+02  0.16153423614E+03  0.12499758432E+03 0.  0.
         25    2    1    2    0    0 -0.22820182940E+02 -0.75092301467E+01 -0.64713679088E+02  0.14279086386E+03  0.12499688498E+03 0.  0.
          5    1    3    3  501    0 -0.41824985962E+02  0.35501402809E+02 -0.56490170437E+02  0.78885413152E+02  0.47000000000E+01 0.  1.
         -5    1    3    3    0  501  0.64645168902E+02 -0.27992172662E+02 -0.42967177579E+02  0.82648822991E+02  0.47000000000E+01 0.  1.
          5    1    4    4  502    0 -0.27050906661E+02 -0.19313958206E+02 -0.99768808833E+02  0.10526483624E+03  0.47000000000E+01 0.  1.
         -5    1    4    4    0  502  0.42307237213E+01  0.11804728059E+02  0.35055129745E+02  0.37526027623E+02  0.47000000000E+01 0.  1.
<mgrwt>
<rscale>  0 0.25624527E+03</rscale>
<asrwt>0</asrwt>
<pdfrwt beam="1">  1       21 0.10781083E-01 0.25624527E+03</pdfrwt>
<pdfrwt beam="2">  1       21 0.36038164E-01 0.25624527E+03</pdfrwt>
<totfact> 0.52095146E+05</totfact>
</mgrwt>
</event>
<event>
 8    1  0.9974463E-006  0.2691845E+03  0.7546771E-02  0.1101747E+00
         21   -1    0    0  504  503  0.00000000000E+00  0.00000000000E+00  0.38090329758E+03  0.38090329758E+03  0.00000000000E+00 0. -1.
         21   -1    0    0  503  504 -0.00000000000E+00 -0.00000000000E+00 -0.47558197787E+02  0.47558197787E+02  0.00000000000E+00 0. -1.
         25    2    1    2    0    0  0.11358951616E+02 -0.32331006751E+02  0.10892546860E+03  0.16930428103E+03  0.12499944835E+03 0.  0.
         25    2    1    2    0    0 -0.11358951616E+02  0.32331006751E+02  0.22441963119E+03  0.25915721433E+03  0.12499588431E+03 0.  0.
          5    1    3    3  501    0  0.33393227699E+02  0.37687704422E+02  0.21234755588E+02  0.54849572155E+02  0.47000000000E+01 0.  1.
         -5    1    3    3    0  501 -0.22034276083E+02 -0.70018711173E+02  0.87690713008E+02  0.11445470888E+03  0.47000000000E+01 0.  1.
          5    1    4    4  502    0  0.13185549733E+02 -0.45059628305E+02  0.99144891142E+02  0.10979994656E+03  0.47000000000E+01 0.  1.
         -5    1    4    4    0  502 -0.24544501348E+02  0.77390635056E+02  0.12527474005E+03  0.14935726777E+03  0.47000000000E+01 0.  1.
<mgrwt>
<rscale>  0 0.26918450E+03</rscale>
<asrwt>0</asrwt>
<pdfrwt beam="1">  1       21 0.58600505E-01 0.26918450E+03</pdfrwt>
<pdfrwt beam="2">  1       21 0.73166461E-02 0.26918450E+03</pdfrwt>
<totfact> 0.37527204E+05</totfact>
</mgrwt>
</event>
<event>
 8    1  0.9974463E-006  0.2760437E+03  0.7546771E-02  0.1097870E+00
         21   -1    0    0  504  503  0.00000000000E+00  0.00000000000E+00  0.64753760846E+03  0.64753760846E+03  0.00000000000E+00 0.  1.
         21   -1    0    0  503  504 -0.00000000000E+00 -0.00000000000E+00 -0.29419181830E+02  0.29419181830E+02  0.00000000000E+00 0.  1.
         25    2    1    2    0    0 -0.52356523386E+02  0.19023292897E+02  0.26511577571E+03  0.29835477573E+03  0.12500442573E+03 0.  0.
         25    2    1    2    0    0  0.52356523386E+02 -0.19023292897E+02  0.35300265092E+03  0.37860201456E+03  0.12500209064E+03 0.  0.
          5    1    3    3  501    0 -0.53738599345E+02  0.57327749912E+02  0.92445229711E+02  0.12141877312E+03  0.47000000000E+01 0. -1.
         -5    1    3    3    0  501  0.13820759597E+01 -0.38304457014E+02  0.17267054600E+03  0.17693600261E+03  0.47000000000E+01 0. -1.
          5    1    4    4  502    0  0.85921795604E+01 -0.69235283981E+02  0.17156058006E+03  0.18526325250E+03  0.47000000000E+01 0. -1.
         -5    1    4    4    0  502  0.43764343825E+02  0.50211991084E+02  0.18144207086E+03  0.19333876206E+03  0.47000000000E+01 0. -1.
<mgrwt>
<rscale>  0 0.27604367E+03</rscale>
<asrwt>0</asrwt>
<pdfrwt beam="1">  1       21 0.99621160E-01 0.27604367E+03</pdfrwt>
<pdfrwt beam="2">  1       21 0.45260285E-02 0.27604367E+03</pdfrwt>
<totfact> 0.25743535E+05</totfact>
</mgrwt>
</event>
<event>
 8    1  0.9974463E-006  0.3035578E+03  0.7546771E-02  0.1083476E+00
         21   -1    0    0  504  503  0.00000000000E+00  0.00000000000E+00  0.35489507547E+03  0.35489507547E+03  0.00000000000E+00 0.  1.
         21   -1    0    0  503  504 -0.00000000000E+00 -0.00000000000E+00 -0.64911665947E+02  0.64911665947E+02  0.00000000000E+00 0.  1.
         25    2    1    2    0    0  0.56020089455E+02  0.43979418446E+02  0.78095295083E+02  0.16369123377E+03  0.12499402078E+03 0.  0.
         25    2    1    2    0    0 -0.56020089455E+02 -0.43979418446E+02  0.21188811444E+03  0.25611550765E+03  0.12500456210E+03 0.  0.
          5    1    3    3  501    0  0.28297440584E+01  0.74968377315E+02  0.67545286510E+02  0.10105800700E+03  0.47000000000E+01 0.  1.
         -5    1    3    3    0  501  0.53190345397E+02 -0.30988958869E+02  0.10550008573E+02  0.62633226774E+02  0.47000000000E+01 0.  1.
          5    1    4    4  502    0 -0.46860831046E+02  0.38413275153E+02  0.93262281735E+02  0.11131693667E+03  0.47000000000E+01 0. -1.
         -5    1    4    4    0  502 -0.91592584090E+01 -0.82392693599E+02  0.11862583271E+03  0.14479857098E+03  0.47000000000E+01 0. -1.
<mgrwt>
<rscale>  0 0.30355777E+03</rscale>
<asrwt>0</asrwt>
<pdfrwt beam="1">  1       21 0.54599241E-01 0.30355777E+03</pdfrwt>
<pdfrwt beam="2">  1       21 0.99864104E-02 0.30355777E+03</pdfrwt>
<totfact> 0.25056370E+05</totfact>
</mgrwt>
</event>
<event>
 8    1  0.9974463E-006  0.2799760E+03  0.7546771E-02  0.1095702E+00
         21   -1    0    0  504  503  0.00000000000E+00  0.00000000000E+00  0.31948547887E+03  0.31948547887E+03  0.00000000000E+00 0.  1.
         21   -1    0    0  503  504 -0.00000000000E+00 -0.00000000000E+00 -0.61338132647E+02  0.61338132647E+02  0.00000000000E+00 0.  1.
         25    2    1    2    0    0 -0.25732349115E+01  0.53052791803E+02  0.17497941194E+03  0.22150577251E+03  0.12500316954E+03 0.  0.
         25    2    1    2    0    0  0.25732349115E+01 -0.53052791803E+02  0.83167934286E+02  0.15931783901E+03  0.12507616990E+03 0.  0.
          5    1    3    3  501    0  0.36901747627E+02  0.15721495120E+02  0.23349469093E+01  0.40453014273E+02  0.47000000000E+01 0. -1.
         -5    1    3    3    0  501 -0.39474982538E+02  0.37331296683E+02  0.17264446503E+03  0.18105275823E+03  0.47000000000E+01 0. -1.
          5    1    4    4  502    0 -0.33730296263E+02  0.27812985982E+02  0.44295928188E+02  0.62414055543E+02  0.47000000000E+01 0. -1.
         -5    1    4    4    0  502  0.36303531175E+02 -0.80865777785E+02  0.38872006097E+02  0.96903783469E+02  0.47000000000E+01 0. -1.
<mgrwt>
<rscale>  0 0.27997602E+03</rscale>
<asrwt>0</asrwt>
<pdfrwt beam="1">  1       21 0.49151611E-01 0.27997602E+03</pdfrwt>
<pdfrwt beam="2">  1       21 0.94366360E-02 0.27997602E+03</pdfrwt>
<totfact> 0.34789124E+05</totfact>
</mgrwt>
</event>
<event>
 8    1  0.9974463E-006  0.3361803E+03  0.7546771E-02  0.1068435E+00
         21   -1    0    0  504  503  0.00000000000E+00  0.00000000000E+00  0.67399871437E+02  0.67399871437E+02  0.00000000000E+00 0. -1.
         21   -1    0    0  503  504 -0.00000000000E+00 -0.00000000000E+00 -0.41920413256E+03  0.41920413256E+03  0.00000000000E+00 0. -1.
         25    2    1    2    0    0 -0.32629323289E+02 -0.85554970773E+02 -0.27020631894E+03  0.31148157734E+03  0.12499996986E+03 0.  0.
         25    2    1    2    0    0  0.32629323289E+02  0.85554970773E+02 -0.81597942178E+02  0.17512242665E+03  0.12500125754E+03 0.  0.
          5    1    3    3  501    0  0.41410354929E+02 -0.41382229975E+02 -0.16639378011E+03  0.17645477186E+03  0.47000000000E+01 0. -1.
         -5    1    3    3    0  501 -0.74039678218E+02 -0.44172740799E+02 -0.10381253883E+03  0.13502680549E+03  0.47000000000E+01 0. -1.
          5    1    4    4  502    0  0.41031764991E+02 -0.16148452096E+02 -0.52863466978E+02  0.69000104234E+02  0.47000000000E+01 0.  1.
         -5    1    4    4    0  502 -0.84024417012E+01  0.10170342287E+03 -0.28734475200E+02  0.10612232242E+03  0.47000000000E+01 0.  1.
<mgrwt>
<rscale>  0 0.33618034E+03</rscale>
<asrwt>0</asrwt>
<pdfrwt beam="1">  1       21 0.10369211E-01 0.33618034E+03</pdfrwt>
<pdfrwt beam="2">  1       21 0.64492945E-01 0.33618034E+03</pdfrwt>
<totfact> 0.16206493E+05</totfact>
</mgrwt>
</event>
<event>
 8    1  0.9974463E-006  0.3141579E+03  0.7546771E-02  0.1078370E+00
         21   -1    0    0  504  503  0.00000000000E+00  0.00000000000E+00  0.11111708541E+03  0.11111708541E+03  0.00000000000E+00 0. -1.
         21   -1    0    0  503  504 -0.00000000000E+00 -0.00000000000E+00 -0.22205219226E+03  0.22205219226E+03  0.00000000000E+00 0. -1.
         25    2    1    2    0    0  0.91089738199E+02 -0.19040700970E+02 -0.34552070799E+02  0.15962255356E+03  0.12500250121E+03 0.  0.
         25    2    1    2    0    0 -0.91089738199E+02  0.19040700970E+02 -0.76383036046E+02  0.17354672411E+03  0.12499683418E+03 0.  0.
          5    1    3    3  501    0  0.95273026132E+02 -0.49324410121E+02 -0.56836711091E+02  0.12150040605E+03  0.47000000000E+01 0.  1.
         -5    1    3    3    0  501 -0.41832879324E+01  0.30283709151E+02  0.22284640291E+02  0.38122147510E+02  0.47000000000E+01 0.  1.
          5    1    4    4  502    0  0.76699770519E+01 -0.30163213968E+02  0.10336684540E+02  0.33129821493E+02  0.47000000000E+01 0. -1.
         -5    1    4    4    0  502 -0.98759715251E+02  0.49203914939E+02 -0.86719720587E+02  0.14041690262E+03  0.47000000000E+01 0. -1.
<mgrwt>
<rscale>  0 0.31415787E+03</rscale>
<asrwt>0</asrwt>
<pdfrwt beam="1">  1       21 0.17094936E-01 0.31415787E+03</pdfrwt>
<pdfrwt beam="2">  1       21 0.34161875E-01 0.31415787E+03</pdfrwt>
<totfact> 0.24753441E+05</totfact>
</mgrwt>
</event>
<event>
 8    1  0.9974463E-006  0.3144057E+03  0.7546771E-02  0.1078253E+00
         21   -1    0    0  504  503  0.00000000000E+00  0.00000000000E+00  0.14140306547E+03  0.14140306547E+03  0.00000000000E+00 0.  1.
         21   -1    0    0  503  504 -0.00000000000E+00 -0.00000000000E+00 -0.17476802289E+03  0.17476802289E+03  0.00000000000E+00 0.  1.
         25    2    1    2    0    0 -0.43586911556E+02 -0.64046242438E+02 -0.72539981538E+02  0.16397890257E+03  0.12500116614E+03 0.  0.
         25    2    1    2    0    0  0.43586911556E+02  0.64046242438E+02  0.39175024115E+02  0.15219218579E+03  0.12500415542E+03 0.  0.
          5    1    3    3  501    0  0.85534839468E+01 -0.13406420546E+02  0.32307608020E+02  0.36314814270E+02  0.47000000000E+01 0.  1.
         -5    1    3    3    0  501 -0.52140395503E+02 -0.50639821892E+02 -0.10484758956E+03  0.12766408830E+03  0.47000000000E+01 0.  1.
          5    1    4    4  502    0  0.31542560843E+02  0.84401411332E+02  0.69182484643E+02  0.11369625131E+03  0.47000000000E+01 0.  1.
         -5    1    4    4    0  502  0.12044350713E+02 -0.20355168894E+02 -0.30007460528E+02  0.38495934489E+02  0.47000000000E+01 0.  1.
<mgrwt>
<rscale>  0 0.31440569E+03</rscale>
<asrwt>0</asrwt>
<pdfrwt beam="1">  1       21 0.21754318E-01 0.31440569E+03</pdfrwt>
<pdfrwt beam="2">  1       21 0.26887388E-01 0.31440569E+03</pdfrwt>
<totfact> 0.25226274E+05</totfact>
</mgrwt>
</event>
<event>
 8    1  0.9974463E-006  0.3306774E+03  0.7546771E-02  0.1070838E+00
         21   -1    0    0  504  503  0.00000000000E+00  0.00000000000E+00  0.15907635736E+03  0.15907635736E+03  0.00000000000E+00 0. -1.
         21   -1    0    0  503  504 -0.00000000000E+00 -0.00000000000E+00 -0.17184762332E+03  0.17184762332E+03  0.00000000000E+00 0. -1.
         25    2    1    2    0    0  0.35088784152E+02 -0.48952825851E+02  0.83597875066E+02  0.16199460038E+03  0.12500417554E+03 0.  0.
         25    2    1    2    0    0 -0.35088784152E+02  0.48952825851E+02 -0.96369141020E+02  0.16892938030E+03  0.12499008863E+03 0.  0.
          5    1    3    3  501    0 -0.20188413622E+01 -0.58745161450E+02  0.10303783009E+03  0.11871796050E+03  0.47000000000E+01 0. -1.
         -5    1    3    3    0  501  0.37107625514E+02  0.97923355986E+01 -0.19439955028E+02  0.43276639879E+02  0.47000000000E+01 0. -1.
          5    1    4    4  502    0  0.12303315315E+02 -0.36427431944E+02 -0.14320645742E+02  0.41297702844E+02  0.47000000000E+01 0.  1.
         -5    1    4    4    0  502 -0.47392099467E+02  0.85380257795E+02 -0.82048495279E+02  0.12763167746E+03  0.47000000000E+01 0.  1.
<mgrwt>
<rscale>  0 0.33067745E+03</rscale>
<asrwt>0</asrwt>
<pdfrwt beam="1">  1       21 0.24473286E-01 0.33067745E+03</pdfrwt>
<pdfrwt beam="2">  1       21 0.26438096E-01 0.33067745E+03</pdfrwt>
<totfact> 0.20733466E+05</totfact>
</mgrwt>
</event>
<event>
 8    1  0.9974463E-006  0.2620626E+03  0.7546771E-02  0.1105910E+00
         21   -1    0    0  504  503  0.00000000000E+00  0.00000000000E+00  0.33223331246E+02  0.33223331246E+02  0.00000000000E+00 0.  1.
         21   -1    0    0  503  504 -0.00000000000E+00 -0.00000000000E+00 -0.51678137127E+03  0.51678137127E+03  0.00000000000E+00 0.  1.
         25    2    1    2    0    0  0.22134783762E+02  0.27760909484E+02 -0.27705314939E+03  0.30601702693E+03  0.12500942538E+03 0.  0.
         25    2    1    2    0    0 -0.22134783762E+02 -0.27760909484E+02 -0.20650489063E+03  0.24398767558E+03  0.12500039694E+03 0.  0.
          5    1    3    3  501    0  0.51322932882E+02  0.63099774315E+02 -0.20376405130E+03  0.21944817967E+03  0.47000000000E+01 0. -1.
         -5    1    3    3    0  501 -0.29188149120E+02 -0.35338864832E+02 -0.73289098097E+02  0.86568847264E+02  0.47000000000E+01 0. -1.
          5    1    4    4  502    0 -0.20310615506E+02  0.24910153450E+02 -0.17753513411E+01  0.32531196097E+02  0.47000000000E+01 0. -1.
         -5    1    4    4    0  502 -0.18241682558E+01 -0.52671062934E+02 -0.20472953928E+03  0.21145647948E+03  0.47000000000E+01 0. -1.
<mgrwt>
<rscale>  0 0.26206258E+03</rscale>
<asrwt>0</asrwt>
<pdfrwt beam="1">  1       21 0.51112819E-02 0.26206258E+03</pdfrwt>
<pdfrwt beam="2">  1       21 0.79504823E-01 0.26206258E+03</pdfrwt>
<totfact> 0.35522077E+05</totfact>
</mgrwt>
</event>
<event>
 8    1  0.9974463E-006  0.2604347E+03  0.7546771E-02  0.1106882E+00
         21   -1    0    0  504  503  0.00000000000E+00  0.00000000000E+00  0.87261732938E+02  0.87261732938E+02  0.00000000000E+00 0. -1.
         21   -1    0    0  503  504 -0.00000000000E+00 -0.00000000000E+00 -0.19431833167E+03  0.19431833167E+03  0.00000000000E+00 0. -1.
         25    2    1    2    0    0  0.29896342098E+01 -0.20013657857E+02 -0.20640716048E+02  0.12828151090E+03  0.12498248864E+03 0.  0.
         25    2    1    2    0    0 -0.29896342098E+01  0.20013657857E+02 -0.86415882682E+02  0.15329855371E+03  0.12499302931E+03 0.  0.
          5    1    3    3  501    0  0.97251889757E+01 -0.22583855472E+02 -0.71988728662E+02  0.76217300418E+02  0.47000000000E+01 0. -1.
         -5    1    3    3    0  501 -0.67355547659E+01  0.25701976158E+01  0.51348012614E+02  0.52064210482E+02  0.47000000000E+01 0. -1.
          5    1    4    4  502    0 -0.23950202079E+02  0.68737531801E+02 -0.43674799657E+02  0.85017872137E+02  0.47000000000E+01 0. -1.
         -5    1    4    4    0  502  0.20960567869E+02 -0.48723873944E+02 -0.42741083025E+02  0.68280681570E+02  0.47000000000E+01 0. -1.
<mgrwt>
<rscale>  0 0.26043467E+03</rscale>
<asrwt>0</asrwt>
<pdfrwt beam="1">  1       21 0.13424882E-01 0.26043467E+03</pdfrwt>
<pdfrwt beam="2">  1       21 0.29895127E-01 0.26043467E+03</pdfrwt>
<totfact> 0.50800393E+05</totfact>
</mgrwt>
</event>
<event>
 8    1  0.9974463E-006  0.2966860E+03  0.7546771E-02  0.1086909E+00
         21   -1    0    0  504  503  0.00000000000E+00  0.00000000000E+00  0.53618943166E+02  0.53618943166E+02  0.00000000000E+00 0. -1.
         21   -1    0    0  503  504 -0.00000000000E+00 -0.00000000000E+00 -0.41040793568E+03  0.41040793568E+03  0.00000000000E+00 0. -1.
         25    2    1    2    0    0  0.51982681111E+02 -0.49297495748E+02 -0.12314260346E+03  0.18952862458E+03  0.12499822609E+03 0.  0.
         25    2    1    2    0    0 -0.51982681111E+02  0.49297495748E+02 -0.23364638905E+03  0.27449825426E+03  0.12500485692E+03 0.  0.
          5    1    3    3  501    0 -0.94898094921E+01 -0.17548427864E+02  0.21140802942E+02  0.29445328216E+02  0.47000000000E+01 0.  1.
         -5    1    3    3    0  501  0.61472490603E+02 -0.31749067884E+02 -0.14428340640E+03  0.16008329637E+03  0.47000000000E+01 0.  1.
          5    1    4    4  502    0  0.23861760651E+02 -0.26219819437E+02 -0.74682726160E+02  0.82803756795E+02  0.47000000000E+01 0. -1.
         -5    1    4    4    0  502 -0.75844441762E+02  0.75517315185E+02 -0.15896366289E+03  0.19169449747E+03  0.47000000000E+01 0. -1.
<mgrwt>
<rscale>  0 0.29668596E+03</rscale>
<asrwt>0</asrwt>
<pdfrwt beam="1">  1       21 0.82490680E-02 0.29668596E+03</pdfrwt>
<pdfrwt beam="2">  1       21 0.63139684E-01 0.29668596E+03</pdfrwt>
<totfact> 0.25712898E+05</totfact>
</mgrwt>
</event>
<event>
 8    1  0.9974463E-006  0.3330555E+03  0.7546771E-02  0.1069793E+00
         21   -1    0    0  504  503  0.00000000000E+00  0.00000000000E+00  0.75180789638E+02  0.75180789638E+02  0.00000000000E+00 0. -1.
         21   -1    0    0  503  504 -0.00000000000E+00 -0.00000000000E+00 -0.36886408731E+03  0.36886408731E+03  0.00000000000E+00 0. -1.
         25    2    1    2    0    0  0.12207994974E+02 -0.89917985924E+02 -0.63873510232E+02  0.16714782348E+03  0.12499716098E+03 0.  0.
         25    2    1    2    0    0 -0.12207994974E+02  0.89917985924E+02 -0.22980978744E+03  0.27689705347E+03  0.12500064192E+03 0.  0.
          5    1    3    3  501    0 -0.30099960749E+02 -0.46208827848E+02 -0.85979652356E+02  0.10225387048E+03  0.47000000000E+01 0. -1.
         -5    1    3    3    0  501  0.42307955723E+02 -0.43709158076E+02  0.22106142124E+02  0.64893953007E+02  0.47000000000E+01 0. -1.
          5    1    4    4  502    0 -0.54541778536E+02  0.65763032073E+02 -0.20470784879E+03  0.22187152893E+03  0.47000000000E+01 0. -1.
         -5    1    4    4    0  502  0.42333783562E+02  0.24154953851E+02 -0.25101938649E+02  0.55025524533E+02  0.47000000000E+01 0. -1.
<mgrwt>
<rscale>  0 0.33305551E+03</rscale>
<asrwt>0</asrwt>
<pdfrwt beam="1">  1       21 0.11566275E-01 0.33305551E+03</pdfrwt>
<pdfrwt beam="2">  1       21 0.56748322E-01 0.33305551E+03</pdfrwt>
<totfact> 0.17608437E+05</totfact>
</mgrwt>
</event>
<event>
 8    1  0.9974463E-006  0.3022694E+03  0.7546771E-02  0.1084112E+00
         21   -1    0    0  504  503  0.00000000000E+00  0.00000000000E+00  0.96337271170E+02  0.96337271170E+02  0.00000000000E+00 0.  1.
         21   -1    0    0  503  504 -0.00000000000E+00 -0.00000000000E+00 -0.23710131129E+03  0.23710131129E+03  0.00000000000E+00 0.  1.
         25    2    1    2    0    0 -0.73755864953E+02  0.20590148374E+02 -0.11093967924E+03  0.18384229536E+03  0.12500598109E+03 0.  0.
         25    2    1    2    0    0  0.73755864953E+02 -0.20590148374E+02 -0.29824360880E+02  0.14959628710E+03  0.12500269912E+03 0.  0.
          5    1    3    3  501    0 -0.33750255439E+02  0.33622465723E+02 -0.12916417683E+03  0.13774986214E+03  0.47000000000E+01 0.  1.
         -5    1    3    3    0  501 -0.40005609513E+02 -0.13032317349E+02  0.18224497588E+02  0.46092433223E+02  0.47000000000E+01 0.  1.
          5    1    4    4  502    0  0.11096034258E+02  0.24070483083E+02  0.38235886984E+02  0.46760915149E+02  0.47000000000E+01 0.  1.
         -5    1    4    4    0  502  0.62659830695E+02 -0.44660631457E+02 -0.68060247864E+02  0.10283537195E+03  0.47000000000E+01 0.  1.
<mgrwt>
<rscale>  0 0.30226937E+03</rscale>
<asrwt>0</asrwt>
<pdfrwt beam="1">  1       21 0.14821119E-01 0.30226937E+03</pdfrwt>
<pdfrwt beam="2">  1       21 0.36477124E-01 0.30226937E+03</pdfrwt>
<totfact> 0.28318831E+05</totfact>
</mgrwt>
</event>
<event>
 8    1  0.9974463E-006  0.2835131E+03  0.7546771E-02  0.1093785E+00
         21   -1    0    0  504  503  0.00000000000E+00  0.00000000000E+00  0.62479005617E+01  0.62479005617E+01  0.00000000000E+00 0.  1.
         21   -1    0    0  503  504 -0.00000000000E+00 -0.00000000000E+00 -0.32162674089E+04  0.32162674089E+04  0.00000000000E+00 0.  1.
         25    2    1    2    0    0  0.43646990204E+02 -0.19580565534E+02 -0.21358736229E+04  0.21400631708E+04  0.12500313505E+03 0.  0.
         25    2    1    2    0    0 -0.43646990204E+02  0.19580565534E+02 -0.10741458855E+04  0.10824521387E+04  0.12499916384E+03 0.  0.
          5    1    3    3  501    0 -0.33524630685E+02 -0.38875453159E+02 -0.10533656607E+04  0.10546262404E+04  0.47000000000E+01 0.  1.
         -5    1    3    3    0  501  0.77171620889E+02  0.19294887624E+02 -0.10825079621E+04  0.10854369304E+04  0.47000000000E+01 0.  1.
          5    1    4    4  502    0 -0.15034328677E+02  0.50393476611E+02 -0.18735094762E+03  0.19464840379E+03  0.47000000000E+01 0. -1.
         -5    1    4    4    0  502 -0.28612661527E+02 -0.30812911076E+02 -0.88679493789E+03  0.88780373493E+03  0.47000000000E+01 0. -1.
<mgrwt>
<rscale>  0 0.28351310E+03</rscale>
<asrwt>0</asrwt>
<pdfrwt beam="1">  1       21 0.96121509E-03 0.28351310E+03</pdfrwt>
<pdfrwt beam="2">  1       21 0.49481057E+00 0.28351310E+03</pdfrwt>
<totfact> 0.74277011E+03</totfact>
</mgrwt>
</event>
<event>
 8    1  0.9974463E-006  0.5200457E+03  0.7546771E-02  0.1008675E+00
         21   -1    0    0  504  503  0.00000000000E+00  0.00000000000E+00  0.63216844841E+03  0.63216844841E+03  0.00000000000E+00 0. -1.
         21   -1    0    0  503  504 -0.00000000000E+00 -0.00000000000E+00 -0.10695232883E+03  0.10695232883E+03  0.00000000000E+00 0. -1.
         25    2    1    2    0    0  0.53873732305E+02  0.21755023676E+03  0.32213447660E+03  0.41186365517E+03  0.12502225757E+03 0.  0.
         25    2    1    2    0    0 -0.53873732305E+02 -0.21755023676E+03  0.20308164299E+03  0.32725712207E+03  0.12499834272E+03 0.  0.
          5    1    3    3  501    0 -0.34067293377E+02  0.29765126025E+02  0.88102780376E+02  0.99150053531E+02  0.47000000000E+01 0. -1.
         -5    1    3    3    0  501  0.87941025682E+02  0.18778511073E+03  0.23403169622E+03  0.31271360163E+03  0.47000000000E+01 0. -1.
          5    1    4    4  502    0 -0.94262515815E+02 -0.14583151441E+03  0.12832114142E+03  0.21596448277E+03  0.47000000000E+01 0. -1.
         -5    1    4    4    0  502  0.40388783510E+02 -0.71718722351E+02  0.74760501565E+02  0.11129263930E+03  0.47000000000E+01 0. -1.
<mgrwt>
<rscale>  0 0.52004572E+03</rscale>
<asrwt>0</asrwt>
<pdfrwt beam="1">  1       21 0.97256682E-01 0.52004572E+03</pdfrwt>
<pdfrwt beam="2">  1       21 0.16454205E-01 0.52004572E+03</pdfrwt>
<totfact> 0.25889530E+04</totfact>
</mgrwt>
</event>
<event>
 8    1  0.9974463E-006  0.2799942E+03  0.7546771E-02  0.1095692E+00
         21   -1    0    0  504  503  0.00000000000E+00  0.00000000000E+00  0.15610247102E+03  0.15610247102E+03  0.00000000000E+00 0. -1.
         21   -1    0    0  503  504 -0.00000000000E+00 -0.00000000000E+00 -0.12555337522E+03  0.12555337522E+03  0.00000000000E+00 0. -1.
         25    2    1    2    0    0  0.50668831996E+02 -0.33115561643E+02 -0.24359146102E+01  0.13890189573E+03  0.12499532791E+03 0.  0.
         25    2    1    2    0    0 -0.50668831996E+02  0.33115561643E+02  0.32985010415E+02  0.14275395051E+03  0.12500683387E+03 0.  0.
          5    1    3    3  501    0 -0.25132079976E+02  0.15179459676E+02 -0.32464054924E+02  0.44023201861E+02  0.47000000000E+01 0.  1.
         -5    1    3    3    0  501  0.75800911973E+02 -0.48295021319E+02  0.30028140314E+02  0.94878693872E+02  0.47000000000E+01 0.  1.
          5    1    4    4  502    0  0.20205262090E+02  0.55997201466E+02  0.32796004129E+02  0.68129340779E+02  0.47000000000E+01 0. -1.
         -5    1    4    4    0  502 -0.70874094086E+02 -0.22881639823E+02  0.18900628654E+00  0.74624609727E+02  0.47000000000E+01 0. -1.
<mgrwt>
<rscale>  0 0.27999423E+03</rscale>
<asrwt>0</asrwt>
<pdfrwt beam="1">  1       21 0.24015764E-01 0.27999423E+03</pdfrwt>
<pdfrwt beam="2">  1       21 0.19315904E-01 0.27999423E+03</pdfrwt>
<totfact> 0.39545409E+05</totfact>
</mgrwt>
</event>
<event>
 8    1  0.9974463E-006  0.3148892E+03  0.7546771E-02  0.1078026E+00
         21   -1    0    0  504  503  0.00000000000E+00  0.00000000000E+00  0.50676786889E+03  0.50676786889E+03  0.00000000000E+00 0. -1.
         21   -1    0    0  503  504 -0.00000000000E+00 -0.00000000000E+00 -0.48915503292E+02  0.48915503292E+02  0.00000000000E+00 0. -1.
         25    2    1    2    0    0 -0.55982482888E+02  0.63758676121E+01  0.92433425381E+02  0.16538941454E+03  0.12504011451E+03 0.  0.
         25    2    1    2    0    0  0.55982482888E+02 -0.63758676121E+01  0.36541894022E+03  0.39029395764E+03  0.12499472557E+03 0.  0.
          5    1    3    3  501    0  0.16697705252E+02 -0.43069463673E+02  0.47994017174E+02  0.66778048386E+02  0.47000000000E+01 0.  1.
         -5    1    3    3    0  501 -0.72680188140E+02  0.49445331285E+02  0.44439408207E+02  0.98611366159E+02  0.47000000000E+01 0.  1.
          5    1    4    4  502    0  0.66328338896E+02 -0.31780360388E+02  0.35156405593E+03  0.35920581186E+03  0.47000000000E+01 0. -1.
         -5    1    4    4    0  502 -0.10345856008E+02  0.25404492776E+02  0.13854884288E+02  0.31088145785E+02  0.47000000000E+01 0. -1.
<mgrwt>
<rscale>  0 0.31488922E+03</rscale>
<asrwt>0</asrwt>
<pdfrwt beam="1">  1       21 0.77964284E-01 0.31488922E+03</pdfrwt>
<pdfrwt beam="2">  1       21 0.75254624E-02 0.31488922E+03</pdfrwt>
<totfact> 0.18790986E+05</totfact>
</mgrwt>
</event>
<event>
 8    1  0.9974463E-006  0.4321694E+03  0.7546771E-02  0.1033177E+00
         21   -1    0    0  504  503  0.00000000000E+00  0.00000000000E+00  0.34741256482E+02  0.34741256482E+02  0.00000000000E+00 0. -1.
         21   -1    0    0  503  504 -0.00000000000E+00 -0.00000000000E+00 -0.13440098626E+04  0.13440098626E+04  0.00000000000E+00 0. -1.
         25    2    1    2    0    0 -0.42257478077E+02 -0.57681975193E+02 -0.14065077539E+03  0.20129396339E+03  0.12499485735E+03 0.  0.
         25    2    1    2    0    0  0.42257478077E+02  0.57681975193E+02 -0.11686178307E+04  0.11774571557E+04  0.12499925793E+03 0.  0.
          5    1    3    3  501    0  0.80622268193E+01 -0.60272496137E+02 -0.13770034939E+03  0.15060295321E+03  0.47000000000E+01 0. -1.
         -5    1    3    3    0  501 -0.50319704897E+02  0.25905209434E+01 -0.29504259977E+01  0.50691010181E+02  0.47000000000E+01 0. -1.
          5    1    4    4  502    0 -0.16817041615E+02  0.36575335663E+02 -0.11445790289E+03  0.12142186624E+03  0.47000000000E+01 0.  1.
         -5    1    4    4    0  502  0.59074519692E+02  0.21106639530E+02 -0.10541599278E+04  0.10560352894E+04  0.47000000000E+01 0.  1.
<mgrwt>
<rscale>  0 0.43216937E+03</rscale>
<asrwt>0</asrwt>
<pdfrwt beam="1">  1       21 0.53448082E-02 0.43216937E+03</pdfrwt>
<pdfrwt beam="2">  1       21 0.20677077E+00 0.43216937E+03</pdfrwt>
<totfact> 0.25964520E+04</totfact>
</mgrwt>
</event>
<event>
 8    1  0.9974463E-006  0.3035611E+03  0.7546771E-02  0.1083474E+00
         21   -1    0    0  504  503  0.00000000000E+00  0.00000000000E+00  0.45350075898E+03  0.45350075898E+03  0.00000000000E+00 0.  1.
         21   -1    0    0  503  504 -0.00000000000E+00 -0.00000000000E+00 -0.50798877964E+02  0.50798877964E+02  0.00000000000E+00 0.  1.
         25    2    1    2    0    0 -0.61765051186E+02  0.15218890491E+02  0.10496832686E+03  0.17518453389E+03  0.12499894037E+03 0.  0.
         25    2    1    2    0    0  0.61765051186E+02 -0.15218890491E+02  0.29773355415E+03  0.32911510305E+03  0.12499978245E+03 0.  0.
          5    1    3    3  501    0 -0.48982339154E+02  0.31471045336E+02 -0.91413183863E+01  0.59121484634E+02  0.47000000000E+01 0. -1.
         -5    1    3    3    0  501 -0.12782712032E+02 -0.16252154845E+02  0.11410964525E+03  0.11606304926E+03  0.47000000000E+01 0. -1.
          5    1    4    4  502    0 -0.79537694623E+01  0.40457724338E+02  0.45784674531E+02  0.61793335638E+02  0.47000000000E+01 0.  1.
         -5    1    4    4    0  502  0.69718820649E+02 -0.55676614829E+02  0.25194887962E+03  0.26732176742E+03  0.47000000000E+01 0.  1.
<mgrwt>
<rscale>  0 0.30356106E+03</rscale>
<asrwt>0</asrwt>
<pdfrwt beam="1">  1       21 0.69769345E-01 0.30356106E+03</pdfrwt>
<pdfrwt beam="2">  1       21 0.78152123E-02 0.30356106E+03</pdfrwt>
<totfact> 0.22644358E+05</totfact>
</mgrwt>
</event>
<event>
 8    1  0.9974463E-006  0.2655423E+03  0.7546771E-02  0.1103858E+00
         21   -1    0    0  504  503  0.00000000000E+00  0.00000000000E+00  0.53748171928E+02  0.53748171928E+02  0.00000000000E+00 0.  1.
         21   -1    0    0  503  504 -0.00000000000E+00 -0.00000000000E+00 -0.32797713993E+03  0.32797713993E+03  0.00000000000E+00 0.  1.
         25    2    1    2    0    0 -0.31699364712E+02  0.28180183656E+02 -0.15766958508E+03  0.20562695517E+03  0.12499509653E+03 0.  0.
         25    2    1    2    0    0  0.31699364712E+02 -0.28180183656E+02 -0.11655938292E+03  0.17609835669E+03  0.12500227601E+03 0.  0.
          5    1    3    3  501    0 -0.13584643412E+02  0.25877678430E+02 -0.17650809864E+03  0.17897317023E+03  0.47000000000E+01 0. -1.
         -5    1    3    3    0  501 -0.18114721300E+02  0.23025052257E+01  0.18838513560E+02  0.26653784933E+02  0.47000000000E+01 0. -1.
          5    1    4    4  502    0  0.51668212648E+01 -0.31514154012E+02 -0.13786028846E+03  0.14158879574E+03  0.47000000000E+01 0. -1.
         -5    1    4    4    0  502  0.26532543447E+02  0.33339703561E+01  0.21300905540E+02  0.34509560950E+02  0.47000000000E+01 0. -1.
<mgrwt>
<rscale>  0 0.26554225E+03</rscale>
<asrwt>0</asrwt>
<pdfrwt beam="1">  1       21 0.82689495E-02 0.26554225E+03</pdfrwt>
<pdfrwt beam="2">  1       21 0.50458022E-01 0.26554225E+03</pdfrwt>
<totfact> 0.41686969E+05</totfact>
</mgrwt>
</event>
<event>
 8    1  0.9974463E-006  0.2504078E+03  0.7546771E-02  0.1113047E+00
         21   -1    0    0  504  503  0.00000000000E+00  0.00000000000E+00  0.76722592670E+02  0.76722592670E+02  0.00000000000E+00 0. -1.
         21   -1    0    0  503  504 -0.00000000000E+00 -0.00000000000E+00 -0.20432078398E+03  0.20432078398E+03  0.00000000000E+00 0. -1.
         25    2    1    2    0    0  0.58426411322E+00 -0.68558554606E+01 -0.61757703198E+02  0.13959343929E+03  0.12499988108E+03 0.  0.
         25    2    1    2    0    0 -0.58426411322E+00  0.68558554606E+01 -0.65840488107E+02  0.14144993735E+03  0.12500308310E+03 0.  0.
          5    1    3    3  501    0  0.28244004764E+02 -0.16441058613E+02  0.29106267182E+02  0.44014736199E+02  0.47000000000E+01 0. -1.
         -5    1    3    3    0  501 -0.27659740651E+02  0.95852031524E+01 -0.90863970380E+02  0.95578703096E+02  0.47000000000E+01 0. -1.
          5    1    4    4  502    0 -0.43018637599E+02  0.46812075916E+02 -0.49569341113E+02  0.80753843319E+02  0.47000000000E+01 0.  1.
         -5    1    4    4    0  502  0.42434373485E+02 -0.39956220456E+02 -0.16271146994E+02  0.60696094032E+02  0.47000000000E+01 0.  1.
<mgrwt>
<rscale>  0 0.25040783E+03</rscale>
<asrwt>0</asrwt>
<pdfrwt beam="1">  1       21 0.11803476E-01 0.25040783E+03</pdfrwt>
<pdfrwt beam="2">  1       21 0.31433966E-01 0.25040783E+03</pdfrwt>
<totfact> 0.58177440E+05</totfact>
</mgrwt>
</event>
<event>
 8    1  0.9974463E-006  0.3611540E+03  0.7546771E-02  0.1058128E+00
         21   -1    0    0  504  503  0.00000000000E+00  0.00000000000E+00  0.13666691358E+03  0.13666691358E+03  0.00000000000E+00 0. -1.
         21   -1    0    0  503  504 -0.00000000000E+00 -0.00000000000E+00 -0.23859505489E+03  0.23859505489E+03  0.00000000000E+00 0. -1.
         25    2    1    2    0    0  0.41401040330E+02  0.12308279456E+03 -0.62436682669E+02  0.19074864209E+03  0.12499313845E+03 0.  0.
         25    2    1    2    0    0 -0.41401040330E+02 -0.12308279456E+03 -0.39491458640E+02  0.18451332638E+03  0.12498868688E+03 0.  0.
          5    1    3    3  501    0  0.56960813876E+02  0.11568737924E+03 -0.34108757159E+01  0.12908070385E+03  0.47000000000E+01 0. -1.
         -5    1    3    3    0  501 -0.15559773546E+02  0.73954153235E+01 -0.59025806953E+02  0.61667938243E+02  0.47000000000E+01 0. -1.
          5    1    4    4  502    0 -0.61134994405E+02 -0.27750949807E+02 -0.53590241267E+02  0.86032591005E+02  0.47000000000E+01 0.  1.
         -5    1    4    4    0  502  0.19733954075E+02 -0.95331844755E+02  0.14098782627E+02  0.98480735372E+02  0.47000000000E+01 0.  1.
<mgrwt>
<rscale>  0 0.36115398E+03</rscale>
<asrwt>0</asrwt>
<pdfrwt beam="1">  1       21 0.21025679E-01 0.36115398E+03</pdfrwt>
<pdfrwt beam="2">  1       21 0.36706931E-01 0.36115398E+03</pdfrwt>
<totfact> 0.14370156E+05</totfact>
</mgrwt>
</event>
<event>
 8    1  0.9974463E-006  0.3005117E+03  0.7546771E-02  0.1084985E+00
         21   -1    0    0  504  503  0.00000000000E+00  0.00000000000E+00  0.20861013308E+03  0.20861013308E+03  0.00000000000E+00 0. -1.
         21   -1    0    0  503  504 -0.00000000000E+00 -0.00000000000E+00 -0.10822495148E+03  0.10822495148E+03  0.00000000000E+00 0. -1.
         25    2    1    2    0    0  0.62346980778E+02  0.36166306995E+02  0.94422960163E+02  0.17243680793E+03  0.12499443807E+03 0.  0.
         25    2    1    2    0    0 -0.62346980778E+02 -0.36166306995E+02  0.59622214387E+01  0.14439827664E+03  0.12498066426E+03 0.  0.
          5    1    3    3  501    0 -0.30331528058E+02  0.19357359086E+02  0.63592621143E+02  0.73217623622E+02  0.47000000000E+01 0. -1.
         -5    1    3    3    0  501  0.92678508835E+02  0.16808947909E+02  0.30830339020E+02  0.99219184303E+02  0.47000000000E+01 0. -1.
          5    1    4    4  502    0 -0.27069634259E+02  0.38710155542E+02 -0.27655285734E+02  0.54937656212E+02  0.47000000000E+01 0. -1.
         -5    1    4    4    0  502 -0.35277346519E+02 -0.74876462536E+02  0.33617507173E+02  0.89460620431E+02  0.47000000000E+01 0. -1.
<mgrwt>
<rscale>  0 0.30051171E+03</rscale>
<asrwt>0</asrwt>
<pdfrwt beam="1">  1       21 0.32093867E-01 0.30051171E+03</pdfrwt>
<pdfrwt beam="2">  1       21 0.16649993E-01 0.30051171E+03</pdfrwt>
<totfact> 0.29521839E+05</totfact>
</mgrwt>
</event>
<event>
 8    1  0.9974463E-006  0.2585792E+03  0.7546771E-02  0.1108000E+00
         21   -1    0    0  504  503  0.00000000000E+00  0.00000000000E+00  0.10450047684E+04  0.10450047684E+04  0.00000000000E+00 0.  1.
         21   -1    0    0  503  504 -0.00000000000E+00 -0.00000000000E+00 -0.15995906042E+02  0.15995906042E+02  0.00000000000E+00 0.  1.
         25    2    1    2    0    0  0.87995584039E+01 -0.22077709170E+02  0.42056949962E+03  0.43939685073E+03  0.12500412371E+03 0.  0.
         25    2    1    2    0    0 -0.87995584039E+01  0.22077709170E+02  0.60843936275E+03  0.62160382374E+03  0.12501199168E+03 0.  0.
          5    1    3    3  501    0  0.11404416956E+02 -0.62496496836E+02  0.11804070550E+03  0.13413266193E+03  0.47000000000E+01 0.  1.
         -5    1    3    3    0  501 -0.26048585519E+01  0.40418787665E+02  0.30252879413E+03  0.30526418879E+03  0.47000000000E+01 0.  1.
          5    1    4    4  502    0 -0.20128339218E+02 -0.21215442915E+02  0.32746203795E+02  0.44154828963E+02  0.47000000000E+01 0.  1.
         -5    1    4    4    0  502  0.11328780814E+02  0.43293152086E+02  0.57569315896E+03  0.57744899477E+03  0.47000000000E+01 0.  1.
<mgrwt>
<rscale>  0 0.25857918E+03</rscale>
<asrwt>0</asrwt>
<pdfrwt beam="1">  1       21 0.16076991E+00 0.25857918E+03</pdfrwt>
<pdfrwt beam="2">  1       21 0.24609094E-02 0.25857918E+03</pdfrwt>
<totfact> 0.21242151E+05</totfact>
</mgrwt>
</event>
<event>
 8    1  0.9974463E-006  0.3260489E+03  0.7546771E-02  0.1072899E+00
         21   -1    0    0  504  503  0.00000000000E+00  0.00000000000E+00  0.56136079191E+02  0.56136079191E+02  0.00000000000E+00 0. -1.
         21   -1    0    0  503  504 -0.00000000000E+00 -0.00000000000E+00 -0.47343836148E+03  0.47343836148E+03  0.00000000000E+00 0. -1.
         25    2    1    2    0    0  0.15182179413E+02  0.56894033522E+02 -0.34917008853E+03  0.37551640126E+03  0.12500154908E+03 0.  0.
         25    2    1    2    0    0 -0.15182179413E+02 -0.56894033522E+02 -0.68132193758E+02  0.15405803941E+03  0.12499781621E+03 0.  0.
          5    1    3    3  501    0 -0.11809729531E+02  0.17989009304E+02  0.10760076944E+01  0.22052708674E+02  0.47000000000E+01 0.  1.
         -5    1    3    3    0  501  0.26991908944E+02  0.38905024218E+02 -0.35024609622E+03  0.35346369259E+03  0.47000000000E+01 0.  1.
          5    1    4    4  502    0 -0.53768948102E+02 -0.59100285298E+02 -0.80191002966E+02  0.11329885462E+03  0.47000000000E+01 0. -1.
         -5    1    4    4    0  502  0.38586768689E+02  0.22062517763E+01  0.12058809208E+02  0.40759184784E+02  0.47000000000E+01 0. -1.
<mgrwt>
<rscale>  0 0.32604891E+03</rscale>
<asrwt>0</asrwt>
<pdfrwt beam="1">  1       21 0.86363198E-02 0.32604891E+03</pdfrwt>
<pdfrwt beam="2">  1       21 0.72836672E-01 0.32604891E+03</pdfrwt>
<totfact> 0.17157249E+05</totfact>
</mgrwt>
</event>
<event>
 8    1  0.9974463E-006  0.5765029E+03  0.7546771E-02  0.9955391E-01
         21   -1    0    0  504  503  0.00000000000E+00  0.00000000000E+00  0.21063218658E+03  0.21063218658E+03  0.00000000000E+00 0. -1.
         21   -1    0    0  503  504 -0.00000000000E+00 -0.00000000000E+00 -0.39447391209E+03  0.39447391209E+03  0.00000000000E+00 0. -1.
         25    2    1    2    0    0  0.98817245385E+02 -0.20090077314E+03  0.46285701913E+02  0.26056442525E+03  0.12500193947E+03 0.  0.
         25    2    1    2    0    0 -0.98817245385E+02  0.20090077314E+03 -0.23012742743E+03  0.34454167342E+03  0.12499745292E+03 0.  0.
          5    1    3    3  501    0  0.10108248289E+03 -0.17836784393E+03  0.79624314116E+02  0.21998835763E+03  0.47000000000E+01 0. -1.
         -5    1    3    3    0  501 -0.22652375091E+01 -0.22532929207E+02 -0.33338612203E+02  0.40576067616E+02  0.47000000000E+01 0. -1.
          5    1    4    4  502    0  0.19435254627E+02  0.96032475183E+02 -0.94801611939E+02  0.13641627850E+03  0.47000000000E+01 0.  1.
         -5    1    4    4    0  502 -0.11825250001E+03  0.10486829795E+03 -0.13532581549E+03  0.20812539493E+03  0.47000000000E+01 0.  1.
<mgrwt>
<rscale>  0 0.57650291E+03</rscale>
<asrwt>0</asrwt>
<pdfrwt beam="1">  1       21 0.32404952E-01 0.57650291E+03</pdfrwt>
<pdfrwt beam="2">  1       21 0.60688294E-01 0.57650291E+03</pdfrwt>
<totfact> 0.20382079E+04</totfact>
</mgrwt>
</event>
<event>
 8    1  0.9974463E-006  0.2761203E+03  0.7546771E-02  0.1097827E+00
         21   -1    0    0  504  503  0.00000000000E+00  0.00000000000E+00  0.67272505782E+03  0.67272505782E+03  0.00000000000E+00 0. -1.
         21   -1    0    0  503  504 -0.00000000000E+00 -0.00000000000E+00 -0.28333429249E+02  0.28333429249E+02  0.00000000000E+00 0. -1.
         25    2    1    2    0    0 -0.29833374237E+02 -0.46265888813E+02  0.27093909922E+03  0.30342090893E+03  0.12500275919E+03 0.  0.
         25    2    1    2    0    0  0.29833374237E+02  0.46265888813E+02  0.37345252936E+03  0.39763757814E+03  0.12497315384E+03 0.  0.
          5    1    3    3  501    0  0.29218484231E+02 -0.40013820496E+02  0.21838412269E+03  0.22398334914E+03  0.47000000000E+01 0.  1.
         -5    1    3    3    0  501 -0.59051858468E+02 -0.62520683171E+01  0.52554976530E+02  0.79437559787E+02  0.47000000000E+01 0.  1.
          5    1    4    4  502    0  0.63912229358E+01 -0.23155518609E+02  0.93437971456E+01  0.26199662551E+02  0.47000000000E+01 0. -1.
         -5    1    4    4    0  502  0.23442151301E+02  0.69421407423E+02  0.36410873221E+03  0.37143791559E+03  0.47000000000E+01 0. -1.
<mgrwt>
<rscale>  0 0.27612032E+03</rscale>
<asrwt>0</asrwt>
<pdfrwt beam="1">  1       21 0.10349615E+00 0.27612032E+03</pdfrwt>
<pdfrwt beam="2">  1       21 0.43589896E-02 0.27612032E+03</pdfrwt>
<totfact> 0.25029550E+05</totfact>
</mgrwt>
</event>
<event>
 8    1  0.9974463E-006  0.2907105E+03  0.7546771E-02  0.1089979E+00
         21   -1    0    0  504  503  0.00000000000E+00  0.00000000000E+00  0.59483847287E+03  0.59483847287E+03  0.00000000000E+00 0.  1.
         21   -1    0    0  503  504 -0.00000000000E+00 -0.00000000000E+00 -0.35519127501E+02  0.35519127501E+02  0.00000000000E+00 0.  1.
         25    2    1    2    0    0  0.26651960320E+02  0.38842991474E+02  0.15541292584E+03  0.20493448330E+03  0.12500343977E+03 0.  0.
         25    2    1    2    0    0 -0.26651960320E+02 -0.38842991474E+02  0.40390641953E+03  0.42542311706E+03  0.12500131127E+03 0.  0.
          5    1    3    3  501    0 -0.17455873039E+02 -0.29261460438E+02  0.60970455818E+01  0.34931426185E+02  0.47000000000E+01 0. -1.
         -5    1    3    3    0  501  0.44107833359E+02  0.68104451911E+02  0.14931588025E+03  0.17000305712E+03  0.47000000000E+01 0. -1.
          5    1    4    4  502    0  0.20680149092E+02  0.14950095794E+02  0.28738003195E+03  0.28854903689E+03  0.47000000000E+01 0. -1.
         -5    1    4    4    0  502 -0.47332109413E+02 -0.53793087268E+02  0.11652638758E+03  0.13687408017E+03  0.47000000000E+01 0. -1.
<mgrwt>
<rscale>  0 0.29071046E+03</rscale>
<asrwt>0</asrwt>
<pdfrwt beam="1">  1       21 0.91513604E-01 0.29071046E+03</pdfrwt>
<pdfrwt beam="2">  1       21 0.54644816E-02 0.29071046E+03</pdfrwt>
<totfact> 0.22731357E+05</totfact>
</mgrwt>
</event>
<event>
 8    1  0.9974463E-006  0.2816232E+03  0.7546771E-02  0.1094806E+00
         21   -1    0    0  504  503  0.00000000000E+00  0.00000000000E+00  0.10431825449E+03  0.10431825449E+03  0.00000000000E+00 0.  1.
         21   -1    0    0  503  504 -0.00000000000E+00 -0.00000000000E+00 -0.19007136785E+03  0.19007136785E+03  0.00000000000E+00 0.  1.
         25    2    1    2    0    0 -0.49590351172E+01  0.24901195792E+02  0.19506419652E+02  0.12903306346E+03  0.12499747789E+03 0.  0.
         25    2    1    2    0    0  0.49590351172E+01 -0.24901195792E+02 -0.10525953301E+03  0.16535655887E+03  0.12497424011E+03 0.  0.
          5    1    3    3  501    0  0.52075541261E+02  0.38930130712E+02  0.25082937207E+02  0.69847410931E+02  0.47000000000E+01 0.  1.
         -5    1    3    3    0  501 -0.57034576378E+02 -0.14028934921E+02 -0.55765175551E+01  0.59185652532E+02  0.47000000000E+01 0.  1.
          5    1    4    4  502    0 -0.32210094157E+02  0.40346868567E+02 -0.49809712716E+02  0.71891984599E+02  0.47000000000E+01 0. -1.
         -5    1    4    4    0  502  0.37169129274E+02 -0.65248064359E+02 -0.55449820296E+02  0.93464574275E+02  0.47000000000E+01 0. -1.
<mgrwt>
<rscale>  0 0.28162325E+03</rscale>
<asrwt>0</asrwt>
<pdfrwt beam="1">  1       21 0.16048962E-01 0.28162325E+03</pdfrwt>
<pdfrwt beam="2">  1       21 0.29241749E-01 0.28162325E+03</pdfrwt>
<totfact> 0.38106981E+05</totfact>
</mgrwt>
</event>
<event>
 8    1  0.9974463E-006  0.2848858E+03  0.7546771E-02  0.1093050E+00
         21   -1    0    0  504  503  0.00000000000E+00  0.00000000000E+00  0.56549004238E+02  0.56549004238E+02  0.00000000000E+00 0. -1.
         21   -1    0    0  503  504 -0.00000000000E+00 -0.00000000000E+00 -0.35880344402E+03  0.35880344402E+03  0.00000000000E+00 0. -1.
         25    2    1    2    0    0 -0.22230842238E+02  0.61714714038E+02 -0.12340030330E+03  0.18749928419E+03  0.12500172175E+03 0.  0.
         25    2    1    2    0    0  0.22230842238E+02 -0.61714714038E+02 -0.17885413648E+03  0.22785316407E+03  0.12500138385E+03 0.  0.
          5    1    3    3  501    0 -0.34582840440E+02 -0.30271319662E+02 -0.56546046834E+02  0.73019662144E+02  0.47000000000E+01 0. -1.
         -5    1    3    3    0  501  0.12351998202E+02  0.91986033700E+02 -0.66854256467E+02  0.11447962204E+03  0.47000000000E+01 0. -1.
          5    1    4    4  502    0 -0.28867574187E+02  0.15578911779E+02 -0.10241710093E+03  0.10764474857E+03  0.47000000000E+01 0. -1.
         -5    1    4    4    0  502  0.51098416425E+02 -0.77293625817E+02 -0.76437035543E+02  0.12020841549E+03  0.47000000000E+01 0. -1.
<mgrwt>
<rscale>  0 0.28488578E+03</rscale>
<asrwt>0</asrwt>
<pdfrwt beam="1">  1       21 0.86998469E-02 0.28488578E+03</pdfrwt>
<pdfrwt beam="2">  1       21 0.55200529E-01 0.28488578E+03</pdfrwt>
<totfact> 0.31386905E+05</totfact>
</mgrwt>
</event>
<event>
 8    1  0.9974463E-006  0.3354717E+03  0.7546771E-02  0.1068741E+00
         21   -1    0    0  504  503  0.00000000000E+00  0.00000000000E+00  0.46261146904E+03  0.46261146904E+03  0.00000000000E+00 0.  1.
         21   -1    0    0  503  504 -0.00000000000E+00 -0.00000000000E+00 -0.60818465118E+02  0.60818465118E+02  0.00000000000E+00 0.  1.
         25    2    1    2    0    0 -0.66579952671E+02 -0.45033460433E+02  0.79527338907E+02  0.16854963216E+03  0.12499391270E+03 0.  0.
         25    2    1    2    0    0  0.66579952671E+02  0.45033460433E+02  0.32226566502E+03  0.35488030200E+03  0.12499586891E+03 0.  0.
          5    1    3    3  501    0 -0.72059506994E+01 -0.73688941347E+02  0.14040246362E+02  0.75506319737E+02  0.47000000000E+01 0. -1.
         -5    1    3    3    0  501 -0.59374001971E+02  0.28655480914E+02  0.65487092545E+02  0.93043312422E+02  0.47000000000E+01 0. -1.
          5    1    4    4  502    0 -0.28293824964E+02  0.18948843638E+02  0.27289621284E+02  0.43890917467E+02  0.47000000000E+01 0.  1.
         -5    1    4    4    0  502  0.94873777635E+02  0.26084616795E+02  0.29497604374E+03  0.31098938454E+03  0.47000000000E+01 0.  1.
<mgrwt>
<rscale>  0 0.33547172E+03</rscale>
<asrwt>0</asrwt>
<pdfrwt beam="1">  1       21 0.71170993E-01 0.33547172E+03</pdfrwt>
<pdfrwt beam="2">  1       21 0.93566872E-02 0.33547172E+03</pdfrwt>
<totfact> 0.15643864E+05</totfact>
</mgrwt>
</event>
<event>
 8    1  0.9974463E-006  0.5542802E+03  0.7546771E-02  0.1000508E+00
         21   -1    0    0  504  503  0.00000000000E+00  0.00000000000E+00  0.27272125186E+03  0.27272125186E+03  0.00000000000E+00 0. -1.
         21   -1    0    0  503  504 -0.00000000000E+00 -0.00000000000E+00 -0.28163056753E+03  0.28163056753E+03  0.00000000000E+00 0. -1.
         25    2    1    2    0    0 -0.20593826454E+03  0.61235093702E+02 -0.12702566617E+03  0.27914413879E+03  0.12500249938E+03 0.  0.
         25    2    1    2    0    0  0.20593826454E+03 -0.61235093702E+02  0.11811635050E+03  0.27520768060E+03  0.12500995842E+03 0.  0.
          5    1    3    3  501    0 -0.17663077450E+03  0.15482078329E+02 -0.49120237697E+02  0.18404622517E+03  0.47000000000E+01 0. -1.
         -5    1    3    3    0  501 -0.29307490043E+02  0.45753015373E+02 -0.77905428471E+02  0.95097913614E+02  0.47000000000E+01 0. -1.
          5    1    4    4  502    0  0.35121720568E+02 -0.44887713106E+02 -0.13662221145E+02  0.58797859912E+02  0.47000000000E+01 0.  1.
         -5    1    4    4    0  502  0.17081654397E+03 -0.16347380596E+02  0.13177857164E+03  0.21640982069E+03  0.47000000000E+01 0.  1.
<mgrwt>
<rscale>  0 0.55428022E+03</rscale>
<asrwt>0</asrwt>
<pdfrwt beam="1">  1       21 0.41957116E-01 0.55428022E+03</pdfrwt>
<pdfrwt beam="2">  1       21 0.43327780E-01 0.55428022E+03</pdfrwt>
<totfact> 0.24870864E+04</totfact>
</mgrwt>
</event>
<event>
 8    1  0.9974463E-006  0.2736001E+03  0.7546771E-02  0.1099237E+00
         21   -1    0    0  504  503  0.00000000000E+00  0.00000000000E+00  0.12844035073E+04  0.12844035073E+04  0.00000000000E+00 0.  1.
         21   -1    0    0  503  504 -0.00000000000E+00 -0.00000000000E+00 -0.14570383680E+02  0.14570383680E+02  0.00000000000E+00 0.  1.
         25    2    1    2    0    0 -0.29039858009E+02 -0.35774564833E+02  0.48726873884E+03  0.50515144468E+03  0.12499610141E+03 0.  0.
         25    2    1    2    0    0  0.29039858009E+02  0.35774564833E+02  0.78256438474E+03  0.79382244626E+03  0.12499570826E+03 0.  0.
          5    1    3    3  501    0 -0.13517425808E+02 -0.60872606560E+02  0.46142793880E+03  0.46564581790E+03  0.47000000000E+01 0. -1.
         -5    1    3    3    0  501 -0.15522432201E+02  0.25098041727E+02  0.25840800048E+02  0.39505626778E+02  0.47000000000E+01 0. -1.
          5    1    4    4  502    0 -0.38146948310E+02  0.34560108593E+02  0.17325904872E+03  0.18080480838E+03  0.47000000000E+01 0. -1.
         -5    1    4    4    0  502  0.67186806319E+02  0.12144562399E+01  0.60930533602E+03  0.61301763788E+03  0.47000000000E+01 0. -1.
<mgrwt>
<rscale>  0 0.27360009E+03</rscale>
<asrwt>0</asrwt>
<pdfrwt beam="1">  1       21 0.19760045E+00 0.27360009E+03</pdfrwt>
<pdfrwt beam="2">  1       21 0.22415985E-02 0.27360009E+03</pdfrwt>
<totfact> 0.13684133E+05</totfact>
</mgrwt>
</event>
<event>
 8    1  0.9974463E-006  0.3312641E+03  0.7546771E-02  0.1070579E+00
         21   -1    0    0  504  503  0.00000000000E+00  0.00000000000E+00  0.86983251232E+03  0.86983251232E+03  0.00000000000E+00 0.  1.
         21   -1    0    0  503  504 -0.00000000000E+00 -0.00000000000E+00 -0.31539383849E+02  0.31539383849E+02  0.00000000000E+00 0.  1.
         25    2    1    2    0    0 -0.65547438930E+02  0.69729193568E+02  0.27907420734E+03  0.32041496871E+03  0.12499884711E+03 0.  0.
         25    2    1    2    0    0  0.65547438930E+02 -0.69729193568E+02  0.55921892113E+03  0.58095692746E+03  0.12500609040E+03 0.  0.
          5    1    3    3  501    0  0.11259321636E+02 -0.85325771279E+01  0.15105771093E+03  0.15178965455E+03  0.47000000000E+01 0.  1.
         -5    1    3    3    0  501 -0.76806760565E+02  0.78261770696E+02  0.12801649642E+03  0.16862531416E+03  0.47000000000E+01 0.  1.
          5    1    4    4  502    0  0.50610164707E+02 -0.23367614977E+02  0.71475755766E+02  0.90765124711E+02  0.47000000000E+01 0.  1.
         -5    1    4    4    0  502  0.14937274222E+02 -0.46361578591E+02  0.48774316536E+03  0.49019180275E+03  0.47000000000E+01 0.  1.
<mgrwt>
<rscale>  0 0.33126413E+03</rscale>
<asrwt>0</asrwt>
<pdfrwt beam="1">  1       21 0.13382037E+00 0.33126413E+03</pdfrwt>
<pdfrwt beam="2">  1       21 0.48522136E-02 0.33126413E+03</pdfrwt>
<totfact> 0.10809500E+05</totfact>
</mgrwt>
</event>
<event>
 8    1  0.9974463E-006  0.4318335E+03  0.7546771E-02  0.1033282E+00
         21   -1    0    0  504  503  0.00000000000E+00  0.00000000000E+00  0.57819373756E+03  0.57819373756E+03  0.00000000000E+00 0. -1.
         21   -1    0    0  503  504 -0.00000000000E+00 -0.00000000000E+00 -0.80630493422E+02  0.80630493422E+02  0.00000000000E+00 0. -1.
         25    2    1    2    0    0 -0.47247278040E+02  0.16845699515E+03  0.21883573531E+03  0.30679514534E+03  0.12499647060E+03 0.  0.
         25    2    1    2    0    0  0.47247278040E+02 -0.16845699515E+03  0.27872750883E+03  0.35202908564E+03  0.12500155384E+03 0.  0.
          5    1    3    3  501    0  0.35438545357E+02  0.11549724577E+02  0.36312288931E+02  0.52249009198E+02  0.47000000000E+01 0.  1.
         -5    1    3    3    0  501 -0.82685823397E+02  0.15690727057E+03  0.18252344638E+03  0.25454613614E+03  0.47000000000E+01 0.  1.
          5    1    4    4  502    0  0.80044682442E+02 -0.99837285496E+02  0.22468072758E+03  0.25860810913E+03  0.47000000000E+01 0.  1.
         -5    1    4    4    0  502 -0.32797404402E+02 -0.68619709651E+02  0.54046781247E+02  0.93420976505E+02  0.47000000000E+01 0.  1.
<mgrwt>
<rscale>  0 0.43183352E+03</rscale>
<asrwt>0</asrwt>
<pdfrwt beam="1">  1       21 0.88952880E-01 0.43183352E+03</pdfrwt>
<pdfrwt beam="2">  1       21 0.12404692E-01 0.43183352E+03</pdfrwt>
<totfact> 0.55121748E+04</totfact>
</mgrwt>
</event>
<event>
 8    1  0.9974463E-006  0.3097526E+03  0.7546771E-02  0.1080465E+00
         21   -1    0    0  504  503  0.00000000000E+00  0.00000000000E+00  0.14663550047E+03  0.14663550047E+03  0.00000000000E+00 0. -1.
         21   -1    0    0  503  504 -0.00000000000E+00 -0.00000000000E+00 -0.16358022329E+03  0.16358022329E+03  0.00000000000E+00 0. -1.
         25    2    1    2    0    0 -0.17440688978E+02 -0.24193580628E+02  0.78097798243E+02  0.15038020800E+03  0.12500173556E+03 0.  0.
         25    2    1    2    0    0  0.17440688978E+02  0.24193580628E+02 -0.95042521067E+02  0.15983551576E+03  0.12499921725E+03 0.  0.
          5    1    3    3  501    0 -0.68300910733E+02 -0.20406055613E+01  0.23525740649E+02  0.72420500904E+02  0.47000000000E+01 0.  1.
         -5    1    3    3    0  501  0.50860221755E+02 -0.22152975066E+02  0.54572057594E+02  0.77959707101E+02  0.47000000000E+01 0.  1.
          5    1    4    4  502    0 -0.27536386661E+02  0.40359981293E+02 -0.10015829249E+03  0.11153902561E+03  0.47000000000E+01 0. -1.
         -5    1    4    4    0  502  0.44977075638E+02 -0.16166400665E+02  0.51157714217E+01  0.48296490149E+02  0.47000000000E+01 0. -1.
<mgrwt>
<rscale>  0 0.30975260E+03</rscale>
<asrwt>0</asrwt>
<pdfrwt beam="1">  1       21 0.22559308E-01 0.30975260E+03</pdfrwt>
<pdfrwt beam="2">  1       21 0.25166188E-01 0.30975260E+03</pdfrwt>
<totfact> 0.26782418E+05</totfact>
</mgrwt>
</event>
<event>
 8    1  0.9974463E-006  0.2549312E+03  0.7546771E-02  0.1110228E+00
         21   -1    0    0  504  503  0.00000000000E+00  0.00000000000E+00  0.20590264894E+03  0.20590264894E+03  0.00000000000E+00 0.  1.
         21   -1    0    0  503  504 -0.00000000000E+00 -0.00000000000E+00 -0.78908527970E+02  0.78908527970E+02  0.00000000000E+00 0.  1.
         25    2    1    2    0    0 -0.59854582276E+01  0.23628370980E+02  0.57699406372E+02  0.13982898798E+03  0.12501519411E+03 0.  0.
         25    2    1    2    0    0  0.59854582276E+01 -0.23628370980E+02  0.69294714600E+02  0.14498218894E+03  0.12499580798E+03 0.  0.
          5    1    3    3  501    0  0.46444277316E+01  0.21801595564E+02  0.96568044393E+02  0.99218735509E+02  0.47000000000E+01 0.  1.
         -5    1    3    3    0  501 -0.10629885959E+02  0.18267754162E+01 -0.38868638021E+02  0.40610252468E+02  0.47000000000E+01 0.  1.
          5    1    4    4  502    0  0.38271395319E+02 -0.84184380883E+01  0.93577732123E+02  0.10156008935E+03  0.47000000000E+01 0. -1.
         -5    1    4    4    0  502 -0.32285937091E+02 -0.15209932892E+02 -0.24283017523E+02  0.43422099586E+02  0.47000000000E+01 0. -1.
<mgrwt>
<rscale>  0 0.25493117E+03</rscale>
<asrwt>0</asrwt>
<pdfrwt beam="1">  1       21 0.31677330E-01 0.25493117E+03</pdfrwt>
<pdfrwt beam="2">  1       21 0.12139774E-01 0.25493117E+03</pdfrwt>
<totfact> 0.54432144E+05</totfact>
</mgrwt>
</event>
<event>
 8    1  0.9974463E-006  0.9234339E+03  0.7546771E-02  0.9396753E-01
         21   -1    0    0  504  503  0.00000000000E+00  0.00000000000E+00  0.80650091178E+03  0.80650091178E+03  0.00000000000E+00 0.  1.
         21   -1    0    0  503  504 -0.00000000000E+00 -0.00000000000E+00 -0.26433021544E+03  0.26433021544E+03  0.00000000000E+00 0.  1.
         25    2    1    2    0    0 -0.31735449527E+03  0.14903555827E+03  0.58787949614E+03  0.69581034779E+03  0.12499705918E+03 0.  0.
         25    2    1    2    0    0  0.31735449527E+03 -0.14903555827E+03 -0.45708799802E+02  0.37502077944E+03  0.12500326930E+03 0.  0.
          5    1    3    3  501    0 -0.32453268671E+03  0.13312882895E+03  0.53349292318E+03  0.63849944317E+03  0.47000000000E+01 0. -1.
         -5    1    3    3    0  501  0.71781914341E+01  0.15906729327E+02  0.54386572959E+02  0.57310904620E+02  0.47000000000E+01 0. -1.
          5    1    4    4  502    0  0.17890945276E+03 -0.46286252494E+02  0.28896617634E+02  0.18710455358E+03  0.47000000000E+01 0.  1.
         -5    1    4    4    0  502  0.13844504251E+03 -0.10274930578E+03 -0.74605417436E+02  0.18791622587E+03  0.47000000000E+01 0.  1.
<mgrwt>
<rscale>  0 0.92343394E+03</rscale>
<asrwt>0</asrwt>
<pdfrwt beam="1">  1       21 0.12407706E+00 0.92343394E+03</pdfrwt>
<pdfrwt beam="2">  1       21 0.40666187E-01 0.92343394E+03</pdfrwt>
<totfact> 0.21706238E+03</totfact>
</mgrwt>
</event>
<event>
 8    1  0.9974463E-006  0.3738093E+03  0.7546771E-02  0.1053246E+00
         21   -1    0    0  504  503  0.00000000000E+00  0.00000000000E+00  0.18995256068E+03  0.18995256068E+03  0.00000000000E+00 0.  1.
         21   -1    0    0  503  504 -0.00000000000E+00 -0.00000000000E+00 -0.18390564284E+03  0.18390564284E+03  0.00000000000E+00 0.  1.
         25    2    1    2    0    0  0.96315465391E+02 -0.98146018512E+02  0.22960005120E+02  0.18724893589E+03  0.12500276930E+03 0.  0.
         25    2    1    2    0    0 -0.96315465391E+02  0.98146018512E+02 -0.16913087282E+02  0.18660926763E+03  0.12501062524E+03 0.  0.
          5    1    3    3  501    0  0.96045680333E+02 -0.98199413755E+02  0.59959989688E+02  0.14995061832E+03  0.47000000000E+01 0.  1.
         -5    1    3    3    0  501  0.26978505862E+00  0.53395243683E-01 -0.36999984568E+02  0.37298317563E+02  0.47000000000E+01 0.  1.
          5    1    4    4  502    0 -0.47671219884E+02  0.40775390630E+02 -0.70236033912E+02  0.94288748777E+02  0.47000000000E+01 0. -1.
         -5    1    4    4    0  502 -0.48644245507E+02  0.57370627882E+02  0.53322946630E+02  0.92320518856E+02  0.47000000000E+01 0. -1.
<mgrwt>
<rscale>  0 0.37380930E+03</rscale>
<asrwt>0</asrwt>
<pdfrwt beam="1">  1       21 0.29223471E-01 0.37380930E+03</pdfrwt>
<pdfrwt beam="2">  1       21 0.28293176E-01 0.37380930E+03</pdfrwt>
<totfact> 0.12735187E+05</totfact>
</mgrwt>
</event>
<event>
 8    1  0.9974463E-006  0.3182576E+03  0.7546771E-02  0.1076454E+00
         21   -1    0    0  504  503  0.00000000000E+00  0.00000000000E+00  0.28531904240E+03  0.28531904240E+03  0.00000000000E+00 0. -1.
         21   -1    0    0  503  504 -0.00000000000E+00 -0.00000000000E+00 -0.88749680247E+02  0.88749680247E+02  0.00000000000E+00 0. -1.
         25    2    1    2    0    0  0.37167266860E+02  0.68657384352E+02  0.27773241220E+02  0.14997199663E+03  0.12500001877E+03 0.  0.
         25    2    1    2    0    0 -0.37167266860E+02 -0.68657384352E+02  0.16879612093E+03  0.22409672601E+03  0.12502787696E+03 0.  0.
          5    1    3    3  501    0  0.58670607311E+02  0.97312521180E+01 -0.28002164553E+02  0.65902569371E+02  0.47000000000E+01 0.  1.
         -5    1    3    3    0  501 -0.21503340451E+02  0.58926132234E+02  0.55775405773E+02  0.84069427259E+02  0.47000000000E+01 0.  1.
          5    1    4    4  502    0  0.19407381799E+02  0.24486143807E+02  0.70520222052E+02  0.77274895180E+02  0.47000000000E+01 0. -1.
         -5    1    4    4    0  502 -0.56574648659E+02 -0.93143528159E+02  0.98275898878E+02  0.14682183083E+03  0.47000000000E+01 0. -1.
<mgrwt>
<rscale>  0 0.31825759E+03</rscale>
<asrwt>0</asrwt>
<pdfrwt beam="1">  1       21 0.43895237E-01 0.31825759E+03</pdfrwt>
<pdfrwt beam="2">  1       21 0.13653797E-01 0.31825759E+03</pdfrwt>
<totfact> 0.22474887E+05</totfact>
</mgrwt>
</event>
<event>
 8    1  0.9974463E-006  0.3010099E+03  0.7546771E-02  0.1084737E+00
         21   -1    0    0  504  503  0.00000000000E+00  0.00000000000E+00  0.13070177422E+02  0.13070177422E+02  0.00000000000E+00 0.  1.
         21   -1    0    0  503  504 -0.00000000000E+00 -0.00000000000E+00 -0.17330853831E+04  0.17330853831E+04  0.00000000000E+00 0.  1.
         25    2    1    2    0    0 -0.32313226841E+02  0.71062769990E+02 -0.68200444072E+03  0.69774583473E+03  0.12500052329E+03 0.  0.
         25    2    1    2    0    0  0.32313226841E+02 -0.71062769990E+02 -0.10380107650E+04  0.10484097258E+04  0.12491013988E+03 0.  0.
          5    1    3    3  501    0 -0.39949633874E+00 -0.35522154739E+02 -0.15162184729E+03  0.15579877294E+03  0.47000000000E+01 0.  1.
         -5    1    3    3    0  501 -0.31913730503E+02  0.10658492473E+03 -0.53038259343E+03  0.54194706180E+03  0.47000000000E+01 0.  1.
          5    1    4    4  502    0  0.54312840203E+02  0.12861897838E+02 -0.53777642220E+03  0.54068556787E+03  0.47000000000E+01 0.  1.
         -5    1    4    4    0  502 -0.21999613361E+02 -0.83924667828E+02 -0.50023434278E+03  0.50772415794E+03  0.47000000000E+01 0.  1.
<mgrwt>
<rscale>  0 0.30100986E+03</rscale>
<asrwt>0</asrwt>
<pdfrwt beam="1">  1       21 0.20107973E-02 0.30100986E+03</pdfrwt>
<pdfrwt beam="2">  1       21 0.26662842E+00 0.30100986E+03</pdfrwt>
<totfact> 0.60527136E+04</totfact>
</mgrwt>
</event>
<event>
 8    1  0.9974463E-006  0.2628599E+03  0.7546771E-02  0.1105437E+00
         21   -1    0    0  504  503  0.00000000000E+00  0.00000000000E+00  0.67317225876E+01  0.67317225876E+01  0.00000000000E+00 0.  1.
         21   -1    0    0  503  504 -0.00000000000E+00 -0.00000000000E+00 -0.25660347777E+04  0.25660347777E+04  0.00000000000E+00 0.  1.
         25    2    1    2    0    0  0.23993614102E+02  0.11989881185E+02 -0.15780240661E+04  0.15831945430E+04  0.12500222791E+03 0.  0.
         25    2    1    2    0    0 -0.23993614102E+02 -0.11989881185E+02 -0.98127898908E+03  0.98957195737E+03  0.12499901453E+03 0.  0.
          5    1    3    3  501    0 -0.11161466285E+02 -0.45808003669E+01 -0.15571022320E+02  0.20251143121E+02  0.47000000000E+01 0. -1.
         -5    1    3    3    0  501  0.35155080387E+02  0.16570681552E+02 -0.15624530438E+04  0.15629433998E+04  0.47000000000E+01 0. -1.
          5    1    4    4  502    0 -0.21373451282E+02 -0.49672581994E+02 -0.19617796530E+03  0.20354870152E+03  0.47000000000E+01 0. -1.
         -5    1    4    4    0  502 -0.26201628208E+01  0.37682700808E+02 -0.78510102378E+03  0.78602325584E+03  0.47000000000E+01 0. -1.
<mgrwt>
<rscale>  0 0.26285992E+03</rscale>
<asrwt>0</asrwt>
<pdfrwt beam="1">  1       21 0.10356496E-02 0.26285992E+03</pdfrwt>
<pdfrwt beam="2">  1       21 0.39477458E+00 0.26285992E+03</pdfrwt>
<totfact> 0.31083540E+04</totfact>
</mgrwt>
</event>
<event>
 8    1  0.9974463E-006  0.2790358E+03  0.7546771E-02  0.1096217E+00
         21   -1    0    0  504  503  0.00000000000E+00  0.00000000000E+00  0.39373803143E+03  0.39373803143E+03  0.00000000000E+00 0.  1.
         21   -1    0    0  503  504 -0.00000000000E+00 -0.00000000000E+00 -0.49437042821E+02  0.49437042821E+02  0.00000000000E+00 0.  1.
         25    2    1    2    0    0  0.49753680747E+00  0.58019496834E+02  0.13740974240E+03  0.19458731084E+03  0.12496509383E+03 0.  0.
         25    2    1    2    0    0 -0.49753680747E+00 -0.58019496834E+02  0.20689124621E+03  0.24858776342E+03  0.12500151522E+03 0.  0.
          5    1    3    3  501    0  0.20348212184E+02 -0.62833401535E+01 -0.15967749892E+02  0.27029412483E+02  0.47000000000E+01 0. -1.
         -5    1    3    3    0  501 -0.19850675377E+02  0.64302836987E+02  0.15337749230E+03  0.16755789835E+03  0.47000000000E+01 0. -1.
          5    1    4    4  502    0 -0.18626727110E+02 -0.55987275440E+02  0.22635994106E+02  0.63371982793E+02  0.47000000000E+01 0.  1.
         -5    1    4    4    0  502  0.18129190302E+02 -0.20322213939E+01  0.18425525210E+03  0.18521578062E+03  0.47000000000E+01 0.  1.
<mgrwt>
<rscale>  0 0.27903580E+03</rscale>
<asrwt>0</asrwt>
<pdfrwt beam="1">  1       21 0.60575080E-01 0.27903580E+03</pdfrwt>
<pdfrwt beam="2">  1       21 0.76056991E-02 0.27903580E+03</pdfrwt>
<totfact> 0.32578385E+05</totfact>
</mgrwt>
</event>
<event>
 8    1  0.9974463E-006  0.2560575E+03  0.7546771E-02  0.1109535E+00
         21   -1    0    0  504  503  0.00000000000E+00  0.00000000000E+00  0.11151674088E+03  0.11151674088E+03  0.00000000000E+00 0.  1.
         21   -1    0    0  503  504 -0.00000000000E+00 -0.00000000000E+00 -0.14698565593E+03  0.14698565593E+03  0.00000000000E+00 0.  1.
         25    2    1    2    0    0  0.53890295488E+01  0.22370905973E+02 -0.21800520921E+01  0.12712111575E+03  0.12500210546E+03 0.  0.
         25    2    1    2    0    0 -0.53890295488E+01 -0.22370905973E+02 -0.33288862958E+02  0.13138128106E+03  0.12499357401E+03 0.  0.
          5    1    3    3  501    0  0.55394421341E+02  0.55573784999E+01 -0.33932088439E+02  0.65367446006E+02  0.47000000000E+01 0. -1.
         -5    1    3    3    0  501 -0.50005391792E+02  0.16813527473E+02  0.31752036347E+02  0.61753669742E+02  0.47000000000E+01 0. -1.
          5    1    4    4  502    0 -0.30166332589E+02 -0.34146369581E+02 -0.71011099836E+02  0.84502357822E+02  0.47000000000E+01 0.  1.
         -5    1    4    4    0  502  0.24777303040E+02  0.11775463607E+02  0.37722236879E+02  0.46878923241E+02  0.47000000000E+01 0.  1.
<mgrwt>
<rscale>  0 0.25605750E+03</rscale>
<asrwt>0</asrwt>
<pdfrwt beam="1">  1       21 0.17156422E-01 0.25605750E+03</pdfrwt>
<pdfrwt beam="2">  1       21 0.22613178E-01 0.25605750E+03</pdfrwt>
<totfact> 0.55572533E+05</totfact>
</mgrwt>
</event>
<event>
 8    1  0.9974463E-006  0.4390539E+03  0.7546771E-02  0.1031037E+00
         21   -1    0    0  504  503  0.00000000000E+00  0.00000000000E+00  0.18320840709E+03  0.18320840709E+03  0.00000000000E+00 0. -1.
         21   -1    0    0  503  504 -0.00000000000E+00 -0.00000000000E+00 -0.26304513728E+03  0.26304513728E+03  0.00000000000E+00 0. -1.
         25    2    1    2    0    0 -0.81757508711E+02 -0.34399030100E+02  0.11983272034E+03  0.19455338359E+03  0.12499421867E+03 0.  0.
         25    2    1    2    0    0  0.81757508711E+02  0.34399030100E+02 -0.19966945052E+03  0.25170016078E+03  0.12496998825E+03 0.  0.
          5    1    3    3  501    0  0.27082640075E+02 -0.32872277563E+02  0.22214299646E+02  0.48266148949E+02  0.47000000000E+01 0. -1.
         -5    1    3    3    0  501 -0.10884014879E+03 -0.15267525369E+01  0.97618420692E+02  0.14628723464E+03  0.47000000000E+01 0. -1.
          5    1    4    4  502    0  0.11207705685E+03  0.43911394599E+02 -0.16668523085E+03  0.20565877912E+03  0.47000000000E+01 0. -1.
         -5    1    4    4    0  502 -0.30319548136E+02 -0.95123644989E+01 -0.32984219678E+02  0.46041381662E+02  0.47000000000E+01 0. -1.
<mgrwt>
<rscale>  0 0.43905389E+03</rscale>
<asrwt>0</asrwt>
<pdfrwt beam="1">  1       21 0.28185909E-01 0.43905389E+03</pdfrwt>
<pdfrwt beam="2">  1       21 0.40468483E-01 0.43905389E+03</pdfrwt>
<totfact> 0.65669860E+04</totfact>
</mgrwt>
</event>
<event>
 8    1  0.9974463E-006  0.2985997E+03  0.7546771E-02  0.1085943E+00
         21   -1    0    0  504  503  0.00000000000E+00  0.00000000000E+00  0.26271270458E+03  0.26271270458E+03  0.00000000000E+00 0. -1.
         21   -1    0    0  503  504 -0.00000000000E+00 -0.00000000000E+00 -0.84847240175E+02  0.84847240175E+02  0.00000000000E+00 0. -1.
         25    2    1    2    0    0  0.10457145602E+02  0.79884939574E+02  0.73571154237E+02  0.16591687751E+03  0.12499896016E+03 0.  0.
         25    2    1    2    0    0 -0.10457145602E+02 -0.79884939574E+02  0.10429431017E+03  0.18164306725E+03  0.12500378107E+03 0.  0.
          5    1    3    3  501    0  0.63426112532E+02  0.48223544519E+02  0.65995796610E+02  0.10356600392E+03  0.47000000000E+01 0.  1.
         -5    1    3    3    0  501 -0.52968966930E+02  0.31661395055E+02  0.75753576268E+01  0.62350873592E+02  0.47000000000E+01 0.  1.
          5    1    4    4  502    0  0.43519294049E+02  0.36957570885E+01  0.55345883975E+02  0.70660062609E+02  0.47000000000E+01 0. -1.
         -5    1    4    4    0  502 -0.53976439651E+02 -0.83580696663E+02  0.48948426194E+02  0.11098300464E+03  0.47000000000E+01 0. -1.
<mgrwt>
<rscale>  0 0.29859972E+03</rscale>
<asrwt>0</asrwt>
<pdfrwt beam="1">  1       21 0.40417339E-01 0.29859972E+03</pdfrwt>
<pdfrwt beam="2">  1       21 0.13053422E-01 0.29859972E+03</pdfrwt>
<totfact> 0.29027437E+05</totfact>
</mgrwt>
</event>
<event>
 8    1  0.9974463E-006  0.3100587E+03  0.7546771E-02  0.1080318E+00
         21   -1    0    0  504  503  0.00000000000E+00  0.00000000000E+00  0.20471269167E+03  0.20471269167E+03  0.00000000000E+00 0.  1.
         21   -1    0    0  503  504 -0.00000000000E+00 -0.00000000000E+00 -0.11740402725E+03  0.11740402725E+03  0.00000000000E+00 0.  1.
         25    2    1    2    0    0 -0.56338785537E+02 -0.52023590774E+02 -0.85767215208E+01  0.14690798529E+03  0.12501153242E+03 0.  0.
         25    2    1    2    0    0  0.56338785537E+02  0.52023590774E+02  0.95885385937E+02  0.17520873363E+03  0.12499432128E+03 0.  0.
          5    1    3    3  501    0 -0.18875834037E+02  0.73665348586E+01 -0.57533893623E+02  0.61178442787E+02  0.47000000000E+01 0. -1.
         -5    1    3    3    0  501 -0.37462951500E+02 -0.59390125633E+02  0.48957172102E+02  0.85729542505E+02  0.47000000000E+01 0. -1.
          5    1    4    4  502    0  0.40566358726E+01 -0.19972093619E+02  0.82498340898E+02  0.85108208000E+02  0.47000000000E+01 0.  1.
         -5    1    4    4    0  502  0.52282149664E+02  0.71995684393E+02  0.13387045039E+02  0.90100525635E+02  0.47000000000E+01 0.  1.
<mgrwt>
<rscale>  0 0.31005867E+03</rscale>
<asrwt>0</asrwt>
<pdfrwt beam="1">  1       21 0.31494260E-01 0.31005867E+03</pdfrwt>
<pdfrwt beam="2">  1       21 0.18062158E-01 0.31005867E+03</pdfrwt>
<totfact> 0.26286582E+05</totfact>
</mgrwt>
</event>
<event>
 8    1  0.9974463E-006  0.2937899E+03  0.7546771E-02  0.1088387E+00
         21   -1    0    0  504  503  0.00000000000E+00  0.00000000000E+00  0.14604420325E+04  0.14604420325E+04  0.00000000000E+00 0.  1.
         21   -1    0    0  503  504 -0.00000000000E+00 -0.00000000000E+00 -0.14775064152E+02  0.14775064152E+02  0.00000000000E+00 0.  1.
         25    2    1    2    0    0  0.49285097680E+02 -0.41836526778E+02  0.93429854059E+03  0.94483756455E+03  0.12499977842E+03 0.  0.
         25    2    1    2    0    0 -0.49285097680E+02  0.41836526778E+02  0.51136842778E+03  0.53037953212E+03  0.12500185336E+03 0.  0.
          5    1    3    3  501    0  0.83431415067E+02 -0.14285849982E+01  0.67509042744E+03  0.68024408641E+03  0.47000000000E+01 0. -1.
         -5    1    3    3    0  501 -0.34146317386E+02 -0.40407941779E+02  0.25920811315E+03  0.26459347813E+03  0.47000000000E+01 0. -1.
          5    1    4    4  502    0  0.36511264320E+02  0.36538498762E+01  0.24770169787E+03  0.25044888535E+03  0.47000000000E+01 0. -1.
         -5    1    4    4    0  502 -0.85796362001E+02  0.38182676901E+02  0.26366672990E+03  0.27993064678E+03  0.47000000000E+01 0. -1.
<mgrwt>
<rscale>  0 0.29378989E+03</rscale>
<asrwt>0</asrwt>
<pdfrwt beam="1">  1       21 0.22468328E+00 0.29378989E+03</pdfrwt>
<pdfrwt beam="2">  1       21 0.22730879E-02 0.29378989E+03</pdfrwt>
<totfact> 0.89089531E+04</totfact>
</mgrwt>
</event>
<event>
 8    1  0.9974463E-006  0.3627497E+03  0.7546771E-02  0.1057500E+00
         21   -1    0    0  504  503  0.00000000000E+00  0.00000000000E+00  0.37073012734E+03  0.37073012734E+03  0.00000000000E+00 0.  1.
         21   -1    0    0  503  504 -0.00000000000E+00 -0.00000000000E+00 -0.88735255960E+02  0.88735255960E+02  0.00000000000E+00 0.  1.
         25    2    1    2    0    0  0.36921220508E+02  0.11241830860E+03  0.68559655876E+02  0.18527390324E+03  0.12499976071E+03 0.  0.
         25    2    1    2    0    0 -0.36921220508E+02 -0.11241830860E+03  0.21343521550E+03  0.27419148006E+03  0.12500129555E+03 0.  0.
          5    1    3    3  501    0 -0.43455698382E+00 -0.27149693251E+02  0.10326615327E+02  0.29428280064E+02  0.47000000000E+01 0. -1.
         -5    1    3    3    0  501  0.37355777492E+02  0.13956800185E+03  0.58233040550E+02  0.15584562318E+03  0.47000000000E+01 0. -1.
          5    1    4    4  502    0 -0.44797009868E+02 -0.15430901560E+02  0.15136755949E+03  0.15867927678E+03  0.47000000000E+01 0. -1.
         -5    1    4    4    0  502  0.78757893598E+01 -0.96987407036E+02  0.62067656013E+02  0.11551220327E+03  0.47000000000E+01 0. -1.
<mgrwt>
<rscale>  0 0.36274968E+03</rscale>
<asrwt>0</asrwt>
<pdfrwt beam="1">  1       21 0.57035403E-01 0.36274968E+03</pdfrwt>
<pdfrwt beam="2">  1       21 0.13651578E-01 0.36274968E+03</pdfrwt>
<totfact> 0.12801108E+05</totfact>
</mgrwt>
</event>
<event>
 8    1  0.9974463E-006  0.3834238E+03  0.7546771E-02  0.1049676E+00
         21   -1    0    0  504  503  0.00000000000E+00  0.00000000000E+00  0.12948091865E+03  0.12948091865E+03  0.00000000000E+00 0. -1.
         21   -1    0    0  503  504 -0.00000000000E+00 -0.00000000000E+00 -0.28385224722E+03  0.28385224722E+03  0.00000000000E+00 0. -1.
         25    2    1    2    0    0 -0.68017313765E+02 -0.11438120106E+03 -0.14158798338E+02  0.18312571976E+03  0.12500057415E+03 0.  0.
         25    2    1    2    0    0  0.68017313765E+02  0.11438120106E+03 -0.14021253023E+03  0.23020744611E+03  0.12500600178E+03 0.  0.
          5    1    3    3  501    0 -0.40379956109E+02  0.19129490696E+02  0.56146581534E+01  0.45277948891E+02  0.47000000000E+01 0.  1.
         -5    1    3    3    0  501 -0.27637357656E+02 -0.13351069176E+03 -0.19773456491E+02  0.13784777087E+03  0.47000000000E+01 0.  1.
          5    1    4    4  502    0  0.83771642477E+02  0.22614006366E+02 -0.48905321739E+02  0.99714100616E+02  0.47000000000E+01 0. -1.
         -5    1    4    4    0  502 -0.15754328712E+02  0.91767194693E+02 -0.91307208493E+02  0.13049334549E+03  0.47000000000E+01 0. -1.
<mgrwt>
<rscale>  0 0.38342379E+03</rscale>
<asrwt>0</asrwt>
<pdfrwt beam="1">  1       21 0.19920141E-01 0.38342379E+03</pdfrwt>
<pdfrwt beam="2">  1       21 0.43669576E-01 0.38342379E+03</pdfrwt>
<totfact> 0.11097626E+05</totfact>
</mgrwt>
</event>
<event>
 8    1  0.9974463E-006  0.2606653E+03  0.7546771E-02  0.1106744E+00
         21   -1    0    0  504  503  0.00000000000E+00  0.00000000000E+00  0.21723196907E+02  0.21723196907E+02  0.00000000000E+00 0. -1.
         21   -1    0    0  503  504 -0.00000000000E+00 -0.00000000000E+00 -0.78195697118E+03  0.78195697118E+03  0.00000000000E+00 0. -1.
         25    2    1    2    0    0 -0.85501662606E+01  0.18064103459E+02 -0.47557188586E+03  0.49214105911E+03  0.12503913894E+03 0.  0.
         25    2    1    2    0    0  0.85501662606E+01 -0.18064103459E+02 -0.28466188842E+03  0.31153910898E+03  0.12499923412E+03 0.  0.
          5    1    3    3  501    0 -0.35099349007E+02  0.41137897691E+02 -0.91175756099E+02  0.10611031725E+03  0.47000000000E+01 0. -1.
         -5    1    3    3    0  501  0.26549182747E+02 -0.23073794233E+02 -0.38439612976E+03  0.38603074185E+03  0.47000000000E+01 0. -1.
          5    1    4    4  502    0  0.16899260993E+02 -0.39315661393E+02 -0.28499194839E+03  0.28822527109E+03  0.47000000000E+01 0. -1.
         -5    1    4    4    0  502 -0.83490947321E+01  0.21251557934E+02  0.33005996682E+00  0.23313837887E+02  0.47000000000E+01 0. -1.
<mgrwt>
<rscale>  0 0.26066534E+03</rscale>
<asrwt>0</asrwt>
<pdfrwt beam="1">  1       21 0.33420297E-02 0.26066534E+03</pdfrwt>
<pdfrwt beam="2">  1       21 0.12030110E+00 0.26066534E+03</pdfrwt>
<totfact> 0.27182316E+05</totfact>
</mgrwt>
</event>
<event>
 8    1  0.9974463E-006  0.3582679E+03  0.7546771E-02  0.1059272E+00
         21   -1    0    0  504  503  0.00000000000E+00  0.00000000000E+00  0.56964185944E+03  0.56964185944E+03  0.00000000000E+00 0.  1.
         21   -1    0    0  503  504 -0.00000000000E+00 -0.00000000000E+00 -0.56331835053E+02  0.56331835053E+02  0.00000000000E+00 0.  1.
         25    2    1    2    0    0 -0.10754024954E+03  0.48280555637E+02  0.34526437100E+03  0.38564154791E+03  0.12496399589E+03 0.  0.
         25    2    1    2    0    0  0.10754024954E+03 -0.48280555637E+02  0.16804565339E+03  0.24033214658E+03  0.12499712691E+03 0.  0.
          5    1    3    3  501    0 -0.10204765555E+03 -0.16166156529E+02  0.17280381495E+03  0.20139095581E+03  0.47000000000E+01 0.  1.
         -5    1    3    3    0  501 -0.54925939954E+01  0.64446712166E+02  0.17246055605E+03  0.18425059210E+03  0.47000000000E+01 0.  1.
          5    1    4    4  502    0  0.77610149865E+02 -0.76108037288E+02  0.58965844316E+02  0.12375309894E+03  0.47000000000E+01 0.  1.
         -5    1    4    4    0  502  0.29930099676E+02  0.27827481651E+02  0.10907980907E+03  0.11657904764E+03  0.47000000000E+01 0.  1.
<mgrwt>
<rscale>  0 0.35826790E+03</rscale>
<asrwt>0</asrwt>
<pdfrwt beam="1">  1       21 0.87637205E-01 0.35826790E+03</pdfrwt>
<pdfrwt beam="2">  1       21 0.86664366E-02 0.35826790E+03</pdfrwt>
<totfact> 0.11070569E+05</totfact>
</mgrwt>
</event>
<event>
 8    1  0.9974463E-006  0.3649871E+03  0.7546771E-02  0.1056626E+00
         21   -1    0    0  504  503  0.00000000000E+00  0.00000000000E+00  0.25577612524E+03  0.25577612524E+03  0.00000000000E+00 0. -1.
         21   -1    0    0  503  504 -0.00000000000E+00 -0.00000000000E+00 -0.13020719727E+03  0.13020719727E+03  0.00000000000E+00 0. -1.
         25    2    1    2    0    0 -0.11825327139E+03  0.38772338276E+02  0.11228997803E+03  0.20909502151E+03  0.12499823377E+03 0.  0.
         25    2    1    2    0    0  0.11825327139E+03 -0.38772338276E+02  0.13278949942E+02  0.17688830100E+03  0.12500404037E+03 0.  0.
          5    1    3    3  501    0 -0.84836904139E+02  0.11218894919E+02 -0.30942446291E+01  0.85760295340E+02  0.47000000000E+01 0.  1.
         -5    1    3    3    0  501 -0.33416367247E+02  0.27553443356E+02  0.11538422266E+03  0.12333472617E+03  0.47000000000E+01 0.  1.
          5    1    4    4  502    0  0.12476621551E+03 -0.70276739830E+02  0.51086340364E+01  0.14336532648E+03  0.47000000000E+01 0. -1.
         -5    1    4    4    0  502 -0.65129441277E+01  0.31504401555E+02  0.81703159056E+01  0.33522974518E+02  0.47000000000E+01 0. -1.
<mgrwt>
<rscale>  0 0.36498708E+03</rscale>
<asrwt>0</asrwt>
<pdfrwt beam="1">  1       21 0.39350173E-01 0.36498708E+03</pdfrwt>
<pdfrwt beam="2">  1       21 0.20031877E-01 0.36498708E+03</pdfrwt>
<totfact> 0.13664493E+05</totfact>
</mgrwt>
</event>
<event>
 8    1  0.9974463E-006  0.3401977E+03  0.7546771E-02  0.1066712E+00
         21   -1    0    0  504  503  0.00000000000E+00  0.00000000000E+00  0.27360849672E+03  0.27360849672E+03  0.00000000000E+00 0. -1.
         21   -1    0    0  503  504 -0.00000000000E+00 -0.00000000000E+00 -0.10574821837E+03  0.10574821837E+03  0.00000000000E+00 0. -1.
         25    2    1    2    0    0  0.37315132386E+02  0.61098883556E+02 -0.16939606697E+02  0.14504819039E+03  0.12500613818E+03 0.  0.
         25    2    1    2    0    0 -0.37315132386E+02 -0.61098883556E+02  0.18479988505E+03  0.23430852470E+03  0.12499597817E+03 0.  0.
          5    1    3    3  501    0  0.80186132915E+02  0.16918337363E+02 -0.56206455396E+01  0.82278355035E+02  0.47000000000E+01 0. -1.
         -5    1    3    3    0  501 -0.42871000528E+02  0.44180546193E+02 -0.11318961158E+02  0.62769835350E+02  0.47000000000E+01 0. -1.
          5    1    4    4  502    0  0.57668364222E+01 -0.23059876424E+02 -0.13539704052E+02  0.27756582802E+02  0.47000000000E+01 0.  1.
         -5    1    4    4    0  502 -0.43081968809E+02 -0.38039007131E+02  0.19833958910E+03  0.20655194190E+03  0.47000000000E+01 0.  1.
<mgrwt>
<rscale>  0 0.34019765E+03</rscale>
<asrwt>0</asrwt>
<pdfrwt beam="1">  1       21 0.42093615E-01 0.34019765E+03</pdfrwt>
<pdfrwt beam="2">  1       21 0.16268957E-01 0.34019765E+03</pdfrwt>
<totfact> 0.17666819E+05</totfact>
</mgrwt>
</event>
<event>
 8    1  0.9974463E-006  0.2657757E+03  0.7546771E-02  0.1103722E+00
         21   -1    0    0  504  503  0.00000000000E+00  0.00000000000E+00  0.76480184656E+03  0.76480184656E+03  0.00000000000E+00 0. -1.
         21   -1    0    0  503  504 -0.00000000000E+00 -0.00000000000E+00 -0.23089880857E+02  0.23089880857E+02  0.00000000000E+00 0. -1.
         25    2    1    2    0    0 -0.17565272161E+02 -0.21774522695E+02  0.47559618019E+03  0.49254402189E+03  0.12500087304E+03 0.  0.
         25    2    1    2    0    0  0.17565272161E+02  0.21774522695E+02  0.26611578552E+03  0.29534770553E+03  0.12501994736E+03 0.  0.
          5    1    3    3  501    0  0.29104647716E+02 -0.23801603535E+02  0.41070655227E+03  0.41245067454E+03  0.47000000000E+01 0. -1.
         -5    1    3    3    0  501 -0.46669919877E+02  0.20270808397E+01  0.64889627915E+02  0.80093347346E+02  0.47000000000E+01 0. -1.
          5    1    4    4  502    0  0.38442199512E+02  0.62909838698E+02  0.20963834496E+03  0.22227410147E+03  0.47000000000E+01 0.  1.
         -5    1    4    4    0  502 -0.20876927351E+02 -0.41135316003E+02  0.56477440559E+02  0.73073604060E+02  0.47000000000E+01 0.  1.
<mgrwt>
<rscale>  0 0.26577572E+03</rscale>
<asrwt>0</asrwt>
<pdfrwt beam="1">  1       21 0.11766180E+00 0.26577572E+03</pdfrwt>
<pdfrwt beam="2">  1       21 0.35522900E-02 0.26577572E+03</pdfrwt>
<totfact> 0.25899987E+05</totfact>
</mgrwt>
</event>
<event>
 8    1  0.9974463E-006  0.3315475E+03  0.7546771E-02  0.1070454E+00
         21   -1    0    0  504  503  0.00000000000E+00  0.00000000000E+00  0.23568811200E+03  0.23568811200E+03  0.00000000000E+00 0. -1.
         21   -1    0    0  503  504 -0.00000000000E+00 -0.00000000000E+00 -0.11659872234E+03  0.11659872234E+03  0.00000000000E+00 0. -1.
         25    2    1    2    0    0 -0.96284883899E+02  0.16124411172E+00  0.11357598646E+03  0.19440081173E+03  0.12498546330E+03 0.  0.
         25    2    1    2    0    0  0.96284883899E+02 -0.16124411172E+00  0.55134032097E+01  0.15788602261E+03  0.12500717440E+03 0.  0.
          5    1    3    3  501    0 -0.87589451493E+02  0.53044858442E+02  0.86729786280E+02  0.13427514605E+03  0.47000000000E+01 0. -1.
         -5    1    3    3    0  501 -0.86954324057E+01 -0.52883614330E+02  0.26846200177E+02  0.60125665678E+02  0.47000000000E+01 0. -1.
          5    1    4    4  502    0  0.11473672503E+02  0.21321662022E+02  0.52834254796E+02  0.58307863208E+02  0.47000000000E+01 0.  1.
         -5    1    4    4    0  502  0.84811211396E+02 -0.21482906134E+02 -0.47320851586E+02  0.99578159399E+02  0.47000000000E+01 0.  1.
<mgrwt>
<rscale>  0 0.33154748E+03</rscale>
<asrwt>0</asrwt>
<pdfrwt beam="1">  1       21 0.36259710E-01 0.33154748E+03</pdfrwt>
<pdfrwt beam="2">  1       21 0.17938265E-01 0.33154748E+03</pdfrwt>
<totfact> 0.20001185E+05</totfact>
</mgrwt>
</event>
<event>
 8    1  0.9974463E-006  0.2860492E+03  0.7546771E-02  0.1092430E+00
         21   -1    0    0  504  503  0.00000000000E+00  0.00000000000E+00  0.15037514947E+03  0.15037514947E+03  0.00000000000E+00 0. -1.
         21   -1    0    0  503  504 -0.00000000000E+00 -0.00000000000E+00 -0.13603337746E+03  0.13603337746E+03  0.00000000000E+00 0. -1.
         25    2    1    2    0    0  0.36463395618E+02  0.16435382863E+02 -0.49738271095E+02  0.14035224660E+03  0.12500062594E+03 0.  0.
         25    2    1    2    0    0 -0.36463395618E+02 -0.16435382863E+02  0.64080043100E+02  0.14605628033E+03  0.12500593614E+03 0.  0.
          5    1    3    3  501    0  0.23351610035E+01  0.37373602989E+02 -0.80984575599E+02  0.89346688032E+02  0.47000000000E+01 0.  1.
         -5    1    3    3    0  501  0.34128234615E+02 -0.20938220126E+02  0.31246304504E+02  0.51005558571E+02  0.47000000000E+01 0.  1.
          5    1    4    4  502    0  0.66462757487E+01  0.29701080808E+02 -0.22966417347E+02  0.38417099165E+02  0.47000000000E+01 0.  1.
         -5    1    4    4    0  502 -0.43109671367E+02 -0.46136463672E+02  0.87046460446E+02  0.10763918116E+03  0.47000000000E+01 0.  1.
<mgrwt>
<rscale>  0 0.28604922E+03</rscale>
<asrwt>0</asrwt>
<pdfrwt beam="1">  1       21 0.23134638E-01 0.28604922E+03</pdfrwt>
<pdfrwt beam="2">  1       21 0.20928212E-01 0.28604922E+03</pdfrwt>
<totfact> 0.36479038E+05</totfact>
</mgrwt>
</event>
<event>
 8    1  0.9974463E-006  0.3168310E+03  0.7546771E-02  0.1077117E+00
         21   -1    0    0  504  503  0.00000000000E+00  0.00000000000E+00  0.30367019929E+03  0.30367019929E+03  0.00000000000E+00 0. -1.
         21   -1    0    0  503  504 -0.00000000000E+00 -0.00000000000E+00 -0.82640554999E+02  0.82640554999E+02  0.00000000000E+00 0. -1.
         25    2    1    2    0    0 -0.39896375803E+02 -0.87541962499E+02  0.92625914742E+02  0.18292098902E+03  0.12500084856E+03 0.  0.
         25    2    1    2    0    0  0.39896375803E+02  0.87541962499E+02  0.12840372955E+03  0.20338976527E+03  0.12499825141E+03 0.  0.
          5    1    3    3  501    0 -0.47686944612E+01  0.32028272342E+02  0.14752477634E+02  0.35892565699E+02  0.47000000000E+01 0.  1.
         -5    1    3    3    0  501 -0.35127681341E+02 -0.11957023484E+03  0.77873437108E+02  0.14702842332E+03  0.47000000000E+01 0.  1.
          5    1    4    4  502    0  0.65858400182E+01  0.82941946865E+02  0.14569400459E+02  0.84599629245E+02  0.47000000000E+01 0. -1.
         -5    1    4    4    0  502  0.33310535784E+02  0.46000156335E+01  0.11383432909E+03  0.11879013603E+03  0.47000000000E+01 0. -1.
<mgrwt>
<rscale>  0 0.31683102E+03</rscale>
<asrwt>0</asrwt>
<pdfrwt beam="1">  1       21 0.46718492E-01 0.31683102E+03</pdfrwt>
<pdfrwt beam="2">  1       21 0.12713932E-01 0.31683102E+03</pdfrwt>
<totfact> 0.22488492E+05</totfact>
</mgrwt>
</event>
<event>
 8    1  0.9974463E-006  0.3474618E+03  0.7546771E-02  0.1063662E+00
         21   -1    0    0  504  503  0.00000000000E+00  0.00000000000E+00  0.17801626369E+03  0.17801626369E+03  0.00000000000E+00 0. -1.
         21   -1    0    0  503  504 -0.00000000000E+00 -0.00000000000E+00 -0.16954868030E+03  0.16954868030E+03  0.00000000000E+00 0. -1.
         25    2    1    2    0    0 -0.58121015449E+02 -0.10486332263E+03  0.17898242201E+02  0.17411691949E+03  0.12498794225E+03 0.  0.
         25    2    1    2    0    0  0.58121015449E+02  0.10486332263E+03 -0.94306588151E+01  0.17344802450E+03  0.12498364296E+03 0.  0.
          5    1    3    3  501    0 -0.25076458523E+02 -0.38411855577E+02  0.69640741347E+02  0.83523782698E+02  0.47000000000E+01 0.  1.
         -5    1    3    3    0  501 -0.33044556926E+02 -0.66451467052E+02 -0.51742499146E+02  0.90593136791E+02  0.47000000000E+01 0.  1.
          5    1    4    4  502    0 -0.49627693797E+01 -0.10886869584E+02  0.32569693092E+02  0.35014681454E+02  0.47000000000E+01 0.  1.
         -5    1    4    4    0  502  0.63083784828E+02  0.11575019221E+03 -0.42000351907E+02  0.13843334304E+03  0.47000000000E+01 0.  1.
<mgrwt>
<rscale>  0 0.34746178E+03</rscale>
<asrwt>0</asrwt>
<pdfrwt beam="1">  1       21 0.27387118E-01 0.34746178E+03</pdfrwt>
<pdfrwt beam="2">  1       21 0.26084412E-01 0.34746178E+03</pdfrwt>
<totfact> 0.17050087E+05</totfact>
</mgrwt>
</event>
<event>
 8    1  0.9974463E-006  0.2777746E+03  0.7546771E-02  0.1096911E+00
         21   -1    0    0  504  503  0.00000000000E+00  0.00000000000E+00  0.29606622343E+03  0.29606622343E+03  0.00000000000E+00 0.  1.
         21   -1    0    0  503  504 -0.00000000000E+00 -0.00000000000E+00 -0.65153280978E+02  0.65153280978E+02  0.00000000000E+00 0.  1.
         25    2    1    2    0    0 -0.54562170329E+02  0.26131548291E+02  0.11835325763E+03  0.18246055958E+03  0.12499789584E+03 0.  0.
         25    2    1    2    0    0  0.54562170329E+02 -0.26131548291E+02  0.11255968482E+03  0.17875894482E+03  0.12500075784E+03 0.  0.
          5    1    3    3  501    0  0.49670438519E+01  0.64083387251E+02  0.35755438906E+02  0.73701380296E+02  0.47000000000E+01 0. -1.
         -5    1    3    3    0  501 -0.59529214181E+02 -0.37951838960E+02  0.82597818725E+02  0.10875917929E+03  0.47000000000E+01 0. -1.
          5    1    4    4  502    0  0.12484765434E+02 -0.38447955870E+02  0.12620293749E+03  0.13260236087E+03  0.47000000000E+01 0. -1.
         -5    1    4    4    0  502  0.42077404895E+02  0.12316407579E+02 -0.13643252669E+02  0.46156583948E+02  0.47000000000E+01 0. -1.
<mgrwt>
<rscale>  0 0.27777463E+03</rscale>
<asrwt>0</asrwt>
<pdfrwt beam="1">  1       21 0.45548649E-01 0.27777463E+03</pdfrwt>
<pdfrwt beam="2">  1       21 0.10023582E-01 0.27777463E+03</pdfrwt>
<totfact> 0.36647368E+05</totfact>
</mgrwt>
</event>
<event>
 8    1  0.9974463E-006  0.4270399E+03  0.7546771E-02  0.1034799E+00
         21   -1    0    0  504  503  0.00000000000E+00  0.00000000000E+00  0.56688448512E+03  0.56688448512E+03  0.00000000000E+00 0.  1.
         21   -1    0    0  503  504 -0.00000000000E+00 -0.00000000000E+00 -0.80423366058E+02  0.80423366058E+02  0.00000000000E+00 0.  1.
         25    2    1    2    0    0  0.85945217518E+02 -0.14886210313E+03  0.21216662886E+03  0.30030914369E+03  0.12499758885E+03 0.  0.
         25    2    1    2    0    0 -0.85945217518E+02  0.14886210313E+03  0.27429449021E+03  0.34699870749E+03  0.12499651787E+03 0.  0.
          5    1    3    3  501    0  0.11080168310E+03 -0.11523745989E+03  0.20082721561E+03  0.25673010277E+03  0.47000000000E+01 0.  1.
         -5    1    3    3    0  501 -0.24856465578E+02 -0.33624643241E+02  0.11339413242E+02  0.43579040911E+02  0.47000000000E+01 0.  1.
          5    1    4    4  502    0 -0.66678195732E+02  0.54090835906E+01  0.74465887011E+02  0.10021226621E+03  0.47000000000E+01 0.  1.
         -5    1    4    4    0  502 -0.19267021787E+02  0.14345301954E+03  0.19982860320E+03  0.24678644128E+03  0.47000000000E+01 0.  1.
<mgrwt>
<rscale>  0 0.42703985E+03</rscale>
<asrwt>0</asrwt>
<pdfrwt beam="1">  1       21 0.87212995E-01 0.42703985E+03</pdfrwt>
<pdfrwt beam="2">  1       21 0.12372826E-01 0.42703985E+03</pdfrwt>
<totfact> 0.58081562E+04</totfact>
</mgrwt>
</event>
<event>
 8    1  0.9974463E-006  0.3284703E+03  0.7546771E-02  0.1071816E+00
         21   -1    0    0  504  503  0.00000000000E+00  0.00000000000E+00  0.21269298390E+03  0.21269298390E+03  0.00000000000E+00 0.  1.
         21   -1    0    0  503  504 -0.00000000000E+00 -0.00000000000E+00 -0.12681745930E+03  0.12681745930E+03  0.00000000000E+00 0.  1.
         25    2    1    2    0    0  0.45267628605E+02 -0.21361039705E+02 -0.54280723843E+02  0.14516032433E+03  0.12497868043E+03 0.  0.
         25    2    1    2    0    0 -0.45267628605E+02  0.21361039705E+02  0.14015624844E+03  0.19435011886E+03  0.12499096971E+03 0.  0.
          5    1    3    3  501    0  0.66490066829E+01 -0.70942847324E+02 -0.24896989446E+02  0.75624380723E+02  0.47000000000E+01 0. -1.
         -5    1    3    3    0  501  0.38618621923E+02  0.49581807619E+02 -0.29383734396E+02  0.69535943605E+02  0.47000000000E+01 0. -1.
          5    1    4    4  502    0 -0.61170592213E+02 -0.19683435833E+02  0.13524775491E+03  0.14981096157E+03  0.47000000000E+01 0.  1.
         -5    1    4    4    0  502  0.15902963608E+02  0.41044475538E+02  0.49084935306E+01  0.44539157294E+02  0.47000000000E+01 0.  1.
<mgrwt>
<rscale>  0 0.32847030E+03</rscale>
<asrwt>0</asrwt>
<pdfrwt beam="1">  1       21 0.32721997E-01 0.32847030E+03</pdfrwt>
<pdfrwt beam="2">  1       21 0.19510378E-01 0.32847030E+03</pdfrwt>
<totfact> 0.21000306E+05</totfact>
</mgrwt>
</event>
<event>
 8    1  0.9974463E-006  0.2621121E+03  0.7546771E-02  0.1105881E+00
         21   -1    0    0  504  503  0.00000000000E+00  0.00000000000E+00  0.23266866310E+03  0.23266866310E+03  0.00000000000E+00 0.  1.
         21   -1    0    0  503  504 -0.00000000000E+00 -0.00000000000E+00 -0.73820363605E+02  0.73820363605E+02  0.00000000000E+00 0.  1.
         25    2    1    2    0    0  0.55970636562E+00  0.20424912911E+02  0.11870213386E+03  0.17363224658E+03  0.12506186521E+03 0.  0.
         25    2    1    2    0    0 -0.55970636562E+00 -0.20424912911E+02  0.40146165630E+02  0.13285678013E+03  0.12498687560E+03 0.  0.
          5    1    3    3  501    0 -0.47364765870E+02 -0.27670843766E+02  0.32983165232E+02  0.64180026716E+02  0.47000000000E+01 0. -1.
         -5    1    3    3    0  501  0.47924472235E+02  0.48095756677E+02  0.85718968631E+02  0.10945221986E+03  0.47000000000E+01 0. -1.
          5    1    4    4  502    0 -0.18744234498E+02  0.79757480523E+01  0.78694436249E+02  0.81423971780E+02  0.47000000000E+01 0. -1.
         -5    1    4    4    0  502  0.18184528132E+02 -0.28400660963E+02 -0.38548270619E+02  0.51432808345E+02  0.47000000000E+01 0. -1.
<mgrwt>
<rscale>  0 0.26211208E+03</rscale>
<asrwt>0</asrwt>
<pdfrwt beam="1">  1       21 0.35795179E-01 0.26211208E+03</pdfrwt>
<pdfrwt beam="2">  1       21 0.11356979E-01 0.26211208E+03</pdfrwt>
<totfact> 0.48058271E+05</totfact>
</mgrwt>
</event>
<event>
 8    1  0.9974463E-006  0.2731350E+03  0.7546771E-02  0.1099499E+00
         21   -1    0    0  504  503  0.00000000000E+00  0.00000000000E+00  0.12735283040E+03  0.12735283040E+03  0.00000000000E+00 0.  1.
         21   -1    0    0  503  504 -0.00000000000E+00 -0.00000000000E+00 -0.14644885314E+03  0.14644885314E+03  0.00000000000E+00 0.  1.
         25    2    1    2    0    0 -0.30781063655E+02 -0.34697232450E+02  0.20099334510E+02  0.13483391951E+03  0.12499932313E+03 0.  0.
         25    2    1    2    0    0  0.30781063655E+02  0.34697232450E+02 -0.39195357242E+02  0.13896776403E+03  0.12499756634E+03 0.  0.
          5    1    3    3  501    0 -0.26199306594E+01  0.29043817379E+02  0.50624356716E+02  0.58611627324E+02  0.47000000000E+01 0. -1.
         -5    1    3    3    0  501 -0.28161132995E+02 -0.63741049830E+02 -0.30525022206E+02  0.76222292183E+02  0.47000000000E+01 0. -1.
          5    1    4    4  502    0 -0.22789415751E+02  0.47135929541E+02 -0.60190677365E+02  0.79913459227E+02  0.47000000000E+01 0. -1.
         -5    1    4    4    0  502  0.53570479406E+02 -0.12438697091E+02  0.20995320122E+02  0.59054304806E+02  0.47000000000E+01 0. -1.
<mgrwt>
<rscale>  0 0.27313496E+03</rscale>
<asrwt>0</asrwt>
<pdfrwt beam="1">  1       21 0.19592743E-01 0.27313496E+03</pdfrwt>
<pdfrwt beam="2">  1       21 0.22530593E-01 0.27313496E+03</pdfrwt>
<totfact> 0.43551556E+05</totfact>
</mgrwt>
</event>
<event>
 8    1  0.9974463E-006  0.2954276E+03  0.7546771E-02  0.1087549E+00
         21   -1    0    0  504  503  0.00000000000E+00  0.00000000000E+00  0.69101489735E+03  0.69101489735E+03  0.00000000000E+00 0.  1.
         21   -1    0    0  503  504 -0.00000000000E+00 -0.00000000000E+00 -0.31575834231E+02  0.31575834231E+02  0.00000000000E+00 0.  1.
         25    2    1    2    0    0  0.68919233067E+02  0.37654241924E+02  0.31692483013E+03  0.34961896696E+03  0.12499748590E+03 0.  0.
         25    2    1    2    0    0 -0.68919233067E+02 -0.37654241924E+02  0.34251423299E+03  0.37297176462E+03  0.12499693911E+03 0.  0.
          5    1    3    3  501    0  0.52828831755E+02 -0.35105707410E+02  0.86281029139E+02  0.10719049467E+03  0.47000000000E+01 0.  1.
         -5    1    3    3    0  501  0.16090401312E+02  0.72759949334E+02  0.23064380099E+03  0.24242847229E+03  0.47000000000E+01 0.  1.
          5    1    4    4  502    0 -0.12255263202E+01  0.36590224307E+02  0.41215039529E+02  0.55327352304E+02  0.47000000000E+01 0.  1.
         -5    1    4    4    0  502 -0.67693706747E+02 -0.74244466231E+02  0.30129919346E+03  0.31764441232E+03  0.47000000000E+01 0.  1.
<mgrwt>
<rscale>  0 0.29542763E+03</rscale>
<asrwt>0</asrwt>
<pdfrwt beam="1">  1       21 0.10630997E+00 0.29542763E+03</pdfrwt>
<pdfrwt beam="2">  1       21 0.48578212E-02 0.29542763E+03</pdfrwt>
<totfact> 0.19404025E+05</totfact>
</mgrwt>
</event>
<event>
 8    1  0.9974463E-006  0.3081474E+03  0.7546771E-02  0.1081237E+00
         21   -1    0    0  504  503  0.00000000000E+00  0.00000000000E+00  0.31883397699E+03  0.31883397699E+03  0.00000000000E+00 0. -1.
         21   -1    0    0  503  504 -0.00000000000E+00 -0.00000000000E+00 -0.74454770112E+02  0.74454770112E+02  0.00000000000E+00 0. -1.
         25    2    1    2    0    0  0.25548538378E+02  0.52328789055E+02  0.20990058082E+03  0.25114526635E+03  0.12499864402E+03 0.  0.
         25    2    1    2    0    0 -0.25548538378E+02 -0.52328789055E+02  0.34478626061E+02  0.14214348075E+03  0.12499985395E+03 0.  0.
          5    1    3    3  501    0  0.15573234972E+01  0.16514046031E+02  0.20696610134E+03  0.20768292197E+03  0.47000000000E+01 0. -1.
         -5    1    3    3    0  501  0.23991214881E+02  0.35814743025E+02  0.29344794755E+01  0.43462344382E+02  0.47000000000E+01 0. -1.
          5    1    4    4  502    0 -0.75058807547E+02 -0.26497711622E+02  0.32386084470E+02  0.86063359096E+02  0.47000000000E+01 0.  1.
         -5    1    4    4    0  502  0.49510269169E+02 -0.25831077434E+02  0.20925415913E+01  0.56080121655E+02  0.47000000000E+01 0.  1.
<mgrwt>
<rscale>  0 0.30814744E+03</rscale>
<asrwt>0</asrwt>
<pdfrwt beam="1">  1       21 0.49051380E-01 0.30814744E+03</pdfrwt>
<pdfrwt beam="2">  1       21 0.11454580E-01 0.30814744E+03</pdfrwt>
<totfact> 0.24566047E+05</totfact>
</mgrwt>
</event>
<event>
 8    1  0.9974463E-006  0.2694912E+03  0.7546771E-02  0.1101571E+00
         21   -1    0    0  504  503  0.00000000000E+00  0.00000000000E+00  0.12127693158E+04  0.12127693158E+04  0.00000000000E+00 0.  1.
         21   -1    0    0  503  504 -0.00000000000E+00 -0.00000000000E+00 -0.14971009908E+02  0.14971009908E+02  0.00000000000E+00 0.  1.
         25    2    1    2    0    0  0.50308810836E+02 -0.33724288640E+00  0.60097018283E+03  0.61588980450E+03  0.12499600179E+03 0.  0.
         25    2    1    2    0    0 -0.50308810836E+02  0.33724288640E+00  0.59682812305E+03  0.61185052119E+03  0.12500464646E+03 0.  0.
          5    1    3    3  501    0  0.33361521747E+02 -0.24434304319E+01  0.59671878349E+03  0.59767412363E+03  0.47000000000E+01 0.  1.
         -5    1    3    3    0  501  0.16947289090E+02  0.21061875455E+01  0.42513993385E+01  0.18215680877E+02  0.47000000000E+01 0.  1.
          5    1    4    4  502    0 -0.12876325910E+01 -0.40363667254E+00 -0.55874414509E+01  0.74249863448E+01  0.47000000000E+01 0.  1.
         -5    1    4    4    0  502 -0.49021178245E+02  0.74087955894E+00  0.60241556450E+03  0.60442553484E+03  0.47000000000E+01 0.  1.
<mgrwt>
<rscale>  0 0.26949124E+03</rscale>
<asrwt>0</asrwt>
<pdfrwt beam="1">  1       21 0.18657982E+00 0.26949124E+03</pdfrwt>
<pdfrwt beam="2">  1       21 0.23032333E-02 0.26949124E+03</pdfrwt>
<totfact> 0.15521427E+05</totfact>
</mgrwt>
</event>
<event>
 8    1  0.9974463E-006  0.3503586E+03  0.7546771E-02  0.1062468E+00
         21   -1    0    0  504  503  0.00000000000E+00  0.00000000000E+00  0.10025574641E+03  0.10025574641E+03  0.00000000000E+00 0. -1.
         21   -1    0    0  503  504 -0.00000000000E+00 -0.00000000000E+00 -0.30609496757E+03  0.30609496757E+03  0.00000000000E+00 0. -1.
         25    2    1    2    0    0 -0.60454678234E+02 -0.45407168911E+02 -0.21505049939E+03  0.25997534534E+03  0.12499553507E+03 0.  0.
         25    2    1    2    0    0  0.60454678234E+02  0.45407168911E+02  0.92112782326E+01  0.14637536864E+03  0.12499728712E+03 0.  0.
          5    1    3    3  501    0 -0.48695535181E+02 -0.84539358985E+01 -0.92510738177E+01  0.50501450924E+02  0.47000000000E+01 0.  1.
         -5    1    3    3    0  501 -0.11759143053E+02 -0.36953233013E+02 -0.20579942558E+03  0.20947389442E+03  0.47000000000E+01 0.  1.
          5    1    4    4  502    0 -0.12108272508E+02  0.50468014131E+02  0.41534007548E+02  0.66639286434E+02  0.47000000000E+01 0.  1.
         -5    1    4    4    0  502  0.72562950742E+02 -0.50608452200E+01 -0.32322729315E+02  0.79736082203E+02  0.47000000000E+01 0.  1.
<mgrwt>
<rscale>  0 0.35035856E+03</rscale>
<asrwt>0</asrwt>
<pdfrwt beam="1">  1       21 0.15423961E-01 0.35035856E+03</pdfrwt>
<pdfrwt beam="2">  1       21 0.47091534E-01 0.35035856E+03</pdfrwt>
<totfact> 0.15411238E+05</totfact>
</mgrwt>
</event>
<event>
 8    1  0.9974463E-006  0.2739477E+03  0.7546771E-02  0.1099041E+00
         21   -1    0    0  504  503  0.00000000000E+00  0.00000000000E+00  0.20562377014E+03  0.20562377014E+03  0.00000000000E+00 0. -1.
         21   -1    0    0  503  504 -0.00000000000E+00 -0.00000000000E+00 -0.91243518709E+02  0.91243518709E+02  0.00000000000E+00 0. -1.
         25    2    1    2    0    0 -0.31352876290E+02 -0.41621321025E+02  0.34932102168E+02  0.13985807064E+03  0.12499876377E+03 0.  0.
         25    2    1    2    0    0  0.31352876290E+02  0.41621321025E+02  0.79448149259E+02  0.15700921821E+03  0.12499819585E+03 0.  0.
          5    1    3    3  501    0 -0.19574927645E+02 -0.84047854538E+02  0.40102611305E+02  0.95276067710E+02  0.47000000000E+01 0.  1.
         -5    1    3    3    0  501 -0.11777948645E+02  0.42426533514E+02 -0.51705091371E+01  0.44582002927E+02  0.47000000000E+01 0.  1.
          5    1    4    4  502    0 -0.45100644164E+02  0.37157923456E+02  0.36957506511E+02  0.69301707534E+02  0.47000000000E+01 0. -1.
         -5    1    4    4    0  502  0.76453520454E+02  0.44633975684E+01  0.42490642748E+02  0.87707510675E+02  0.47000000000E+01 0. -1.
<mgrwt>
<rscale>  0 0.27394771E+03</rscale>
<asrwt>0</asrwt>
<pdfrwt beam="1">  1       21 0.31634426E-01 0.27394771E+03</pdfrwt>
<pdfrwt beam="2">  1       21 0.14037464E-01 0.27394771E+03</pdfrwt>
<totfact> 0.41797597E+05</totfact>
</mgrwt>
</event>
<event>
 8    1  0.9974463E-006  0.3244952E+03  0.7546771E-02  0.1073599E+00
         21   -1    0    0  504  503  0.00000000000E+00  0.00000000000E+00  0.41080119035E+02  0.41080119035E+02  0.00000000000E+00 0. -1.
         21   -1    0    0  503  504 -0.00000000000E+00 -0.00000000000E+00 -0.64080367880E+03  0.64080367880E+03  0.00000000000E+00 0. -1.
         25    2    1    2    0    0 -0.48536746709E+02 -0.90580988082E+02 -0.27521245199E+03  0.31926309010E+03  0.12500518305E+03 0.  0.
         25    2    1    2    0    0  0.48536746709E+02  0.90580988082E+02 -0.32451110778E+03  0.36262070773E+03  0.12500234967E+03 0.  0.
          5    1    3    3  501    0 -0.81798141409E+02 -0.62830085158E+02 -0.12125659652E+03  0.15926018881E+03  0.47000000000E+01 0. -1.
         -5    1    3    3    0  501  0.33261394700E+02 -0.27750902924E+02 -0.15395585547E+03  0.16000290130E+03  0.47000000000E+01 0. -1.
          5    1    4    4  502    0  0.14599124671E+02 -0.31494057201E+02 -0.70128146413E+02  0.78390413951E+02  0.47000000000E+01 0. -1.
         -5    1    4    4    0  502  0.33937622038E+02  0.12207504528E+03 -0.25438296137E+03  0.28423029378E+03  0.47000000000E+01 0. -1.
<mgrwt>
<rscale>  0 0.32449525E+03</rscale>
<asrwt>0</asrwt>
<pdfrwt beam="1">  1       21 0.63200182E-02 0.32449525E+03</pdfrwt>
<pdfrwt beam="2">  1       21 0.98585183E-01 0.32449525E+03</pdfrwt>
<totfact> 0.14697196E+05</totfact>
</mgrwt>
</event>
<event>
 8    1  0.9974463E-006  0.5901824E+03  0.7546771E-02  0.9925986E-01
         21   -1    0    0  504  503  0.00000000000E+00  0.00000000000E+00  0.61514329359E+02  0.61514329359E+02  0.00000000000E+00 0. -1.
         21   -1    0    0  503  504 -0.00000000000E+00 -0.00000000000E+00 -0.14155861081E+04  0.14155861081E+04  0.00000000000E+00 0. -1.
         25    2    1    2    0    0 -0.23537499724E+03 -0.12115171577E+02 -0.36138878192E+03  0.44919355462E+03  0.12499932444E+03 0.  0.
         25    2    1    2    0    0  0.23537499724E+03  0.12115171577E+02 -0.99268299677E+03  0.10279068828E+04  0.12499944359E+03 0.  0.
          5    1    3    3  501    0 -0.15122692426E+03 -0.64025620085E+02 -0.18913572443E+03  0.25052599646E+03  0.47000000000E+01 0. -1.
         -5    1    3    3    0  501 -0.84148072978E+02  0.51910448508E+02 -0.17225305749E+03  0.19866755816E+03  0.47000000000E+01 0. -1.
          5    1    4    4  502    0  0.87975742981E+02  0.54455677539E+02 -0.27153599750E+03  0.29061837538E+03  0.47000000000E+01 0. -1.
         -5    1    4    4    0  502  0.14739925425E+03 -0.42340505962E+02 -0.72114699927E+03  0.73728850741E+03  0.47000000000E+01 0. -1.
<mgrwt>
<rscale>  0 0.59018245E+03</rscale>
<asrwt>0</asrwt>
<pdfrwt beam="1">  1       21 0.94637433E-02 0.59018245E+03</pdfrwt>
<pdfrwt beam="2">  1       21 0.21778247E+00 0.59018245E+03</pdfrwt>
<totfact> 0.76488435E+03</totfact>
</mgrwt>
</event>
<event>
 8    1  0.9974463E-006  0.2695697E+03  0.7546771E-02  0.1101526E+00
         21   -1    0    0  504  503  0.00000000000E+00  0.00000000000E+00  0.10316274000E+04  0.10316274000E+04  0.00000000000E+00 0. -1.
         21   -1    0    0  503  504 -0.00000000000E+00 -0.00000000000E+00 -0.17609992471E+02  0.17609992471E+02  0.00000000000E+00 0. -1.
         25    2    1    2    0    0 -0.17472691281E+02 -0.45663809670E+02  0.45925885554E+03  0.47847217594E+03  0.12500579309E+03 0.  0.
         25    2    1    2    0    0  0.17472691281E+02  0.45663809670E+02  0.55475855202E+03  0.57076521656E+03  0.12500161175E+03 0.  0.
          5    1    3    3  501    0  0.31550660181E+02  0.97348759343E+01  0.31032553728E+03  0.31211254549E+03  0.47000000000E+01 0.  1.
         -5    1    3    3    0  501 -0.49023351462E+02 -0.55398685604E+02  0.14893331826E+03  0.16635963045E+03  0.47000000000E+01 0.  1.
          5    1    4    4  502    0  0.20733820881E+02  0.81406672570E+02  0.24811385741E+03  0.26199143861E+03  0.47000000000E+01 0.  1.
         -5    1    4    4    0  502 -0.32611296004E+01 -0.35742862900E+02  0.30664469461E+03  0.30877377795E+03  0.47000000000E+01 0.  1.
<mgrwt>
<rscale>  0 0.26956966E+03</rscale>
<asrwt>0</asrwt>
<pdfrwt beam="1">  1       21 0.15871186E+00 0.26956966E+03</pdfrwt>
<pdfrwt beam="2">  1       21 0.27092304E-02 0.26956966E+03</pdfrwt>
<totfact> 0.18696191E+05</totfact>
</mgrwt>
</event>
<event>
 8    1  0.9974463E-006  0.3088356E+03  0.7546771E-02  0.1080905E+00
         21   -1    0    0  504  503  0.00000000000E+00  0.00000000000E+00  0.60841719215E+03  0.60841719215E+03  0.00000000000E+00 0.  1.
         21   -1    0    0  503  504 -0.00000000000E+00 -0.00000000000E+00 -0.39191616298E+02  0.39191616298E+02  0.00000000000E+00 0.  1.
         25    2    1    2    0    0  0.54643030864E+02 -0.46210493934E+02  0.16789380496E+03  0.22121244386E+03  0.12500138001E+03 0.  0.
         25    2    1    2    0    0 -0.54643030864E+02  0.46210493934E+02  0.40133177089E+03  0.42639636459E+03  0.12500159531E+03 0.  0.
          5    1    3    3  501    0  0.51266632509E+02 -0.73509806440E+02  0.17101493567E+03  0.19313248684E+03  0.47000000000E+01 0.  1.
         -5    1    3    3    0  501  0.33763983551E+01  0.27299312506E+02 -0.31211307146E+01  0.28079957017E+02  0.47000000000E+01 0.  1.
          5    1    4    4  502    0  0.35790567257E+02  0.26429897557E+02  0.76737055447E+02  0.88826628148E+02  0.47000000000E+01 0.  1.
         -5    1    4    4    0  502 -0.90433598121E+02  0.19780596378E+02  0.32459471545E+03  0.33756973644E+03  0.47000000000E+01 0.  1.
<mgrwt>
<rscale>  0 0.30883558E+03</rscale>
<asrwt>0</asrwt>
<pdfrwt beam="1">  1       21 0.93602638E-01 0.30883558E+03</pdfrwt>
<pdfrwt beam="2">  1       21 0.60294799E-02 0.30883558E+03</pdfrwt>
<totfact> 0.18111342E+05</totfact>
</mgrwt>
</event>
<event>
 8    1  0.9974463E-006  0.2930386E+03  0.7546771E-02  0.1088773E+00
         21   -1    0    0  504  503  0.00000000000E+00  0.00000000000E+00  0.91934996461E+02  0.91934996461E+02  0.00000000000E+00 0. -1.
         21   -1    0    0  503  504 -0.00000000000E+00 -0.00000000000E+00 -0.23351185225E+03  0.23351185225E+03  0.00000000000E+00 0. -1.
         25    2    1    2    0    0 -0.34681268802E+01 -0.17064025088E+02  0.11870107029E+02  0.12676682037E+03  0.12500287376E+03 0.  0.
         25    2    1    2    0    0  0.34681268802E+01  0.17064025088E+02 -0.15344696282E+03  0.19868002834E+03  0.12499829762E+03 0.  0.
          5    1    3    3  501    0 -0.37577688622E+02  0.23484700835E+02 -0.34375829652E+02  0.56279672350E+02  0.47000000000E+01 0.  1.
         -5    1    3    3    0  501  0.34109561742E+02 -0.40548725923E+02  0.46245936681E+02  0.70487148018E+02  0.47000000000E+01 0.  1.
          5    1    4    4  502    0  0.34146342184E+02  0.61474761835E+02 -0.71137683110E+02  0.10013879860E+03  0.47000000000E+01 0.  1.
         -5    1    4    4    0  502 -0.30678215304E+02 -0.44410736747E+02 -0.82309279707E+02  0.98541229740E+02  0.47000000000E+01 0.  1.
<mgrwt>
<rscale>  0 0.29303864E+03</rscale>
<asrwt>0</asrwt>
<pdfrwt beam="1">  1       21 0.14143846E-01 0.29303864E+03</pdfrwt>
<pdfrwt beam="2">  1       21 0.35924900E-01 0.29303864E+03</pdfrwt>
<totfact> 0.31875105E+05</totfact>
</mgrwt>
</event>
<event>
 8    1  0.9974463E-006  0.2716621E+03  0.7546771E-02  0.1100332E+00
         21   -1    0    0  504  503  0.00000000000E+00  0.00000000000E+00  0.47411106294E+02  0.47411106294E+02  0.00000000000E+00 0. -1.
         21   -1    0    0  503  504 -0.00000000000E+00 -0.00000000000E+00 -0.38915091427E+03  0.38915091427E+03  0.00000000000E+00 0. -1.
         25    2    1    2    0    0 -0.28927051397E+02  0.25616576165E+02 -0.11220800497E+03  0.17236157978E+03  0.12499957812E+03 0.  0.
         25    2    1    2    0    0  0.28927051397E+02 -0.25616576165E+02 -0.22953180301E+03  0.26420044078E+03  0.12499616410E+03 0.  0.
          5    1    3    3  501    0 -0.48864268813E+02 -0.24392862778E+02 -0.10418732710E+03  0.11772772677E+03  0.47000000000E+01 0.  1.
         -5    1    3    3    0  501  0.19937217416E+02  0.50009438943E+02 -0.80206778626E+01  0.54633853013E+02  0.47000000000E+01 0.  1.
          5    1    4    4  502    0  0.18269611166E+02 -0.75664034484E+02 -0.11851998563E+03  0.14187283672E+03  0.47000000000E+01 0.  1.
         -5    1    4    4    0  502  0.10657440231E+02  0.50047458319E+02 -0.11101181737E+03  0.12232760405E+03  0.47000000000E+01 0.  1.
<mgrwt>
<rscale>  0 0.27166211E+03</rscale>
<asrwt>0</asrwt>
<pdfrwt beam="1">  1       21 0.72940166E-02 0.27166211E+03</pdfrwt>
<pdfrwt beam="2">  1       21 0.59869369E-01 0.27166211E+03</pdfrwt>
<totfact> 0.36005575E+05</totfact>
</mgrwt>
</event>
<event>
 8    1  0.9974463E-006  0.2648802E+03  0.7546771E-02  0.1104246E+00
         21   -1    0    0  504  503  0.00000000000E+00  0.00000000000E+00  0.22575093651E+02  0.22575093651E+02  0.00000000000E+00 0. -1.
         21   -1    0    0  503  504 -0.00000000000E+00 -0.00000000000E+00 -0.77697947160E+03  0.77697947160E+03  0.00000000000E+00 0. -1.
         25    2    1    2    0    0  0.25883765962E+02  0.80033476413E+01 -0.27356071793E+03  0.30198072231E+03  0.12499146907E+03 0.  0.
         25    2    1    2    0    0 -0.25883765962E+02 -0.80033476413E+01 -0.48084366002E+03  0.49757384294E+03  0.12504031704E+03 0.  0.
          5    1    3    3  501    0 -0.21686678117E+02 -0.13146506174E+02 -0.23650374951E+03  0.23790598177E+03  0.47000000000E+01 0.  1.
         -5    1    3    3    0  501  0.47570444079E+02  0.21149853815E+02 -0.37056968421E+02  0.64074740537E+02  0.47000000000E+01 0.  1.
          5    1    4    4  502    0 -0.35099968046E+02 -0.54876342596E+02 -0.15476838714E+03  0.16798441711E+03  0.47000000000E+01 0. -1.
         -5    1    4    4    0  502  0.92162020845E+01  0.46872994955E+02 -0.32607527288E+03  0.32958942583E+03  0.47000000000E+01 0. -1.
<mgrwt>
<rscale>  0 0.26488023E+03</rscale>
<asrwt>0</asrwt>
<pdfrwt beam="1">  1       21 0.34730914E-02 0.26488023E+03</pdfrwt>
<pdfrwt beam="2">  1       21 0.11953530E+00 0.26488023E+03</pdfrwt>
<totfact> 0.25866914E+05</totfact>
</mgrwt>
</event>
<event>
 8    1  0.9974463E-006  0.3248277E+03  0.7546771E-02  0.1073449E+00
         21   -1    0    0  504  503  0.00000000000E+00  0.00000000000E+00  0.51428751108E+03  0.51428751108E+03  0.00000000000E+00 0. -1.
         21   -1    0    0  503  504 -0.00000000000E+00 -0.00000000000E+00 -0.51290887626E+02  0.51290887626E+02  0.00000000000E+00 0. -1.
         25    2    1    2    0    0 -0.27889554158E+02 -0.79451607232E+02  0.12611950962E+03  0.19652360040E+03  0.12500003873E+03 0.  0.
         25    2    1    2    0    0  0.27889554158E+02  0.79451607232E+02  0.33687711383E+03  0.36905479831E+03  0.12499947683E+03 0.  0.
          5    1    3    3  501    0 -0.18120801222E+02 -0.10414698783E+03  0.13173939598E+03  0.16897430859E+03  0.47000000000E+01 0. -1.
         -5    1    3    3    0  501 -0.97687529360E+01  0.24695380597E+02 -0.56198863513E+01  0.27549291812E+02  0.47000000000E+01 0. -1.
          5    1    4    4  502    0 -0.37972061491E+02 -0.96712257169E+01  0.77966098966E+02  0.87385425837E+02  0.47000000000E+01 0. -1.
         -5    1    4    4    0  502  0.65861615649E+02  0.89122832949E+02  0.25891101487E+03  0.28166937247E+03  0.47000000000E+01 0. -1.
<mgrwt>
<rscale>  0 0.32482773E+03</rscale>
<asrwt>0</asrwt>
<pdfrwt beam="1">  1       21 0.79121152E-01 0.32482773E+03</pdfrwt>
<pdfrwt beam="2">  1       21 0.78909062E-02 0.32482773E+03</pdfrwt>
<totfact> 0.16679694E+05</totfact>
</mgrwt>
</event>
<event>
 8    1  0.9974463E-006  0.3652427E+03  0.7546771E-02  0.1056527E+00
         21   -1    0    0  504  503  0.00000000000E+00  0.00000000000E+00  0.10334791325E+04  0.10334791325E+04  0.00000000000E+00 0. -1.
         21   -1    0    0  503  504 -0.00000000000E+00 -0.00000000000E+00 -0.32270172085E+02  0.32270172085E+02  0.00000000000E+00 0. -1.
         25    2    1    2    0    0  0.10504815324E+03  0.25221388265E+02  0.72764591690E+03  0.74616630500E+03  0.12499736564E+03 0.  0.
         25    2    1    2    0    0 -0.10504815324E+03 -0.25221388265E+02  0.27356304350E+03  0.31958299956E+03  0.12500128766E+03 0.  0.
          5    1    3    3  501    0 -0.10067207674E+02  0.37625210463E+02  0.31917829001E+03  0.32158027916E+03  0.47000000000E+01 0. -1.
         -5    1    3    3    0  501  0.11511536091E+03 -0.12403822197E+02  0.40846762689E+03  0.42458602584E+03  0.47000000000E+01 0. -1.
          5    1    4    4  502    0  0.22020784047E+02  0.48186034209E+00  0.77763606247E+01  0.23826642735E+02  0.47000000000E+01 0. -1.
         -5    1    4    4    0  502 -0.12706893728E+03 -0.25703248607E+02  0.26578668287E+03  0.29575635683E+03  0.47000000000E+01 0. -1.
<mgrwt>
<rscale>  0 0.36524266E+03</rscale>
<asrwt>0</asrwt>
<pdfrwt beam="1">  1       21 0.15899676E+00 0.36524266E+03</pdfrwt>
<pdfrwt beam="2">  1       21 0.49646426E-02 0.36524266E+03</pdfrwt>
<totfact> 0.64930882E+04</totfact>
</mgrwt>
</event>
<event>
 8    1  0.9974463E-006  0.3360566E+03  0.7546771E-02  0.1068488E+00
         21   -1    0    0  504  503  0.00000000000E+00  0.00000000000E+00  0.33969508459E+03  0.33969508459E+03  0.00000000000E+00 0.  1.
         21   -1    0    0  503  504 -0.00000000000E+00 -0.00000000000E+00 -0.83114263234E+02  0.83114263234E+02  0.00000000000E+00 0.  1.
         25    2    1    2    0    0  0.35647940704E+02 -0.84361377690E+02  0.21003029008E+03  0.26100868026E+03  0.12500076279E+03 0.  0.
         25    2    1    2    0    0 -0.35647940704E+02  0.84361377690E+02  0.46550531271E+02  0.16180066756E+03  0.12499954535E+03 0.  0.
          5    1    3    3  501    0  0.73614319543E+02 -0.86743429423E+02  0.13386662146E+03  0.17574371377E+03  0.47000000000E+01 0.  1.
         -5    1    3    3    0  501 -0.37966378839E+02  0.23820517325E+01  0.76163668625E+02  0.85264966492E+02  0.47000000000E+01 0.  1.
          5    1    4    4  502    0 -0.32948611068E+02  0.92843692256E+02 -0.14708983096E+02  0.99719638721E+02  0.47000000000E+01 0. -1.
         -5    1    4    4    0  502 -0.26993296364E+01 -0.84823145656E+01  0.61259514368E+02  0.62081028837E+02  0.47000000000E+01 0. -1.
<mgrwt>
<rscale>  0 0.33605658E+03</rscale>
<asrwt>0</asrwt>
<pdfrwt beam="1">  1       21 0.52260782E-01 0.33605658E+03</pdfrwt>
<pdfrwt beam="2">  1       21 0.12786810E-01 0.33605658E+03</pdfrwt>
<totfact> 0.17500671E+05</totfact>
</mgrwt>
</event>
<event>
 8    1  0.9974463E-006  0.2649128E+03  0.7546771E-02  0.1104227E+00
         21   -1    0    0  504  503  0.00000000000E+00  0.00000000000E+00  0.21576445148E+03  0.21576445148E+03  0.00000000000E+00 0. -1.
         21   -1    0    0  503  504 -0.00000000000E+00 -0.00000000000E+00 -0.81314138831E+02  0.81314138831E+02  0.00000000000E+00 0. -1.
         25    2    1    2    0    0 -0.32566230470E+02 -0.23179706161E+02  0.47122687423E+02  0.13943889733E+03  0.12499920110E+03 0.  0.
         25    2    1    2    0    0  0.32566230470E+02  0.23179706161E+02  0.87327625226E+02  0.15763969298E+03  0.12500520201E+03 0.  0.
          5    1    3    3  501    0 -0.33779435169E+02 -0.69439876269E+02  0.64172428012E+01  0.77628716734E+02  0.47000000000E+01 0. -1.
         -5    1    3    3    0  501  0.12132046995E+01  0.46260170108E+02  0.40705444622E+02  0.61810180601E+02  0.47000000000E+01 0. -1.
          5    1    4    4  502    0  0.34823314091E+02 -0.48132705803E+02  0.36036200044E+02  0.69642790624E+02  0.47000000000E+01 0. -1.
         -5    1    4    4    0  502 -0.22570836210E+01  0.71312411965E+02  0.51291425182E+02  0.87996902354E+02  0.47000000000E+01 0. -1.
<mgrwt>
<rscale>  0 0.26491282E+03</rscale>
<asrwt>0</asrwt>
<pdfrwt beam="1">  1       21 0.33194531E-01 0.26491282E+03</pdfrwt>
<pdfrwt beam="2">  1       21 0.12509868E-01 0.26491282E+03</pdfrwt>
<totfact> 0.46915793E+05</totfact>
</mgrwt>
</event>
<event>
 8    1  0.9974463E-006  0.2936312E+03  0.7546771E-02  0.1088468E+00
         21   -1    0    0  504  503  0.00000000000E+00  0.00000000000E+00  0.16668680787E+03  0.16668680787E+03  0.00000000000E+00 0. -1.
         21   -1    0    0  503  504 -0.00000000000E+00 -0.00000000000E+00 -0.12931328485E+03  0.12931328485E+03  0.00000000000E+00 0. -1.
         25    2    1    2    0    0  0.44819739837E+02  0.38546321448E+01 -0.44318312616E+02  0.14004431835E+03  0.12499852399E+03 0.  0.
         25    2    1    2    0    0 -0.44819739837E+02 -0.38546321448E+01  0.81691835639E+02  0.15595577436E+03  0.12499992112E+03 0.  0.
          5    1    3    3  501    0  0.80600761538E+01  0.29985600983E+02 -0.77654378578E+02  0.83763915896E+02  0.47000000000E+01 0.  1.
         -5    1    3    3    0  501  0.36759663683E+02 -0.26130968838E+02  0.33336065962E+02  0.56280402454E+02  0.47000000000E+01 0.  1.
          5    1    4    4  502    0 -0.61838758788E+01  0.45075479671E+01  0.10791374064E+03  0.10828676617E+03  0.47000000000E+01 0.  1.
         -5    1    4    4    0  502 -0.38635863958E+02 -0.83621801119E+01 -0.26221905000E+02  0.47669008191E+02  0.47000000000E+01 0.  1.
<mgrwt>
<rscale>  0 0.29363119E+03</rscale>
<asrwt>0</asrwt>
<pdfrwt beam="1">  1       21 0.25644124E-01 0.29363119E+03</pdfrwt>
<pdfrwt beam="2">  1       21 0.19894351E-01 0.29363119E+03</pdfrwt>
<totfact> 0.32886332E+05</totfact>
</mgrwt>
</event>
<event>
 8    1  0.9974463E-006  0.2581819E+03  0.7546771E-02  0.1108241E+00
         21   -1    0    0  504  503  0.00000000000E+00  0.00000000000E+00  0.84804903820E+02  0.84804903820E+02  0.00000000000E+00 0.  1.
         21   -1    0    0  503  504 -0.00000000000E+00 -0.00000000000E+00 -0.19650366072E+03  0.19650366072E+03  0.00000000000E+00 0.  1.
         25    2    1    2    0    0  0.25165339549E+02 -0.44789865978E+01 -0.77237632563E+02  0.14914481889E+03  0.12500067793E+03 0.  0.
         25    2    1    2    0    0 -0.25165339549E+02  0.44789865978E+01 -0.34461124336E+02  0.13216374565E+03  0.12500532364E+03 0.  0.
          5    1    3    3  501    0 -0.39338577688E+02  0.28652675398E+02 -0.54013767598E+02  0.72856548039E+02  0.47000000000E+01 0.  1.
         -5    1    3    3    0  501  0.64503917238E+02 -0.33131661996E+02 -0.23223864965E+02  0.76288270852E+02  0.47000000000E+01 0.  1.
          5    1    4    4  502    0 -0.18658487767E+02  0.61520627649E+02 -0.37330292138E+02  0.74488707219E+02  0.47000000000E+01 0. -1.
         -5    1    4    4    0  502 -0.65068517820E+01 -0.57041641051E+02  0.28691678022E+01  0.57675038429E+02  0.47000000000E+01 0. -1.
<mgrwt>
<rscale>  0 0.25818191E+03</rscale>
<asrwt>0</asrwt>
<pdfrwt beam="1">  1       21 0.13046908E-01 0.25818191E+03</pdfrwt>
<pdfrwt beam="2">  1       21 0.30231332E-01 0.25818191E+03</pdfrwt>
<totfact> 0.52361983E+05</totfact>
</mgrwt>
</event>
<event>
 8    1  0.9974463E-006  0.3084430E+03  0.7546771E-02  0.1081095E+00
         21   -1    0    0  504  503  0.00000000000E+00  0.00000000000E+00  0.16564088222E+03  0.16564088222E+03  0.00000000000E+00 0.  1.
         21   -1    0    0  503  504 -0.00000000000E+00 -0.00000000000E+00 -0.14358937695E+03  0.14358937695E+03  0.00000000000E+00 0.  1.
         25    2    1    2    0    0  0.24100544517E+02 -0.23374320551E+02 -0.73049098467E+02  0.14862144663E+03  0.12499987402E+03 0.  0.
         25    2    1    2    0    0 -0.24100544517E+02  0.23374320551E+02  0.95100603739E+02  0.16060881253E+03  0.12499548282E+03 0.  0.
          5    1    3    3  501    0  0.27035337138E+02 -0.15156422898E+02 -0.10791403089E+03  0.11237506250E+03  0.47000000000E+01 0.  1.
         -5    1    3    3    0  501 -0.29347926206E+01 -0.82178976531E+01  0.34864932425E+02  0.36246384131E+02  0.47000000000E+01 0.  1.
          5    1    4    4  502    0 -0.25752385921E+02  0.52492325512E+01  0.12360986375E+03  0.12646038209E+03  0.47000000000E+01 0. -1.
         -5    1    4    4    0  502  0.16518414038E+01  0.18125088000E+02 -0.28509260013E+02  0.34148430440E+02  0.47000000000E+01 0. -1.
<mgrwt>
<rscale>  0 0.30844300E+03</rscale>
<asrwt>0</asrwt>
<pdfrwt beam="1">  1       21 0.25483213E-01 0.30844300E+03</pdfrwt>
<pdfrwt beam="2">  1       21 0.22090673E-01 0.30844300E+03</pdfrwt>
<totfact> 0.27217631E+05</totfact>
</mgrwt>
</event>
<event>
 8    1  0.9974463E-006  0.2535398E+03  0.7546771E-02  0.1111088E+00
         21   -1    0    0  504  503  0.00000000000E+00  0.00000000000E+00  0.24553950513E+02  0.24553950513E+02  0.00000000000E+00 0.  1.
         21   -1    0    0  503  504 -0.00000000000E+00 -0.00000000000E+00 -0.65450201215E+03  0.65450201215E+03  0.00000000000E+00 0.  1.
         25    2    1    2    0    0 -0.15847469021E+00  0.16678137844E+02 -0.34964211676E+03  0.37168792633E+03  0.12499647745E+03 0.  0.
         25    2    1    2    0    0  0.15847469021E+00 -0.16678137844E+02 -0.28030594489E+03  0.30736803634E+03  0.12500200649E+03 0.  0.
          5    1    3    3  501    0 -0.14910647455E+02  0.55219527380E+02 -0.30640360080E+03  0.31173190435E+03  0.47000000000E+01 0. -1.
         -5    1    3    3    0  501  0.14752172765E+02 -0.38541389537E+02 -0.43238515959E+02  0.59956021975E+02  0.47000000000E+01 0. -1.
          5    1    4    4  502    0  0.33385480754E+02 -0.61425960330E+02 -0.14956954969E+03  0.16516924388E+03  0.47000000000E+01 0. -1.
         -5    1    4    4    0  502 -0.33227006063E+02  0.44747822486E+02 -0.13073639519E+03  0.14219879246E+03  0.47000000000E+01 0. -1.
<mgrwt>
<rscale>  0 0.25353982E+03</rscale>
<asrwt>0</asrwt>
<pdfrwt beam="1">  1       21 0.37775307E-02 0.25353982E+03</pdfrwt>
<pdfrwt beam="2">  1       21 0.10069262E+00 0.25353982E+03</pdfrwt>
<totfact> 0.34252586E+05</totfact>
</mgrwt>
</event>
<event>
 8    1  0.9974463E-006  0.2901281E+03  0.7546771E-02  0.1090282E+00
         21   -1    0    0  504  503  0.00000000000E+00  0.00000000000E+00  0.42581479611E+03  0.42581479611E+03  0.00000000000E+00 0. -1.
         21   -1    0    0  503  504 -0.00000000000E+00 -0.00000000000E+00 -0.49419548141E+02  0.49419548141E+02  0.00000000000E+00 0. -1.
         25    2    1    2    0    0 -0.70014585420E+02 -0.22473789037E+02  0.18283199231E+03  0.23336607499E+03  0.12500029672E+03 0.  0.
         25    2    1    2    0    0  0.70014585420E+02  0.22473789037E+02  0.19356325566E+03  0.24186826926E+03  0.12500564934E+03 0.  0.
          5    1    3    3  501    0  0.27702147675E+01 -0.60751214692E+02  0.60691638105E+02  0.86046203358E+02  0.47000000000E+01 0.  1.
         -5    1    3    3    0  501 -0.72784800187E+02  0.38277425656E+02  0.12214035420E+03  0.14731987163E+03  0.47000000000E+01 0.  1.
          5    1    4    4  502    0  0.94595911622E+02  0.14486320272E+02  0.78561530486E+02  0.12390417282E+03  0.47000000000E+01 0. -1.
         -5    1    4    4    0  502 -0.24581326202E+02  0.79874687649E+01  0.11500172517E+03  0.11796409644E+03  0.47000000000E+01 0. -1.
<mgrwt>
<rscale>  0 0.29012807E+03</rscale>
<asrwt>0</asrwt>
<pdfrwt beam="1">  1       21 0.65509966E-01 0.29012807E+03</pdfrwt>
<pdfrwt beam="2">  1       21 0.76030077E-02 0.29012807E+03</pdfrwt>
<totfact> 0.27403893E+05</totfact>
</mgrwt>
</event>
<event>
 8    1  0.9974463E-006  0.7122001E+03  0.7546771E-02  0.9696593E-01
         21   -1    0    0  504  503  0.00000000000E+00  0.00000000000E+00  0.27656971685E+03  0.27656971685E+03  0.00000000000E+00 0.  1.
         21   -1    0    0  503  504 -0.00000000000E+00 -0.00000000000E+00 -0.45850009781E+03  0.45850009781E+03  0.00000000000E+00 0.  1.
         25    2    1    2    0    0  0.19120841148E+03  0.11885524064E+03 -0.34482826879E+03  0.43037155944E+03  0.12500367742E+03 0.  0.
         25    2    1    2    0    0 -0.19120841148E+03 -0.11885524064E+03  0.16289788783E+03  0.30469825522E+03  0.12497231705E+03 0.  0.
          5    1    3    3  501    0  0.20088087577E+03  0.11536110710E+03 -0.27482500291E+03  0.35946096242E+03  0.47000000000E+01 0.  1.
         -5    1    3    3    0  501 -0.96724642991E+01  0.34941335415E+01 -0.70003265880E+02  0.70910597013E+02  0.47000000000E+01 0.  1.
          5    1    4    4  502    0 -0.65134737017E+02 -0.15779614589E+01  0.10369765531E+03  0.12255740551E+03  0.47000000000E+01 0.  1.
         -5    1    4    4    0  502 -0.12607367446E+03 -0.11727727918E+03  0.59200232523E+02  0.18214084971E+03  0.47000000000E+01 0.  1.
<mgrwt>
<rscale>  0 0.71220009E+03</rscale>
<asrwt>0</asrwt>
<pdfrwt beam="1">  1       21 0.42549187E-01 0.71220009E+03</pdfrwt>
<pdfrwt beam="2">  1       21 0.70538476E-01 0.71220009E+03</pdfrwt>
<totfact> 0.80961942E+03</totfact>
</mgrwt>
</event>
<event>
 8    1  0.9974463E-006  0.6426417E+03  0.7546771E-02  0.9820685E-01
         21   -1    0    0  504  503  0.00000000000E+00  0.00000000000E+00  0.36974534205E+02  0.36974534205E+02  0.00000000000E+00 0.  1.
         21   -1    0    0  503  504 -0.00000000000E+00 -0.00000000000E+00 -0.27923835117E+04  0.27923835117E+04  0.00000000000E+00 0.  1.
         25    2    1    2    0    0  0.15978021129E+03 -0.11351811061E+03 -0.23543254931E+04  0.23657746062E+04  0.12499953036E+03 0.  0.
         25    2    1    2    0    0 -0.15978021129E+03  0.11351811061E+03 -0.40108348437E+03  0.46358343966E+03  0.12500226694E+03 0.  0.
          5    1    3    3  501    0  0.17085995612E+03 -0.11906251895E+03 -0.19236778944E+04  0.19349231870E+04  0.47000000000E+01 0. -1.
         -5    1    3    3    0  501 -0.11079744830E+02  0.55444083395E+01 -0.43064759867E+03  0.43085141922E+03  0.47000000000E+01 0. -1.
          5    1    4    4  502    0 -0.15136173386E+03  0.76422198416E+02 -0.38736071053E+03  0.42287248308E+03  0.47000000000E+01 0. -1.
         -5    1    4    4    0  502 -0.84184774334E+01  0.37095912195E+02 -0.13722773840E+02  0.40710956581E+02  0.47000000000E+01 0. -1.
<mgrwt>
<rscale>  0 0.64264167E+03</rscale>
<asrwt>0</asrwt>
<pdfrwt beam="1">  1       21 0.56883908E-02 0.64264167E+03</pdfrwt>
<pdfrwt beam="2">  1       21 0.42959740E+00 0.64264167E+03</pdfrwt>
<totfact> 0.86751081E+02</totfact>
</mgrwt>
</event>
<event>
 8    1  0.9974463E-006  0.2674866E+03  0.7546771E-02  0.1102727E+00
         21   -1    0    0  504  503  0.00000000000E+00  0.00000000000E+00  0.41842509382E+02  0.41842509382E+02  0.00000000000E+00 0. -1.
         21   -1    0    0  503  504 -0.00000000000E+00 -0.00000000000E+00 -0.42749044052E+03  0.42749044052E+03  0.00000000000E+00 0. -1.
         25    2    1    2    0    0 -0.18771339209E+02  0.26493607218E+02 -0.25380438930E+03  0.28477387348E+03  0.12500086635E+03 0.  0.
         25    2    1    2    0    0  0.18771339209E+02 -0.26493607218E+02 -0.13184354183E+03  0.18455907642E+03  0.12500023506E+03 0.  0.
          5    1    3    3  501    0 -0.25396186071E+02 -0.29087638722E+02 -0.20991565303E+03  0.21348941046E+03  0.47000000000E+01 0. -1.
         -5    1    3    3    0  501  0.66248468620E+01  0.55581245940E+02 -0.43888736277E+02  0.71284463021E+02  0.47000000000E+01 0. -1.
          5    1    4    4  502    0  0.48851013953E+02  0.34064208127E+02 -0.47290324873E+02  0.76192234947E+02  0.47000000000E+01 0.  1.
         -5    1    4    4    0  502 -0.30079674744E+02 -0.60557815346E+02 -0.84553216959E+02  0.10836684147E+03  0.47000000000E+01 0.  1.
<mgrwt>
<rscale>  0 0.26748662E+03</rscale>
<asrwt>0</asrwt>
<pdfrwt beam="1">  1       21 0.64373092E-02 0.26748662E+03</pdfrwt>
<pdfrwt beam="2">  1       21 0.65767760E-01 0.26748662E+03</pdfrwt>
<totfact> 0.36475384E+05</totfact>
</mgrwt>
</event>
<event>
 8    1  0.9974463E-006  0.3638888E+03  0.7546771E-02  0.1057055E+00
         21   -1    0    0  504  503  0.00000000000E+00  0.00000000000E+00  0.22619422588E+03  0.22619422588E+03  0.00000000000E+00 0. -1.
         21   -1    0    0  503  504 -0.00000000000E+00 -0.00000000000E+00 -0.14635102281E+03  0.14635102281E+03  0.00000000000E+00 0. -1.
         25    2    1    2    0    0  0.56097059808E+02  0.14116090980E+02 -0.81784851466E+02  0.16018692214E+03  0.12499977580E+03 0.  0.
         25    2    1    2    0    0 -0.56097059808E+02 -0.14116090980E+02  0.16162805453E+03  0.21235832655E+03  0.12500514670E+03 0.  0.
          5    1    3    3  501    0  0.85415199762E+02 -0.20524991992E+02 -0.71628749249E+02  0.11344513813E+03  0.47000000000E+01 0. -1.
         -5    1    3    3    0  501 -0.29318139954E+02  0.34641082972E+02 -0.10156102216E+02  0.46741784006E+02  0.47000000000E+01 0. -1.
          5    1    4    4  502    0 -0.39864222196E+02 -0.13102702965E+02  0.18144554542E+03  0.18629388876E+03  0.47000000000E+01 0. -1.
         -5    1    4    4    0  502 -0.16232837612E+02 -0.10133880154E+01 -0.19817490891E+02  0.26064437792E+02  0.47000000000E+01 0. -1.
<mgrwt>
<rscale>  0 0.36388875E+03</rscale>
<asrwt>0</asrwt>
<pdfrwt beam="1">  1       21 0.34799112E-01 0.36388875E+03</pdfrwt>
<pdfrwt beam="2">  1       21 0.22515542E-01 0.36388875E+03</pdfrwt>
<totfact> 0.14035694E+05</totfact>
</mgrwt>
</event>
<event>
 8    1  0.9974463E-006  0.3042130E+03  0.7546771E-02  0.1083153E+00
         21   -1    0    0  504  503  0.00000000000E+00  0.00000000000E+00  0.22597548291E+03  0.22597548291E+03  0.00000000000E+00 0. -1.
         21   -1    0    0  503  504 -0.00000000000E+00 -0.00000000000E+00 -0.10238452539E+03  0.10238452539E+03  0.00000000000E+00 0. -1.
         25    2    1    2    0    0 -0.31026163442E+02  0.59152063572E+02  0.12141651123E+03  0.18662347921E+03  0.12499905740E+03 0.  0.
         25    2    1    2    0    0  0.31026163442E+02 -0.59152063572E+02  0.21744462879E+01  0.14173652909E+03  0.12499170380E+03 0.  0.
          5    1    3    3  501    0 -0.59451407141E+02  0.82020837887E+02  0.69275304388E+02  0.12281305084E+03  0.47000000000E+01 0.  1.
         -5    1    3    3    0  501  0.28425243699E+02 -0.22868774315E+02  0.52141206844E+02  0.63810428373E+02  0.47000000000E+01 0.  1.
          5    1    4    4  502    0  0.23219261317E+02 -0.94063257021E+02 -0.20471928413E+02  0.99137380793E+02  0.47000000000E+01 0.  1.
         -5    1    4    4    0  502  0.78069021244E+01  0.34911193449E+02  0.22646374701E+02  0.42599148300E+02  0.47000000000E+01 0.  1.
<mgrwt>
<rscale>  0 0.30421303E+03</rscale>
<asrwt>0</asrwt>
<pdfrwt beam="1">  1       21 0.34765459E-01 0.30421303E+03</pdfrwt>
<pdfrwt beam="2">  1       21 0.15751466E-01 0.30421303E+03</pdfrwt>
<totfact> 0.27871458E+05</totfact>
</mgrwt>
</event>
<event>
 8    1  0.9974463E-006  0.3755885E+03  0.7546771E-02  0.1052576E+00
         21   -1    0    0  504  503  0.00000000000E+00  0.00000000000E+00  0.40687797270E+03  0.40687797270E+03  0.00000000000E+00 0.  1.
         21   -1    0    0  503  504 -0.00000000000E+00 -0.00000000000E+00 -0.86676287023E+02  0.86676287023E+02  0.00000000000E+00 0.  1.
         25    2    1    2    0    0  0.40613359045E+02  0.57209731926E+02  0.31951269310E+03  0.35019531426E+03  0.12500399481E+03 0.  0.
         25    2    1    2    0    0 -0.40613359045E+02 -0.57209731926E+02  0.68899257761E+00  0.14335894546E+03  0.12501565572E+03 0.  0.
          5    1    3    3  501    0  0.26765442769E+02  0.90461598289E+02  0.28439430301E+03  0.29966965025E+03  0.47000000000E+01 0.  1.
         -5    1    3    3    0  501  0.13847916276E+02 -0.33251866363E+02  0.35118390088E+02  0.50525664015E+02  0.47000000000E+01 0.  1.
          5    1    4    4  502    0  0.39038454664E+02  0.74373870798E+01 -0.59242894437E+01  0.40453712741E+02  0.47000000000E+01 0. -1.
         -5    1    4    4    0  502 -0.79651813709E+02 -0.64647119005E+02  0.66132820213E+01  0.10290523272E+03  0.47000000000E+01 0. -1.
<mgrwt>
<rscale>  0 0.37558846E+03</rscale>
<asrwt>0</asrwt>
<pdfrwt beam="1">  1       21 0.62596610E-01 0.37558846E+03</pdfrwt>
<pdfrwt beam="2">  1       21 0.13334814E-01 0.37558846E+03</pdfrwt>
<totfact> 0.10879574E+05</totfact>
</mgrwt>
</event>
<event>
 8    1  0.9974463E-006  0.2901427E+03  0.7546771E-02  0.1090275E+00
         21   -1    0    0  504  503  0.00000000000E+00  0.00000000000E+00  0.12486823948E+03  0.12486823948E+03  0.00000000000E+00 0. -1.
         21   -1    0    0  503  504 -0.00000000000E+00 -0.00000000000E+00 -0.16854322111E+03  0.16854322111E+03  0.00000000000E+00 0. -1.
         25    2    1    2    0    0  0.23492090720E+02 -0.60142825546E+02  0.13944634361E+02  0.14137964915E+03  0.12499885829E+03 0.  0.
         25    2    1    2    0    0 -0.23492090720E+02  0.60142825546E+02 -0.57619615987E+02  0.15203181144E+03  0.12499845500E+03 0.  0.
          5    1    3    3  501    0  0.35221273133E+02  0.17546728250E+02 -0.31382557005E+02  0.50550772868E+02  0.47000000000E+01 0.  1.
         -5    1    3    3    0  501 -0.11729182414E+02 -0.77689553796E+02  0.45327191366E+02  0.90828876280E+02  0.47000000000E+01 0.  1.
          5    1    4    4  502    0 -0.90559339301E+01 -0.10215682098E+02  0.33167419414E+02  0.36173717126E+02  0.47000000000E+01 0.  1.
         -5    1    4    4    0  502 -0.14436156790E+02  0.70358507644E+02 -0.90787035401E+02  0.11585809431E+03  0.47000000000E+01 0.  1.
<mgrwt>
<rscale>  0 0.29014269E+03</rscale>
<asrwt>0</asrwt>
<pdfrwt beam="1">  1       21 0.19210499E-01 0.29014269E+03</pdfrwt>
<pdfrwt beam="2">  1       21 0.25929726E-01 0.29014269E+03</pdfrwt>
<totfact> 0.34402436E+05</totfact>
</mgrwt>
</event>
<event>
 8    1  0.9974463E-006  0.3661697E+03  0.7546771E-02  0.1056167E+00
         21   -1    0    0  504  503  0.00000000000E+00  0.00000000000E+00  0.19823079390E+03  0.19823079390E+03  0.00000000000E+00 0. -1.
         21   -1    0    0  503  504 -0.00000000000E+00 -0.00000000000E+00 -0.16909613525E+03  0.16909613525E+03  0.00000000000E+00 0. -1.
         25    2    1    2    0    0 -0.73397194019E+02 -0.96690640085E+02  0.70969881963E+02  0.18814220501E+03  0.12499814875E+03 0.  0.
         25    2    1    2    0    0  0.73397194019E+02  0.96690640085E+02 -0.41835223309E+02  0.17918472414E+03  0.12498300479E+03 0.  0.
          5    1    3    3  501    0 -0.37855124107E+01 -0.89342451810E+01  0.75182150006E+02  0.75951277282E+02  0.47000000000E+01 0.  1.
         -5    1    3    3    0  501 -0.69611681608E+02 -0.87756394904E+02 -0.42122680434E+01  0.11219092773E+03  0.47000000000E+01 0.  1.
          5    1    4    4  502    0 -0.26831856035E+02  0.56913862867E+02 -0.32148983583E+02  0.70815135601E+02  0.47000000000E+01 0.  1.
         -5    1    4    4    0  502  0.10022905005E+03  0.39776777218E+02 -0.96862397256E+01  0.10836958854E+03  0.47000000000E+01 0.  1.
<mgrwt>
<rscale>  0 0.36616969E+03</rscale>
<asrwt>0</asrwt>
<pdfrwt beam="1">  1       21 0.30497045E-01 0.36616969E+03</pdfrwt>
<pdfrwt beam="2">  1       21 0.26014790E-01 0.36616969E+03</pdfrwt>
<totfact> 0.13815164E+05</totfact>
</mgrwt>
</event>
<event>
 8    1  0.9974463E-006  0.3407639E+03  0.7546771E-02  0.1066471E+00
         21   -1    0    0  504  503  0.00000000000E+00  0.00000000000E+00  0.16098626114E+03  0.16098626114E+03  0.00000000000E+00 0.  1.
         21   -1    0    0  503  504 -0.00000000000E+00 -0.00000000000E+00 -0.18032602436E+03  0.18032602436E+03  0.00000000000E+00 0.  1.
         25    2    1    2    0    0  0.74544674256E+02  0.87040162709E+02  0.68713151049E+01  0.16971810566E+03  0.12499648809E+03 0.  0.
         25    2    1    2    0    0 -0.74544674256E+02 -0.87040162709E+02 -0.26211078323E+02  0.17159417984E+03  0.12499857417E+03 0.  0.
          5    1    3    3  501    0  0.47789224438E+02  0.90405013067E+02 -0.44412803143E+02  0.11158612567E+03  0.47000000000E+01 0. -1.
         -5    1    3    3    0  501  0.26755449818E+02 -0.33648503586E+01  0.51284118248E+02  0.58131979989E+02  0.47000000000E+01 0. -1.
          5    1    4    4  502    0 -0.64912967267E+02  0.15140448366E+02 -0.11571461032E+02  0.67815302156E+02  0.47000000000E+01 0. -1.
         -5    1    4    4    0  502 -0.96317069888E+01 -0.10218061107E+03 -0.14639617292E+02  0.10377887768E+03  0.47000000000E+01 0. -1.
<mgrwt>
<rscale>  0 0.34076392E+03</rscale>
<asrwt>0</asrwt>
<pdfrwt beam="1">  1       21 0.24767117E-01 0.34076392E+03</pdfrwt>
<pdfrwt beam="2">  1       21 0.27742465E-01 0.34076392E+03</pdfrwt>
<totfact> 0.18406946E+05</totfact>
</mgrwt>
</event>
<event>
 8    1  0.9974463E-006  0.3067794E+03  0.7546771E-02  0.1081900E+00
         21   -1    0    0  504  503  0.00000000000E+00  0.00000000000E+00  0.47686687637E+03  0.47686687637E+03  0.00000000000E+00 0. -1.
         21   -1    0    0  503  504 -0.00000000000E+00 -0.00000000000E+00 -0.49339555827E+02  0.49339555827E+02  0.00000000000E+00 0. -1.
         25    2    1    2    0    0  0.62023174636E+02 -0.31925297450E+02  0.11924057153E+03  0.18630747539E+03  0.12500425064E+03 0.  0.
         25    2    1    2    0    0 -0.62023174636E+02  0.31925297450E+02  0.30828674902E+03  0.33989895681E+03  0.12499792963E+03 0.  0.
          5    1    3    3  501    0  0.20535280069E+02 -0.43774699156E+02  0.13233743820E+03  0.14097237163E+03  0.47000000000E+01 0.  1.
         -5    1    3    3    0  501  0.41487894566E+02  0.11849401705E+02 -0.13096866670E+02  0.45335103760E+02  0.47000000000E+01 0.  1.
          5    1    4    4  502    0 -0.67274417108E+02  0.61887367653E+02  0.13009381656E+03  0.15906723289E+03  0.47000000000E+01 0.  1.
         -5    1    4    4    0  502  0.52512424723E+01 -0.29962070203E+02  0.17819293246E+03  0.18083172392E+03  0.47000000000E+01 0.  1.
<mgrwt>
<rscale>  0 0.30677940E+03</rscale>
<asrwt>0</asrwt>
<pdfrwt beam="1">  1       21 0.73364132E-01 0.30677940E+03</pdfrwt>
<pdfrwt beam="2">  1       21 0.75907012E-02 0.30677940E+03</pdfrwt>
<totfact> 0.21280566E+05</totfact>
</mgrwt>
</event>
<event>
 8    1  0.9974463E-006  0.3753816E+03  0.7546771E-02  0.1052654E+00
         21   -1    0    0  504  503  0.00000000000E+00  0.00000000000E+00  0.83557929466E+03  0.83557929466E+03  0.00000000000E+00 0. -1.
         21   -1    0    0  503  504 -0.00000000000E+00 -0.00000000000E+00 -0.42159773991E+02  0.42159773991E+02  0.00000000000E+00 0. -1.
         25    2    1    2    0    0  0.94740543845E+02  0.74705580839E+02  0.23062032944E+03  0.28873530352E+03  0.12500257873E+03 0.  0.
         25    2    1    2    0    0 -0.94740543845E+02 -0.74705580839E+02  0.56279919124E+03  0.58900376514E+03  0.12500324490E+03 0.  0.
          5    1    3    3  501    0  0.36631331977E+02  0.10263571307E+03  0.14342706832E+03  0.18019255813E+03  0.47000000000E+01 0.  1.
         -5    1    3    3    0  501  0.58109211868E+02 -0.27930132234E+02  0.87193261121E+02  0.10854274538E+03  0.47000000000E+01 0. -1.
          5    1    4    4  502    0 -0.56588174144E+00  0.26064196729E+02  0.18302306303E+03  0.18493024138E+03  0.47000000000E+01 0.  1.
         -5    1    4    4    0  502 -0.94174662103E+02 -0.10076977757E+03  0.37977612820E+03  0.40407352376E+03  0.47000000000E+01 0.  1.
<mgrwt>
<rscale>  0 0.37538159E+03</rscale>
<asrwt>0</asrwt>
<pdfrwt beam="1">  1       21 0.12855065E+00 0.37538159E+03</pdfrwt>
<pdfrwt beam="2">  1       21 0.64861197E-02 0.37538159E+03</pdfrwt>
<totfact> 0.71737458E+04</totfact>
</mgrwt>
</event>
<event>
 8    1  0.9974463E-006  0.3528496E+03  0.7546771E-02  0.1061452E+00
         21   -1    0    0  504  503  0.00000000000E+00  0.00000000000E+00  0.56525124844E+03  0.56525124844E+03  0.00000000000E+00 0.  1.
         21   -1    0    0  503  504 -0.00000000000E+00 -0.00000000000E+00 -0.55065259428E+02  0.55065259428E+02  0.00000000000E+00 0.  1.
         25    2    1    2    0    0 -0.11005684965E+03  0.56983584664E+02  0.27587008120E+03  0.32724697749E+03  0.12500657381E+03 0.  0.
         25    2    1    2    0    0  0.11005684965E+03 -0.56983584664E+02  0.23431590781E+03  0.29306953038E+03  0.12500466356E+03 0.  0.
          5    1    3    3  501    0 -0.25100722475E+02  0.20415949032E+02  0.21257029589E+03  0.21506993732E+03  0.47000000000E+01 0. -1.
         -5    1    3    3    0  501 -0.84956127172E+02  0.36567635632E+02  0.63299785315E+02  0.11217704017E+03  0.47000000000E+01 0. -1.
          5    1    4    4  502    0  0.75174892310E+02  0.13811729643E+02  0.18414324676E+03  0.19943132561E+03  0.47000000000E+01 0. -1.
         -5    1    4    4    0  502  0.34881957337E+02 -0.70795314307E+02  0.50172661050E+02  0.93638204769E+02  0.47000000000E+01 0. -1.
<mgrwt>
<rscale>  0 0.35284958E+03</rscale>
<asrwt>0</asrwt>
<pdfrwt beam="1">  1       21 0.86961726E-01 0.35284958E+03</pdfrwt>
<pdfrwt beam="2">  1       21 0.84715788E-02 0.35284958E+03</pdfrwt>
<totfact> 0.11751160E+05</totfact>
</mgrwt>
</event>
<event>
 8    1  0.9974463E-006  0.2633692E+03  0.7546771E-02  0.1105136E+00
         21   -1    0    0  504  503  0.00000000000E+00  0.00000000000E+00  0.52571472037E+03  0.52571472037E+03  0.00000000000E+00 0. -1.
         21   -1    0    0  503  504 -0.00000000000E+00 -0.00000000000E+00 -0.32985256040E+02  0.32985256040E+02  0.00000000000E+00 0. -1.
         25    2    1    2    0    0 -0.34175838126E+02  0.21596562363E+02  0.22707960267E+03  0.26234376070E+03  0.12499881363E+03 0.  0.
         25    2    1    2    0    0  0.34175838126E+02 -0.21596562363E+02  0.26564986166E+03  0.29635621572E+03  0.12499103238E+03 0.  0.
          5    1    3    3  501    0 -0.32187720711E+02  0.72647909633E+02  0.14872975907E+03  0.16869024681E+03  0.47000000000E+01 0.  1.
         -5    1    3    3    0  501 -0.19881174148E+01 -0.51051347271E+02  0.78349843609E+02  0.93653513883E+02  0.47000000000E+01 0.  1.
          5    1    4    4  502    0  0.14941688699E+02  0.34757048374E+02  0.21406621983E+03  0.21743445667E+03  0.47000000000E+01 0.  1.
         -5    1    4    4    0  502  0.19234149427E+02 -0.56353610736E+02  0.51583641826E+02  0.78921759048E+02  0.47000000000E+01 0.  1.
<mgrwt>
<rscale>  0 0.26336921E+03</rscale>
<asrwt>0</asrwt>
<pdfrwt beam="1">  1       21 0.80879182E-01 0.26336921E+03</pdfrwt>
<pdfrwt beam="2">  1       21 0.50746551E-02 0.26336921E+03</pdfrwt>
<totfact> 0.34572946E+05</totfact>
</mgrwt>
</event>
<event>
 8    1  0.9974463E-006  0.2836902E+03  0.7546771E-02  0.1093690E+00
         21   -1    0    0  504  503  0.00000000000E+00  0.00000000000E+00  0.60682619197E+02  0.60682619197E+02  0.00000000000E+00 0. -1.
         21   -1    0    0  503  504 -0.00000000000E+00 -0.00000000000E+00 -0.33156158357E+03  0.33156158357E+03  0.00000000000E+00 0. -1.
         25    2    1    2    0    0  0.41451230298E+02  0.45973665370E+02 -0.17106088658E+03  0.22071934100E+03  0.12499367254E+03 0.  0.
         25    2    1    2    0    0 -0.41451230298E+02 -0.45973665370E+02 -0.99818077801E+02  0.17152486177E+03  0.12500138859E+03 0.  0.
          5    1    3    3  501    0 -0.31009211648E+02  0.16674574986E+02 -0.12483797161E+03  0.12979299602E+03  0.47000000000E+01 0.  1.
         -5    1    3    3    0  501  0.72460441947E+02  0.29299090384E+02 -0.46222914962E+02  0.90926344983E+02  0.47000000000E+01 0.  1.
          5    1    4    4  502    0 -0.12932717466E+02 -0.70817969883E+02 -0.11047989322E+03  0.13194823548E+03  0.47000000000E+01 0. -1.
         -5    1    4    4    0  502 -0.28518512833E+02  0.24844304513E+02  0.10661815420E+02  0.39576626296E+02  0.47000000000E+01 0. -1.
<mgrwt>
<rscale>  0 0.28369015E+03</rscale>
<asrwt>0</asrwt>
<pdfrwt beam="1">  1       21 0.93357878E-02 0.28369015E+03</pdfrwt>
<pdfrwt beam="2">  1       21 0.51009473E-01 0.28369015E+03</pdfrwt>
<totfact> 0.32770279E+05</totfact>
</mgrwt>
</event>
<event>
 8    1  0.9974463E-006  0.2708258E+03  0.7546771E-02  0.1100808E+00
         21   -1    0    0  504  503  0.00000000000E+00  0.00000000000E+00  0.12841691955E+03  0.12841691955E+03  0.00000000000E+00 0. -1.
         21   -1    0    0  503  504 -0.00000000000E+00 -0.00000000000E+00 -0.14279005400E+03  0.14279005400E+03  0.00000000000E+00 0. -1.
         25    2    1    2    0    0  0.47838708105E+02  0.44221523280E+01 -0.27265118062E+02  0.13667011784E+03  0.12500894777E+03 0.  0.
         25    2    1    2    0    0 -0.47838708105E+02 -0.44221523280E+01  0.12891983609E+02  0.13453685572E+03  0.12500345947E+03 0.  0.
          5    1    3    3  501    0 -0.10720860755E+02 -0.47645784969E+02 -0.31076765550E+02  0.58076785704E+02  0.47000000000E+01 0.  1.
         -5    1    3    3    0  501  0.58559568859E+02  0.52067937297E+02  0.38116474884E+01  0.78593332134E+02  0.47000000000E+01 0.  1.
          5    1    4    4  502    0 -0.64906115174E+02  0.29050839873E+01  0.56929651695E+02  0.86511956064E+02  0.47000000000E+01 0.  1.
         -5    1    4    4    0  502  0.17067407069E+02 -0.73272363153E+01 -0.44037668086E+02  0.48024899651E+02  0.47000000000E+01 0.  1.
<mgrwt>
<rscale>  0 0.27082584E+03</rscale>
<asrwt>0</asrwt>
<pdfrwt beam="1">  1       21 0.19756449E-01 0.27082584E+03</pdfrwt>
<pdfrwt beam="2">  1       21 0.21967700E-01 0.27082584E+03</pdfrwt>
<totfact> 0.45007720E+05</totfact>
</mgrwt>
</event>
<event>
 8    1  0.9974463E-006  0.2816464E+03  0.7546771E-02  0.1094793E+00
         21   -1    0    0  504  503  0.00000000000E+00  0.00000000000E+00  0.54665990375E+02  0.54665990375E+02  0.00000000000E+00 0.  1.
         21   -1    0    0  503  504 -0.00000000000E+00 -0.00000000000E+00 -0.36276987508E+03  0.36276987508E+03  0.00000000000E+00 0.  1.
         25    2    1    2    0    0  0.85510408882E+01  0.64181012395E+02 -0.14853683200E+03  0.20464692947E+03  0.12499941051E+03 0.  0.
         25    2    1    2    0    0 -0.85510408882E+01 -0.64181012395E+02 -0.15956705271E+03  0.21278893599E+03  0.12500065726E+03 0.  0.
          5    1    3    3  501    0 -0.53328122284E+02  0.24521225945E+02 -0.10124297094E+03  0.11712134013E+03  0.47000000000E+01 0. -1.
         -5    1    3    3    0  501  0.61879163172E+02  0.39659786450E+02 -0.47293861059E+02  0.87525589344E+02  0.47000000000E+01 0. -1.
          5    1    4    4  502    0 -0.61055481087E+02 -0.17044928069E+02 -0.44013511157E+02  0.77314814285E+02  0.47000000000E+01 0. -1.
         -5    1    4    4    0  502  0.52504440198E+02 -0.47136084326E+02 -0.11555354155E+03  0.13547412170E+03  0.47000000000E+01 0. -1.
<mgrwt>
<rscale>  0 0.28164641E+03</rscale>
<asrwt>0</asrwt>
<pdfrwt beam="1">  1       21 0.84101525E-02 0.28164641E+03</pdfrwt>
<pdfrwt beam="2">  1       21 0.55810749E-01 0.28164641E+03</pdfrwt>
<totfact> 0.32565142E+05</totfact>
</mgrwt>
</event>
<event>
 8    1  0.9974463E-006  0.5395271E+03  0.7546771E-02  0.1003947E+00
         21   -1    0    0  504  503  0.00000000000E+00  0.00000000000E+00  0.47489398168E+03  0.47489398168E+03  0.00000000000E+00 0. -1.
         21   -1    0    0  503  504 -0.00000000000E+00 -0.00000000000E+00 -0.15323918871E+03  0.15323918871E+03  0.00000000000E+00 0. -1.
         25    2    1    2    0    0  0.23613248578E+03 -0.19666240099E+02  0.19766492396E+03  0.33292760956E+03  0.12499623676E+03 0.  0.
         25    2    1    2    0    0 -0.23613248578E+03  0.19666240099E+02  0.12398986901E+03  0.29520556083E+03  0.12501009434E+03 0.  0.
          5    1    3    3  501    0  0.52860462966E+02 -0.48489428695E+02  0.16874912932E+02  0.73839731356E+02  0.47000000000E+01 0.  1.
         -5    1    3    3    0  501  0.18327202281E+03  0.28823188596E+02  0.18079001102E+03  0.25908787820E+03  0.47000000000E+01 0.  1.
          5    1    4    4  502    0 -0.13469266970E+03  0.72539944554E+02  0.78467541958E+02  0.17199826734E+03  0.47000000000E+01 0.  1.
         -5    1    4    4    0  502 -0.10143981608E+03 -0.52873704455E+02  0.45522327049E+02  0.12320729349E+03  0.47000000000E+01 0.  1.
<mgrwt>
<rscale>  0 0.53952708E+03</rscale>
<asrwt>0</asrwt>
<pdfrwt beam="1">  1       21 0.73060612E-01 0.53952708E+03</pdfrwt>
<pdfrwt beam="2">  1       21 0.23575260E-01 0.53952708E+03</pdfrwt>
<totfact> 0.25406708E+04</totfact>
</mgrwt>
</event>
<event>
 8    1  0.9974463E-006  0.3238333E+03  0.7546771E-02  0.1073899E+00
         21   -1    0    0  504  503  0.00000000000E+00  0.00000000000E+00  0.34709256392E+02  0.34709256392E+02  0.00000000000E+00 0. -1.
         21   -1    0    0  503  504 -0.00000000000E+00 -0.00000000000E+00 -0.75533174661E+03  0.75533174661E+03  0.00000000000E+00 0. -1.
         25    2    1    2    0    0  0.28547285418E+02  0.30162952840E+02 -0.59006259532E+03  0.60458458896E+03  0.12499563025E+03 0.  0.
         25    2    1    2    0    0 -0.28547285418E+02 -0.30162952840E+02 -0.13055989489E+03  0.18545641404E+03  0.12499377634E+03 0.  0.
          5    1    3    3  501    0 -0.99821372837E+01  0.48714565287E+01 -0.52264202669E+03  0.52278117048E+03  0.47000000000E+01 0. -1.
         -5    1    3    3    0  501  0.38529422702E+02  0.25291496312E+02 -0.67420568633E+02  0.81803418475E+02  0.47000000000E+01 0. -1.
          5    1    4    4  502    0 -0.26233210225E+02  0.38666400094E+02 -0.98962941245E+02  0.10954006370E+03  0.47000000000E+01 0. -1.
         -5    1    4    4    0  502 -0.23140751932E+01 -0.68829352934E+02 -0.31596953650E+02  0.75916350342E+02  0.47000000000E+01 0. -1.
<mgrwt>
<rscale>  0 0.32383331E+03</rscale>
<asrwt>0</asrwt>
<pdfrwt beam="1">  1       21 0.53398856E-02 0.32383331E+03</pdfrwt>
<pdfrwt beam="2">  1       21 0.11620488E+00 0.32383331E+03</pdfrwt>
<totfact> 0.13156911E+05</totfact>
</mgrwt>
</event>
<event>
 8    1  0.9974463E-006  0.3346436E+03  0.7546771E-02  0.1069101E+00
         21   -1    0    0  504  503  0.00000000000E+00  0.00000000000E+00  0.25052760284E+03  0.25052760284E+03  0.00000000000E+00 0. -1.
         21   -1    0    0  503  504 -0.00000000000E+00 -0.00000000000E+00 -0.11175048786E+03  0.11175048786E+03  0.00000000000E+00 0. -1.
         25    2    1    2    0    0 -0.40375239434E+01  0.61932729193E+02  0.16931392449E+03  0.21941894156E+03  0.12500200937E+03 0.  0.
         25    2    1    2    0    0  0.40375239434E+01 -0.61932729193E+02 -0.30536809505E+02  0.14285914914E+03  0.12499710082E+03 0.  0.
          5    1    3    3  501    0 -0.28981949458E+02  0.82500477419E+02  0.16455386680E+03  0.18640372112E+03  0.47000000000E+01 0.  1.
         -5    1    3    3    0  501  0.24944425514E+02 -0.20567748226E+02  0.47600576822E+01  0.33015220437E+02  0.47000000000E+01 0.  1.
          5    1    4    4  502    0  0.30583725107E+02 -0.53126497975E+02  0.35497147153E+02  0.70992439629E+02  0.47000000000E+01 0. -1.
         -5    1    4    4    0  502 -0.26546201164E+02 -0.88062312177E+01 -0.66033956658E+02  0.71866709514E+02  0.47000000000E+01 0. -1.
<mgrwt>
<rscale>  0 0.33464358E+03</rscale>
<asrwt>0</asrwt>
<pdfrwt beam="1">  1       21 0.38542708E-01 0.33464358E+03</pdfrwt>
<pdfrwt beam="2">  1       21 0.17192383E-01 0.33464358E+03</pdfrwt>
<totfact> 0.19119495E+05</totfact>
</mgrwt>
</event>
<event>
 8    1  0.9974463E-006  0.2628591E+03  0.7546771E-02  0.1105438E+00
         21   -1    0    0  504  503  0.00000000000E+00  0.00000000000E+00  0.67652704246E+02  0.67652704246E+02  0.00000000000E+00 0.  1.
         21   -1    0    0  503  504 -0.00000000000E+00 -0.00000000000E+00 -0.25532941601E+03  0.25532941601E+03  0.00000000000E+00 0.  1.
         25    2    1    2    0    0 -0.88937610449E+01  0.11194479109E+02 -0.14052674675E+03  0.18862019806E+03  0.12500158885E+03 0.  0.
         25    2    1    2    0    0  0.88937610449E+01 -0.11194479109E+02 -0.47149965018E+02  0.13436192220E+03  0.12500236633E+03 0.  0.
          5    1    3    3  501    0  0.57279629699E+02  0.11094760107E+02 -0.54432210468E+02  0.79931253066E+02  0.47000000000E+01 0. -1.
         -5    1    3    3    0  501 -0.66173390744E+02  0.99719002546E-01 -0.86094536281E+02  0.10868894499E+03  0.47000000000E+01 0. -1.
          5    1    4    4  502    0 -0.44348787069E+02 -0.40219769288E+02 -0.47954585264E+01  0.60245590533E+02  0.47000000000E+01 0. -1.
         -5    1    4    4    0  502  0.53242548114E+02  0.29025290179E+02 -0.42354506492E+02  0.74116331668E+02  0.47000000000E+01 0. -1.
<mgrwt>
<rscale>  0 0.26285909E+03</rscale>
<asrwt>0</asrwt>
<pdfrwt beam="1">  1       21 0.10408109E-01 0.26285909E+03</pdfrwt>
<pdfrwt beam="2">  1       21 0.39281448E-01 0.26285909E+03</pdfrwt>
<totfact> 0.46568062E+05</totfact>
</mgrwt>
</event>
<event>
 8    1  0.9974463E-006  0.3220009E+03  0.7546771E-02  0.1074732E+00
         21   -1    0    0  504  503  0.00000000000E+00  0.00000000000E+00  0.62550375439E+02  0.62550375439E+02  0.00000000000E+00 0.  1.
         21   -1    0    0  503  504 -0.00000000000E+00 -0.00000000000E+00 -0.41440431010E+03  0.41440431010E+03  0.00000000000E+00 0.  1.
         25    2    1    2    0    0  0.98827657628E+01  0.75070283980E+02 -0.27597933456E+03  0.31228640714E+03  0.12499996155E+03 0.  0.
         25    2    1    2    0    0 -0.98827657628E+01 -0.75070283980E+02 -0.75874600102E+02  0.16466827839E+03  0.12500188147E+03 0.  0.
          5    1    3    3  501    0  0.44536213585E+02  0.53305480706E+02 -0.25820183457E+03  0.26742330857E+03  0.47000000000E+01 0. -1.
         -5    1    3    3    0  501 -0.34653447822E+02  0.21764803274E+02 -0.17777499989E+02  0.44863098571E+02  0.47000000000E+01 0. -1.
          5    1    4    4  502    0  0.83029437017E+01 -0.10331896811E+03 -0.30759148168E+02  0.10822182424E+03  0.47000000000E+01 0. -1.
         -5    1    4    4    0  502 -0.18185709464E+02  0.28248684127E+02 -0.45115451934E+02  0.56446454157E+02  0.47000000000E+01 0. -1.
<mgrwt>
<rscale>  0 0.32200090E+03</rscale>
<asrwt>0</asrwt>
<pdfrwt beam="1">  1       21 0.96231346E-02 0.32200090E+03</pdfrwt>
<pdfrwt beam="2">  1       21 0.63754509E-01 0.32200090E+03</pdfrwt>
<totfact> 0.19055299E+05</totfact>
</mgrwt>
</event>
<event>
 8    1  0.9974463E-006  0.2791407E+03  0.7546771E-02  0.1096159E+00
         21   -1    0    0  504  503  0.00000000000E+00  0.00000000000E+00  0.63076239137E+03  0.63076239137E+03  0.00000000000E+00 0.  1.
         21   -1    0    0  503  504 -0.00000000000E+00 -0.00000000000E+00 -0.30883078292E+02  0.30883078292E+02  0.00000000000E+00 0.  1.
         25    2    1    2    0    0 -0.10314708896E+02 -0.60284180759E+02  0.32518003630E+03  0.35370549770E+03  0.12499978970E+03 0.  0.
         25    2    1    2    0    0  0.10314708896E+02  0.60284180759E+02  0.27469927678E+03  0.30793997196E+03  0.12500703180E+03 0.  0.
          5    1    3    3  501    0 -0.65668683857E+02 -0.35196422434E+02  0.13868550597E+03  0.15750213890E+03  0.47000000000E+01 0.  1.
         -5    1    3    3    0  501  0.55353974960E+02 -0.25087758324E+02  0.18649453034E+03  0.19620335881E+03  0.47000000000E+01 0.  1.
          5    1    4    4  502    0 -0.14723439509E+02 -0.40249999864E+01 -0.73150881087E+01  0.17566468339E+02  0.47000000000E+01 0.  1.
         -5    1    4    4    0  502  0.25038148406E+02  0.64309180745E+02  0.28201436489E+03  0.29037350362E+03  0.47000000000E+01 0.  1.
<mgrwt>
<rscale>  0 0.27914071E+03</rscale>
<asrwt>0</asrwt>
<pdfrwt beam="1">  1       21 0.97040358E-01 0.27914071E+03</pdfrwt>
<pdfrwt beam="2">  1       21 0.47512433E-02 0.27914071E+03</pdfrwt>
<totfact> 0.25212009E+05</totfact>
</mgrwt>
</event>
<event>
 8    1  0.9974463E-006  0.3943016E+03  0.7546771E-02  0.1045771E+00
         21   -1    0    0  504  503  0.00000000000E+00  0.00000000000E+00  0.15969298177E+03  0.15969298177E+03  0.00000000000E+00 0.  1.
         21   -1    0    0  503  504 -0.00000000000E+00 -0.00000000000E+00 -0.24339483478E+03  0.24339483478E+03  0.00000000000E+00 0.  1.
         25    2    1    2    0    0  0.10429163004E+03 -0.11105232583E+03 -0.47662034532E+02  0.20274892571E+03  0.12500437660E+03 0.  0.
         25    2    1    2    0    0 -0.10429163004E+03  0.11105232583E+03 -0.36039818480E+02  0.20033889084E+03  0.12500975761E+03 0.  0.
          5    1    3    3  501    0  0.48644208771E+02 -0.45075527220E+02 -0.85570744221E+02  0.10836283711E+03  0.47000000000E+01 0. -1.
         -5    1    3    3    0  501  0.55647421269E+02 -0.65976798615E+02  0.37908709688E+02  0.94386088591E+02  0.47000000000E+01 0. -1.
          5    1    4    4  502    0 -0.77748083557E+02  0.13010123924E+03 -0.22729246094E+00  0.15163521560E+03  0.47000000000E+01 0. -1.
         -5    1    4    4    0  502 -0.26543546482E+02 -0.19048913409E+02 -0.35812526019E+02  0.48703675239E+02  0.47000000000E+01 0. -1.
<mgrwt>
<rscale>  0 0.39430165E+03</rscale>
<asrwt>0</asrwt>
<pdfrwt beam="1">  1       21 0.24568151E-01 0.39430165E+03</pdfrwt>
<pdfrwt beam="2">  1       21 0.37445359E-01 0.39430165E+03</pdfrwt>
<totfact> 0.10163843E+05</totfact>
</mgrwt>
</event>
<event>
 8    1  0.9974463E-006  0.2796281E+03  0.7546771E-02  0.1095892E+00
         21   -1    0    0  504  503  0.00000000000E+00  0.00000000000E+00  0.77492732539E+03  0.77492732539E+03  0.00000000000E+00 0.  1.
         21   -1    0    0  503  504 -0.00000000000E+00 -0.00000000000E+00 -0.25225547726E+02  0.25225547726E+02  0.00000000000E+00 0.  1.
         25    2    1    2    0    0 -0.91081273787E+01  0.48285199252E+02  0.26372735800E+03  0.29595885413E+03  0.12500042211E+03 0.  0.
         25    2    1    2    0    0  0.91081273787E+01 -0.48285199252E+02  0.48597441966E+03  0.50419401898E+03  0.12500421499E+03 0.  0.
          5    1    3    3  501    0  0.17473948811E+02 -0.10226049528E+02  0.21283475911E+03  0.21384722505E+03  0.47000000000E+01 0.  1.
         -5    1    3    3    0  501 -0.26582076190E+02  0.58511248780E+02  0.50892598893E+02  0.82111629082E+02  0.47000000000E+01 0.  1.
          5    1    4    4  502    0 -0.52492859187E+02 -0.69675652327E+01  0.28502814328E+03  0.28994340774E+03  0.47000000000E+01 0.  1.
         -5    1    4    4    0  502  0.61600986566E+02 -0.41317634019E+02  0.20094627638E+03  0.21425061124E+03  0.47000000000E+01 0.  1.
<mgrwt>
<rscale>  0 0.27962808E+03</rscale>
<asrwt>0</asrwt>
<pdfrwt beam="1">  1       21 0.11921957E+00 0.27962808E+03</pdfrwt>
<pdfrwt beam="2">  1       21 0.38808541E-02 0.27962808E+03</pdfrwt>
<totfact> 0.21515953E+05</totfact>
</mgrwt>
</event>
<event>
 8    1  0.9974463E-006  0.2963750E+03  0.7546771E-02  0.1087067E+00
         21   -1    0    0  504  503  0.00000000000E+00  0.00000000000E+00  0.15804542219E+03  0.15804542219E+03  0.00000000000E+00 0. -1.
         21   -1    0    0  503  504 -0.00000000000E+00 -0.00000000000E+00 -0.13894449313E+03  0.13894449313E+03  0.00000000000E+00 0. -1.
         25    2    1    2    0    0  0.33883669551E+02 -0.63691470518E+02 -0.24057793510E+02  0.14635353827E+03  0.12504348946E+03 0.  0.
         25    2    1    2    0    0 -0.33883669551E+02  0.63691470518E+02  0.43158722570E+02  0.15063637706E+03  0.12499574505E+03 0.  0.
          5    1    3    3  501    0  0.34307951128E+02  0.17394617050E+02  0.29809888522E+02  0.48890977354E+02  0.47000000000E+01 0.  1.
         -5    1    3    3    0  501 -0.42428157756E+00 -0.81086087568E+02 -0.53867682032E+02  0.97462560912E+02  0.47000000000E+01 0.  1.
          5    1    4    4  502    0 -0.23474159490E+02  0.10085956497E+03  0.41672738564E+02  0.11172463985E+03  0.47000000000E+01 0. -1.
         -5    1    4    4    0  502 -0.10409510061E+02 -0.37168094450E+02  0.14859840058E+01  0.38911737216E+02  0.47000000000E+01 0. -1.
<mgrwt>
<rscale>  0 0.29637504E+03</rscale>
<asrwt>0</asrwt>
<pdfrwt beam="1">  1       21 0.24314680E-01 0.29637504E+03</pdfrwt>
<pdfrwt beam="2">  1       21 0.21376076E-01 0.29637504E+03</pdfrwt>
<totfact> 0.31793496E+05</totfact>
</mgrwt>
</event>
<event>
 8    1  0.9974463E-006  0.3181018E+03  0.7546771E-02  0.1076526E+00
         21   -1    0    0  504  503  0.00000000000E+00  0.00000000000E+00  0.80020769480E+02  0.80020769480E+02  0.00000000000E+00 0.  1.
         21   -1    0    0  503  504 -0.00000000000E+00 -0.00000000000E+00 -0.31613270136E+03  0.31613270136E+03  0.00000000000E+00 0.  1.
         25    2    1    2    0    0  0.32968252251E+02 -0.91655632980E+02 -0.13500099782E+03  0.20817485570E+03  0.12499536159E+03 0.  0.
         25    2    1    2    0    0 -0.32968252251E+02  0.91655632980E+02 -0.10111093406E+03  0.18797861514E+03  0.12499951220E+03 0.  0.
          5    1    3    3  501    0 -0.42391761817E+02 -0.12452802858E+02 -0.63342766932E+02  0.77372668893E+02  0.47000000000E+01 0.  1.
         -5    1    3    3    0  501  0.75360014068E+02 -0.79202830122E+02 -0.71658230890E+02  0.13080218681E+03  0.47000000000E+01 0.  1.
          5    1    4    4  502    0 -0.68183464965E+02  0.13316200786E+02 -0.62977760615E+02  0.93886071545E+02  0.47000000000E+01 0. -1.
         -5    1    4    4    0  502  0.35215212714E+02  0.78339432193E+02 -0.38133173440E+02  0.94092543591E+02  0.47000000000E+01 0. -1.
<mgrwt>
<rscale>  0 0.31810176E+03</rscale>
<asrwt>0</asrwt>
<pdfrwt beam="1">  1       21 0.12310888E-01 0.31810176E+03</pdfrwt>
<pdfrwt beam="2">  1       21 0.48635800E-01 0.31810176E+03</pdfrwt>
<totfact> 0.21909233E+05</totfact>
</mgrwt>
</event>
<event>
 8    1  0.9974463E-006  0.3891778E+03  0.7546771E-02  0.1047593E+00
         21   -1    0    0  504  503  0.00000000000E+00  0.00000000000E+00  0.11983884979E+03  0.11983884979E+03  0.00000000000E+00 0.  1.
         21   -1    0    0  503  504 -0.00000000000E+00 -0.00000000000E+00 -0.31596458246E+03  0.31596458246E+03  0.00000000000E+00 0.  1.
         25    2    1    2    0    0  0.79319947593E+02 -0.10214698948E+02  0.42887585394E+02  0.15447168566E+03  0.12500465003E+03 0.  0.
         25    2    1    2    0    0 -0.79319947593E+02  0.10214698948E+02 -0.23901331806E+03  0.28133174659E+03  0.12499676504E+03 0.  0.
          5    1    3    3  501    0  0.36478655140E+02 -0.33285332051E+02  0.79285475007E+02  0.93524767617E+02  0.47000000000E+01 0.  1.
         -5    1    3    3    0  501  0.42841292452E+02  0.23070633103E+02 -0.36397889614E+02  0.60946918044E+02  0.47000000000E+01 0.  1.
          5    1    4    4  502    0  0.17871671257E+02 -0.26391481587E+02 -0.11539588843E+03  0.11980904807E+03  0.47000000000E+01 0.  1.
         -5    1    4    4    0  502 -0.97191618850E+02  0.36606180535E+02 -0.12361742963E+03  0.16152269852E+03  0.47000000000E+01 0.  1.
<mgrwt>
<rscale>  0 0.38917776E+03</rscale>
<asrwt>0</asrwt>
<pdfrwt beam="1">  1       21 0.18436746E-01 0.38917776E+03</pdfrwt>
<pdfrwt beam="2">  1       21 0.48609935E-01 0.38917776E+03</pdfrwt>
<totfact> 0.10249493E+05</totfact>
</mgrwt>
</event>
<event>
 8    1  0.9974463E-006  0.3297870E+03  0.7546771E-02  0.1071231E+00
         21   -1    0    0  504  503  0.00000000000E+00  0.00000000000E+00  0.66446005922E+03  0.66446005922E+03  0.00000000000E+00 0. -1.
         21   -1    0    0  503  504 -0.00000000000E+00 -0.00000000000E+00 -0.40920244631E+02  0.40920244631E+02  0.00000000000E+00 0. -1.
         25    2    1    2    0    0  0.38885872667E+02 -0.66300578925E+02  0.47270061766E+03  0.49495435800E+03  0.12500425877E+03 0.  0.
         25    2    1    2    0    0 -0.38885872667E+02  0.66300578925E+02  0.15083919693E+03  0.21042594585E+03  0.12497494748E+03 0.  0.
          5    1    3    3  501    0  0.39576413799E+02 -0.78061332275E+02  0.16364412167E+03  0.18563769198E+03  0.47000000000E+01 0.  1.
         -5    1    3    3    0  501 -0.69054113274E+00  0.11760753351E+02  0.30905649599E+03  0.30931666602E+03  0.47000000000E+01 0.  1.
          5    1    4    4  502    0 -0.14710452006E+02  0.96259242167E+02  0.13918264401E+03  0.16992980167E+03  0.47000000000E+01 0. -1.
         -5    1    4    4    0  502 -0.24175420661E+02 -0.29958663243E+02  0.11656552912E+02  0.40496144177E+02  0.47000000000E+01 0. -1.
<mgrwt>
<rscale>  0 0.32978701E+03</rscale>
<asrwt>0</asrwt>
<pdfrwt beam="1">  1       21 0.10222462E+00 0.32978701E+03</pdfrwt>
<pdfrwt beam="2">  1       21 0.62954227E-02 0.32978701E+03</pdfrwt>
<totfact> 0.13539669E+05</totfact>
</mgrwt>
</event>
<event>
 8    1  0.9974463E-006  0.3101409E+03  0.7546771E-02  0.1080278E+00
         21   -1    0    0  504  503  0.00000000000E+00  0.00000000000E+00  0.18748698999E+04  0.18748698999E+04  0.00000000000E+00 0. -1.
         21   -1    0    0  503  504 -0.00000000000E+00 -0.00000000000E+00 -0.12825873123E+02  0.12825873123E+02  0.00000000000E+00 0. -1.
         25    2    1    2    0    0  0.85902473794E+02 -0.25045353104E+01  0.73502286633E+03  0.75051177215E+03  0.12499519356E+03 0.  0.
         25    2    1    2    0    0 -0.85902473794E+02  0.25045353104E+01  0.11270211605E+04  0.11371840009E+04  0.12500099214E+03 0.  0.
          5    1    3    3  501    0  0.10861391661E+03  0.28979563503E+02  0.53515236140E+03  0.54685184273E+03  0.47000000000E+01 0. -1.
         -5    1    3    3    0  501 -0.22711442817E+02 -0.31484098814E+02  0.19987050493E+03  0.20365992943E+03  0.47000000000E+01 0. -1.
          5    1    4    4  502    0 -0.88474850653E+02  0.45442481664E+02  0.58277894575E+03  0.59122432963E+03  0.47000000000E+01 0. -1.
         -5    1    4    4    0  502  0.25723768587E+01 -0.42937946354E+02  0.54424221472E+03  0.54595967127E+03  0.47000000000E+01 0. -1.
<mgrwt>
<rscale>  0 0.31014089E+03</rscale>
<asrwt>0</asrwt>
<pdfrwt beam="1">  1       21 0.28844131E+00 0.31014089E+03</pdfrwt>
<pdfrwt beam="2">  1       21 0.19732127E-02 0.31014089E+03</pdfrwt>
<totfact> 0.46146363E+04</totfact>
</mgrwt>
</event>
<event>
 8    1  0.9974463E-006  0.2550286E+03  0.7546771E-02  0.1110167E+00
         21   -1    0    0  504  503  0.00000000000E+00  0.00000000000E+00  0.12577016790E+03  0.12577016790E+03  0.00000000000E+00 0. -1.
         21   -1    0    0  503  504 -0.00000000000E+00 -0.00000000000E+00 -0.12928265417E+03  0.12928265417E+03  0.00000000000E+00 0. -1.
         25    2    1    2    0    0 -0.82591905502E+01  0.19445731309E+02 -0.15454020776E+02  0.12771298769E+03  0.12500171907E+03 0.  0.
         25    2    1    2    0    0  0.82591905502E+01 -0.19445731309E+02  0.11941534503E+02  0.12733983438E+03  0.12500592977E+03 0.  0.
          5    1    3    3  501    0  0.25274481725E+02 -0.44799908438E+02  0.59701002299E+01  0.51995800977E+02  0.47000000000E+01 0. -1.
         -5    1    3    3    0  501 -0.33533672275E+02  0.64245639747E+02 -0.21424121006E+02  0.75717186712E+02  0.47000000000E+01 0. -1.
          5    1    4    4  502    0  0.72741621844E+01 -0.30312412970E+02  0.65386919370E+02  0.72589910044E+02  0.47000000000E+01 0. -1.
         -5    1    4    4    0  502  0.98502836579E+00  0.10866681660E+02 -0.53445384866E+02  0.54749924335E+02  0.47000000000E+01 0. -1.
<mgrwt>
<rscale>  0 0.25502863E+03</rscale>
<asrwt>0</asrwt>
<pdfrwt beam="1">  1       21 0.19349257E-01 0.25502863E+03</pdfrwt>
<pdfrwt beam="2">  1       21 0.19889639E-01 0.25502863E+03</pdfrwt>
<totfact> 0.56620693E+05</totfact>
</mgrwt>
</event>
<event>
 8    1  0.9974463E-006  0.2613749E+03  0.7546771E-02  0.1106320E+00
         21   -1    0    0  504  503  0.00000000000E+00  0.00000000000E+00  0.15268770041E+02  0.15268770041E+02  0.00000000000E+00 0.  1.
         21   -1    0    0  503  504 -0.00000000000E+00 -0.00000000000E+00 -0.11185717554E+04  0.11185717554E+04  0.00000000000E+00 0.  1.
         25    2    1    2    0    0 -0.14666352961E+01 -0.27591630368E+02 -0.43750798674E+03  0.45585296559E+03  0.12500095473E+03 0.  0.
         25    2    1    2    0    0  0.14666352961E+01  0.27591630368E+02 -0.66579499862E+03  0.67798755986E+03  0.12498280702E+03 0.  0.
          5    1    3    3  501    0  0.52965779191E+02 -0.23004924393E+02 -0.11556446283E+03  0.12927426419E+03  0.47000000000E+01 0. -1.
         -5    1    3    3    0  501 -0.54432414487E+02 -0.45867059753E+01 -0.32194352391E+03  0.32657870140E+03  0.47000000000E+01 0. -1.
          5    1    4    4  502    0  0.36239910795E+02 -0.24983823067E+02 -0.47361704377E+03  0.47568131842E+03  0.47000000000E+01 0. -1.
         -5    1    4    4    0  502 -0.34773275499E+02  0.52575453435E+02 -0.19217795485E+03  0.20230624143E+03  0.47000000000E+01 0. -1.
<mgrwt>
<rscale>  0 0.26137494E+03</rscale>
<asrwt>0</asrwt>
<pdfrwt beam="1">  1       21 0.23490429E-02 0.26137494E+03</pdfrwt>
<pdfrwt beam="2">  1       21 0.17208786E+00 0.26137494E+03</pdfrwt>
<totfact> 0.18984259E+05</totfact>
</mgrwt>
</event>
<event>
 8    1  0.9974463E-006  0.2767411E+03  0.7546771E-02  0.1097482E+00
         21   -1    0    0  504  503  0.00000000000E+00  0.00000000000E+00  0.38797343053E+03  0.38797343053E+03  0.00000000000E+00 0.  1.
         21   -1    0    0  503  504 -0.00000000000E+00 -0.00000000000E+00 -0.49349781998E+02  0.49349781998E+02  0.00000000000E+00 0.  1.
         25    2    1    2    0    0  0.34906696086E+02  0.25931053219E+02  0.10549627891E+03  0.16925154778E+03  0.12500289840E+03 0.  0.
         25    2    1    2    0    0 -0.34906696086E+02 -0.25931053219E+02  0.23312736962E+03  0.26807166476E+03  0.12499259988E+03 0.  0.
          5    1    3    3  501    0 -0.64772332314E+01 -0.45960646167E+02  0.22427845399E+02  0.51763247537E+02  0.47000000000E+01 0.  1.
         -5    1    3    3    0  501  0.41383929317E+02  0.71891699386E+02  0.83068433514E+02  0.11748830024E+03  0.47000000000E+01 0.  1.
          5    1    4    4  502    0  0.41966215727E+02  0.14396459686E+02  0.65658048224E+02  0.79381928740E+02  0.47000000000E+01 0. -1.
         -5    1    4    4    0  502 -0.76872911813E+02 -0.40327512905E+02  0.16746932140E+03  0.18868973602E+03  0.47000000000E+01 0. -1.
<mgrwt>
<rscale>  0 0.27674106E+03</rscale>
<asrwt>0</asrwt>
<pdfrwt beam="1">  1       21 0.59688218E-01 0.27674106E+03</pdfrwt>
<pdfrwt beam="2">  1       21 0.75922744E-02 0.27674106E+03</pdfrwt>
<totfact> 0.33757003E+05</totfact>
</mgrwt>
</event>
<event>
 8    1  0.9974463E-006  0.2867915E+03  0.7546771E-02  0.1092036E+00
         21   -1    0    0  504  503  0.00000000000E+00  0.00000000000E+00  0.14102551182E+03  0.14102551182E+03  0.00000000000E+00 0.  1.
         21   -1    0    0  503  504 -0.00000000000E+00 -0.00000000000E+00 -0.14580582500E+03  0.14580582500E+03  0.00000000000E+00 0.  1.
         25    2    1    2    0    0  0.50795798529E+01 -0.13672226999E+02  0.66368231111E+02  0.14226653340E+03  0.12498916954E+03 0.  0.
         25    2    1    2    0    0 -0.50795798529E+01  0.13672226999E+02 -0.71148544291E+02  0.14456480343E+03  0.12499654040E+03 0.  0.
          5    1    3    3  501    0  0.45493207751E+02 -0.17409018351E+02 -0.15027450535E+02  0.51191992938E+02  0.47000000000E+01 0.  1.
         -5    1    3    3    0  501 -0.40413627898E+02  0.37367913517E+01  0.81395681646E+02  0.91074540460E+02  0.47000000000E+01 0.  1.
          5    1    4    4  502    0  0.50424832248E+01  0.68028856575E+02 -0.51854804874E+02  0.85815865389E+02  0.47000000000E+01 0. -1.
         -5    1    4    4    0  502 -0.10122063078E+02 -0.54356629576E+02 -0.19293739417E+02  0.58748938037E+02  0.47000000000E+01 0. -1.
<mgrwt>
<rscale>  0 0.28679150E+03</rscale>
<asrwt>0</asrwt>
<pdfrwt beam="1">  1       21 0.21696233E-01 0.28679150E+03</pdfrwt>
<pdfrwt beam="2">  1       21 0.22431665E-01 0.28679150E+03</pdfrwt>
<totfact> 0.36130965E+05</totfact>
</mgrwt>
</event>
<event>
 8    1  0.9974463E-006  0.6078594E+03  0.7546771E-02  0.9889233E-01
         21   -1    0    0  504  503  0.00000000000E+00  0.00000000000E+00  0.98589588514E+03  0.98589588514E+03  0.00000000000E+00 0. -1.
         21   -1    0    0  503  504 -0.00000000000E+00 -0.00000000000E+00 -0.93694745414E+02  0.93694745414E+02  0.00000000000E+00 0. -1.
         25    2    1    2    0    0  0.20499470955E+03  0.17052972198E+03  0.31266256836E+03  0.42951831549E+03  0.12499953865E+03 0.  0.
         25    2    1    2    0    0 -0.20499470955E+03 -0.17052972198E+03  0.57953857137E+03  0.65007231507E+03  0.12500336832E+03 0.  0.
          5    1    3    3  501    0  0.13063088927E+03  0.10854685734E+03  0.27947651444E+03  0.32707195171E+03  0.47000000000E+01 0.  1.
         -5    1    3    3    0  501  0.74363820282E+02  0.61982864649E+02  0.33186053915E+02  0.10244636378E+03  0.47000000000E+01 0.  1.
          5    1    4    4  502    0 -0.15646434230E+02 -0.77774998863E+02  0.11374068700E+03  0.13875444221E+03  0.47000000000E+01 0. -1.
         -5    1    4    4    0  502 -0.18934827532E+03 -0.92754723122E+02  0.46579788437E+03  0.51131787286E+03  0.47000000000E+01 0. -1.
<mgrwt>
<rscale>  0 0.60785940E+03</rscale>
<asrwt>0</asrwt>
<pdfrwt beam="1">  1       21 0.15167628E+00 0.60785940E+03</pdfrwt>
<pdfrwt beam="2">  1       21 0.14414577E-01 0.60785940E+03</pdfrwt>
<totfact> 0.10358943E+04</totfact>
</mgrwt>
</event>
<event>
 8    1  0.9974463E-006  0.2699517E+03  0.7546771E-02  0.1101307E+00
         21   -1    0    0  504  503  0.00000000000E+00  0.00000000000E+00  0.16004260257E+02  0.16004260257E+02  0.00000000000E+00 0. -1.
         21   -1    0    0  503  504 -0.00000000000E+00 -0.00000000000E+00 -0.11383522255E+04  0.11383522255E+04  0.00000000000E+00 0. -1.
         25    2    1    2    0    0 -0.45816666472E+02 -0.19419306397E+02 -0.51487329206E+03  0.53216145074E+03  0.12500010556E+03 0.  0.
         25    2    1    2    0    0  0.45816666472E+02  0.19419306397E+02 -0.60747467314E+03  0.62219503497E+03  0.12499962661E+03 0.  0.
          5    1    3    3  501    0 -0.76695183070E+02 -0.11929941555E+02 -0.47320053200E+03  0.47954698216E+03  0.47000000000E+01 0. -1.
         -5    1    3    3    0  501  0.30878516599E+02 -0.74893648426E+01 -0.41672760057E+02  0.52614468579E+02  0.47000000000E+01 0. -1.
          5    1    4    4  502    0  0.73557339735E+02  0.20155382187E+02 -0.57116639849E+03  0.57625520946E+03  0.47000000000E+01 0. -1.
         -5    1    4    4    0  502 -0.27740673263E+02 -0.73607578959E+00 -0.36308274647E+02  0.45939825517E+02  0.47000000000E+01 0. -1.
<mgrwt>
<rscale>  0 0.26995174E+03</rscale>
<asrwt>0</asrwt>
<pdfrwt beam="1">  1       21 0.24621939E-02 0.26995174E+03</pdfrwt>
<pdfrwt beam="2">  1       21 0.17513111E+00 0.26995174E+03</pdfrwt>
<totfact> 0.16667692E+05</totfact>
</mgrwt>
</event>
<event>
 8    1  0.9974463E-006  0.3363041E+03  0.7546771E-02  0.1068381E+00
         21   -1    0    0  504  503  0.00000000000E+00  0.00000000000E+00  0.25213456193E+04  0.25213456193E+04  0.00000000000E+00 0.  1.
         21   -1    0    0  503  504 -0.00000000000E+00 -0.00000000000E+00 -0.11214295909E+02  0.11214295909E+02  0.00000000000E+00 0.  1.
         25    2    1    2    0    0 -0.20795710902E+02 -0.10198551197E+03  0.93402479624E+03  0.94808290759E+03  0.12500149370E+03 0.  0.
         25    2    1    2    0    0  0.20795710902E+02  0.10198551197E+03  0.15761065271E+04  0.15844770076E+04  0.12498838548E+03 0.  0.
          5    1    3    3  501    0 -0.42929481216E+02  0.28980930791E+00  0.48870275401E+03  0.49060727280E+03  0.47000000000E+01 0.  1.
         -5    1    3    3    0  501  0.22133770314E+02 -0.10227532127E+03  0.44532204223E+03  0.45747563479E+03  0.47000000000E+01 0.  1.
          5    1    4    4  502    0  0.43556070679E+02 -0.12688603931E+02  0.42705852131E+03  0.42948713903E+03  0.47000000000E+01 0.  1.
         -5    1    4    4    0  502 -0.22760359777E+02  0.11467411590E+03  0.11490480058E+04  0.11549898686E+04  0.47000000000E+01 0.  1.
<mgrwt>
<rscale>  0 0.33630412E+03</rscale>
<asrwt>0</asrwt>
<pdfrwt beam="1">  1       21 0.38789888E+00 0.33630412E+03</pdfrwt>
<pdfrwt beam="2">  1       21 0.17252783E-02 0.33630412E+03</pdfrwt>
<totfact> 0.14216185E+04</totfact>
</mgrwt>
</event>
<event>
 8    1  0.9974463E-006  0.5061726E+03  0.7546771E-02  0.1012180E+00
         21   -1    0    0  504  503  0.00000000000E+00  0.00000000000E+00  0.13608036514E+03  0.13608036514E+03  0.00000000000E+00 0.  1.
         21   -1    0    0  503  504 -0.00000000000E+00 -0.00000000000E+00 -0.47069747590E+03  0.47069747590E+03  0.00000000000E+00 0.  1.
         25    2    1    2    0    0  0.15868416350E+03  0.71710688646E+02 -0.32860397659E+03  0.39233649446E+03  0.12499705934E+03 0.  0.
         25    2    1    2    0    0 -0.15868416350E+03 -0.71710688646E+02 -0.60131341748E+01  0.21444134658E+03  0.12500338686E+03 0.  0.
          5    1    3    3  501    0  0.63141694333E+01 -0.28873692783E+02 -0.30475101661E+02  0.42712769657E+02  0.47000000000E+01 0.  1.
         -5    1    3    3    0  501  0.15236999406E+03  0.10058438143E+03 -0.29812887493E+03  0.34962372480E+03  0.47000000000E+01 0.  1.
          5    1    4    4  502    0 -0.79131809350E+01 -0.18129285396E+01  0.40687499012E+02  0.41754852631E+02  0.47000000000E+01 0.  1.
         -5    1    4    4    0  502 -0.15077098256E+03 -0.69897760106E+02 -0.46700633186E+02  0.17268649394E+03  0.47000000000E+01 0.  1.
<mgrwt>
<rscale>  0 0.50617264E+03</rscale>
<asrwt>0</asrwt>
<pdfrwt beam="1">  1       21 0.20935441E-01 0.50617264E+03</pdfrwt>
<pdfrwt beam="2">  1       21 0.72414996E-01 0.50617264E+03</pdfrwt>
<totfact> 0.32826773E+04</totfact>
</mgrwt>
</event>
<event>
 8    1  0.9974463E-006  0.2848753E+03  0.7546771E-02  0.1093056E+00
         21   -1    0    0  504  503  0.00000000000E+00  0.00000000000E+00  0.21435097054E+02  0.21435097054E+02  0.00000000000E+00 0. -1.
         21   -1    0    0  503  504 -0.00000000000E+00 -0.00000000000E+00 -0.94650785985E+03  0.94650785985E+03  0.00000000000E+00 0. -1.
         25    2    1    2    0    0 -0.45173276850E+02 -0.40301081631E+02 -0.35490818365E+03  0.38111304960E+03  0.12499014213E+03 0.  0.
         25    2    1    2    0    0  0.45173276850E+02  0.40301081631E+02 -0.57016457915E+03  0.58682990731E+03  0.12496755849E+03 0.  0.
          5    1    3    3  501    0 -0.11453361213E+02 -0.75560730424E+02 -0.28903899641E+03  0.29900875390E+03  0.47000000000E+01 0.  1.
         -5    1    3    3    0  501 -0.33719915637E+02  0.35259648793E+02 -0.65869187240E+02  0.82104295693E+02  0.47000000000E+01 0.  1.
          5    1    4    4  502    0  0.33593104777E+02  0.83324738939E+02 -0.44193206199E+03  0.45099617096E+03  0.47000000000E+01 0. -1.
         -5    1    4    4    0  502  0.11580172073E+02 -0.43023657308E+02 -0.12823251716E+03  0.13583373635E+03  0.47000000000E+01 0. -1.
<mgrwt>
<rscale>  0 0.28487533E+03</rscale>
<asrwt>0</asrwt>
<pdfrwt beam="1">  1       21 0.32977073E-02 0.28487533E+03</pdfrwt>
<pdfrwt beam="2">  1       21 0.14561659E+00 0.28487533E+03</pdfrwt>
<totfact> 0.16889802E+05</totfact>
</mgrwt>
</event>
<event>
 8    1  0.9974463E-006  0.2946559E+03  0.7546771E-02  0.1087943E+00
         21   -1    0    0  504  503  0.00000000000E+00  0.00000000000E+00  0.43152357204E+03  0.43152357204E+03  0.00000000000E+00 0. -1.
         21   -1    0    0  503  504 -0.00000000000E+00 -0.00000000000E+00 -0.50299733218E+02  0.50299733218E+02  0.00000000000E+00 0. -1.
         25    2    1    2    0    0 -0.76785002712E+02  0.13590197420E+02  0.19044168369E+03  0.24077767110E+03  0.12500088761E+03 0.  0.
         25    2    1    2    0    0  0.76785002712E+02 -0.13590197420E+02  0.19078215513E+03  0.24104563416E+03  0.12499814769E+03 0.  0.
          5    1    3    3  501    0  0.30622271578E+01 -0.46665269795E+02  0.55278483636E+02  0.72559116542E+02  0.47000000000E+01 0.  1.
         -5    1    3    3    0  501 -0.79847229870E+02  0.60255467215E+02  0.13516320006E+03  0.16821855456E+03  0.47000000000E+01 0.  1.
          5    1    4    4  502    0  0.26913425949E+01  0.47116170022E+01  0.15747960303E+03  0.15764313506E+03  0.47000000000E+01 0.  1.
         -5    1    4    4    0  502  0.74093660117E+02 -0.18301814422E+02  0.33302552099E+02  0.83402499105E+02  0.47000000000E+01 0.  1.
<mgrwt>
<rscale>  0 0.29465587E+03</rscale>
<asrwt>0</asrwt>
<pdfrwt beam="1">  1       21 0.66388239E-01 0.29465587E+03</pdfrwt>
<pdfrwt beam="2">  1       21 0.77384208E-02 0.29465587E+03</pdfrwt>
<totfact> 0.25774944E+05</totfact>
</mgrwt>
</event>
<event>
 8    1  0.9974463E-006  0.2715959E+03  0.7546771E-02  0.1100370E+00
         21   -1    0    0  504  503  0.00000000000E+00  0.00000000000E+00  0.14911184526E+03  0.14911184526E+03  0.00000000000E+00 0. -1.
         21   -1    0    0  503  504 -0.00000000000E+00 -0.00000000000E+00 -0.12367280365E+03  0.12367280365E+03  0.00000000000E+00 0. -1.
         25    2    1    2    0    0  0.41312035060E+02 -0.33329491462E+02  0.12946338903E+02  0.13641651157E+03  0.12499727076E+03 0.  0.
         25    2    1    2    0    0 -0.41312035060E+02  0.33329491462E+02  0.12492702707E+02  0.13636813734E+03  0.12499064773E+03 0.  0.
          5    1    3    3  501    0  0.82613567719E+02 -0.18847336686E+02  0.28815058383E+02  0.89624891972E+02  0.47000000000E+01 0. -1.
         -5    1    3    3    0  501 -0.41301532659E+02 -0.14482154776E+02 -0.15868719480E+02  0.46791619601E+02  0.47000000000E+01 0. -1.
          5    1    4    4  502    0 -0.54815594757E+02  0.71984308268E+02  0.23714270074E+02  0.93653332405E+02  0.47000000000E+01 0. -1.
         -5    1    4    4    0  502  0.13503559697E+02 -0.38654816807E+02 -0.11221567367E+02  0.42714804940E+02  0.47000000000E+01 0. -1.
<mgrwt>
<rscale>  0 0.27159588E+03</rscale>
<asrwt>0</asrwt>
<pdfrwt beam="1">  1       21 0.22940284E-01 0.27159588E+03</pdfrwt>
<pdfrwt beam="2">  1       21 0.19026585E-01 0.27159588E+03</pdfrwt>
<totfact> 0.44473651E+05</totfact>
</mgrwt>
</event>
<event>
 8    1  0.9974463E-006  0.2844713E+03  0.7546771E-02  0.1093272E+00
         21   -1    0    0  504  503  0.00000000000E+00  0.00000000000E+00  0.25805533590E+03  0.25805533590E+03  0.00000000000E+00 0. -1.
         21   -1    0    0  503  504 -0.00000000000E+00 -0.00000000000E+00 -0.78397816359E+02  0.78397816359E+02  0.00000000000E+00 0. -1.
         25    2    1    2    0    0 -0.10968934009E+02  0.33105768850E+02  0.20957654098E+02  0.13145637996E+03  0.12500098848E+03 0.  0.
         25    2    1    2    0    0  0.10968934009E+02 -0.33105768850E+02  0.15869986545E+03  0.20499677230E+03  0.12498687898E+03 0.  0.
          5    1    3    3  501    0 -0.52043270922E+02 -0.10455762086E+02 -0.21962868321E+02  0.57639245259E+02  0.47000000000E+01 0. -1.
         -5    1    3    3    0  501  0.41074336913E+02  0.43561530936E+02  0.42920522419E+02  0.73817134698E+02  0.47000000000E+01 0. -1.
          5    1    4    4  502    0 -0.43915975638E+02 -0.45197594911E+02  0.43457985224E+02  0.76694993199E+02  0.47000000000E+01 0.  1.
         -5    1    4    4    0  502  0.54884909647E+02  0.12091826061E+02  0.11524188022E+03  0.12830177911E+03  0.47000000000E+01 0.  1.
<mgrwt>
<rscale>  0 0.28447126E+03</rscale>
<asrwt>0</asrwt>
<pdfrwt beam="1">  1       21 0.39700821E-01 0.28447126E+03</pdfrwt>
<pdfrwt beam="2">  1       21 0.12061203E-01 0.28447126E+03</pdfrwt>
<totfact> 0.34839893E+05</totfact>
</mgrwt>
</event>
<event>
 8    1  0.9974463E-006  0.2726595E+03  0.7546771E-02  0.1099767E+00
         21   -1    0    0  504  503  0.00000000000E+00  0.00000000000E+00  0.63860527586E+02  0.63860527586E+02  0.00000000000E+00 0.  1.
         21   -1    0    0  503  504 -0.00000000000E+00 -0.00000000000E+00 -0.29103739688E+03  0.29103739688E+03  0.00000000000E+00 0.  1.
         25    2    1    2    0    0  0.30990377703E+02  0.25699148011E+02 -0.16124230575E+03  0.20795093380E+03  0.12499463982E+03 0.  0.
         25    2    1    2    0    0 -0.30990377703E+02 -0.25699148011E+02 -0.65934563540E+02  0.14694699067E+03  0.12500080671E+03 0.  0.
          5    1    3    3  501    0  0.23959081271E+02  0.55687975661E+01 -0.17842008535E+03  0.18016899272E+03  0.47000000000E+01 0.  1.
         -5    1    3    3    0  501  0.70312964321E+01  0.20130350445E+02  0.17177779593E+02  0.27781941082E+02  0.47000000000E+01 0.  1.
          5    1    4    4  502    0  0.31490749655E+01 -0.23202928846E+02  0.33806080139E+02  0.41391226540E+02  0.47000000000E+01 0. -1.
         -5    1    4    4    0  502 -0.34139452668E+02 -0.24962191644E+01 -0.99740643678E+02  0.10555576412E+03  0.47000000000E+01 0. -1.
<mgrwt>
<rscale>  0 0.27265951E+03</rscale>
<asrwt>0</asrwt>
<pdfrwt beam="1">  1       21 0.98246963E-02 0.27265951E+03</pdfrwt>
<pdfrwt beam="2">  1       21 0.44774985E-01 0.27265951E+03</pdfrwt>
<totfact> 0.39389436E+05</totfact>
</mgrwt>
</event>
<event>
 8    1  0.9974463E-006  0.2526329E+03  0.7546771E-02  0.1111652E+00
         21   -1    0    0  504  503  0.00000000000E+00  0.00000000000E+00  0.21079428928E+03  0.21079428928E+03  0.00000000000E+00 0. -1.
         21   -1    0    0  503  504 -0.00000000000E+00 -0.00000000000E+00 -0.75693922346E+02  0.75693922346E+02  0.00000000000E+00 0. -1.
         25    2    1    2    0    0  0.14485529897E+01 -0.12271333147E+02  0.52335605999E+02  0.13606888838E+03  0.12499217099E+03 0.  0.
         25    2    1    2    0    0 -0.14485529897E+01  0.12271333147E+02  0.82764760938E+02  0.15041932324E+03  0.12499313273E+03 0.  0.
          5    1    3    3  501    0 -0.47177727828E+02  0.33490712308E+02  0.31036777528E+02  0.65823532063E+02  0.47000000000E+01 0.  1.
         -5    1    3    3    0  501  0.48626280818E+02 -0.45762045455E+02  0.21298828471E+02  0.70245356321E+02  0.47000000000E+01 0.  1.
          5    1    4    4  502    0 -0.32560382982E+02  0.22688173901E+02  0.10375664268E+03  0.11118661194E+03  0.47000000000E+01 0. -1.
         -5    1    4    4    0  502  0.31111829992E+02 -0.10416840754E+02 -0.20991881745E+02  0.39232711300E+02  0.47000000000E+01 0. -1.
<mgrwt>
<rscale>  0 0.25263291E+03</rscale>
<asrwt>0</asrwt>
<pdfrwt beam="1">  1       21 0.32429890E-01 0.25263291E+03</pdfrwt>
<pdfrwt beam="2">  1       21 0.11645219E-01 0.25263291E+03</pdfrwt>
<totfact> 0.56022560E+05</totfact>
</mgrwt>
</event>
<event>
 8    1  0.9974463E-006  0.3945154E+03  0.7546771E-02  0.1045696E+00
         21   -1    0    0  504  503  0.00000000000E+00  0.00000000000E+00  0.94226227305E+03  0.94226227305E+03  0.00000000000E+00 0. -1.
         21   -1    0    0  503  504 -0.00000000000E+00 -0.00000000000E+00 -0.41294871358E+02  0.41294871358E+02  0.00000000000E+00 0. -1.
         25    2    1    2    0    0  0.12710349540E+02 -0.55358508315E+02  0.97384707195E+02  0.16832909301E+03  0.12499913972E+03 0.  0.
         25    2    1    2    0    0 -0.12710349540E+02  0.55358508315E+02  0.80358269450E+03  0.81522805140E+03  0.12500204583E+03 0.  0.
          5    1    3    3  501    0 -0.24651943619E+02  0.83389353917E+01  0.90186625173E+02  0.93983900365E+02  0.47000000000E+01 0. -1.
         -5    1    3    3    0  501  0.37362293159E+02 -0.63697443706E+02  0.71980820226E+01  0.74345192647E+02  0.47000000000E+01 0. -1.
          5    1    4    4  502    0  0.66994911543E+01 -0.32458470995E+02  0.41490323983E+03  0.41625139512E+03  0.47000000000E+01 0. -1.
         -5    1    4    4    0  502 -0.19409840694E+02  0.87816979310E+02  0.38867945467E+03  0.39897665627E+03  0.47000000000E+01 0. -1.
<mgrwt>
<rscale>  0 0.39451540E+03</rscale>
<asrwt>0</asrwt>
<pdfrwt beam="1">  1       21 0.14496341E+00 0.39451540E+03</pdfrwt>
<pdfrwt beam="2">  1       21 0.63530579E-02 0.39451540E+03</pdfrwt>
<totfact> 0.53988262E+04</totfact>
</mgrwt>
</event>
<event>
 8    1  0.9974463E-006  0.2936326E+03  0.7546771E-02  0.1088468E+00
         21   -1    0    0  504  503  0.00000000000E+00  0.00000000000E+00  0.96279729065E+02  0.96279729065E+02  0.00000000000E+00 0.  1.
         21   -1    0    0  503  504 -0.00000000000E+00 -0.00000000000E+00 -0.22387915226E+03  0.22387915226E+03  0.00000000000E+00 0.  1.
         25    2    1    2    0    0  0.15623640304E+02 -0.71281966870E+02 -0.90604313313E+02  0.17076478078E+03  0.12500500721E+03 0.  0.
         25    2    1    2    0    0 -0.15623640304E+02  0.71281966870E+02 -0.36995109883E+02  0.14939410054E+03  0.12499896873E+03 0.  0.
          5    1    3    3  501    0 -0.19074287503E+02 -0.18844871814E+02 -0.10297261876E+03  0.10651013028E+03  0.47000000000E+01 0. -1.
         -5    1    3    3    0  501  0.34697927807E+02 -0.52437095057E+02  0.12368305447E+02  0.64254650506E+02  0.47000000000E+01 0. -1.
          5    1    4    4  502    0 -0.30940612490E+00 -0.23581498624E+02  0.25201391307E+02  0.34833646570E+02  0.47000000000E+01 0.  1.
         -5    1    4    4    0  502 -0.15314234179E+02  0.94863465494E+02 -0.62196501190E+02  0.11456045397E+03  0.47000000000E+01 0.  1.
<mgrwt>
<rscale>  0 0.29363259E+03</rscale>
<asrwt>0</asrwt>
<pdfrwt beam="1">  1       21 0.14812266E-01 0.29363259E+03</pdfrwt>
<pdfrwt beam="2">  1       21 0.34442947E-01 0.29363259E+03</pdfrwt>
<totfact> 0.31866869E+05</totfact>
</mgrwt>
</event>
<event>
 8    1  0.9974463E-006  0.3408467E+03  0.7546771E-02  0.1066436E+00
         21   -1    0    0  504  503  0.00000000000E+00  0.00000000000E+00  0.59740753671E+03  0.59740753671E+03  0.00000000000E+00 0.  1.
         21   -1    0    0  503  504 -0.00000000000E+00 -0.00000000000E+00 -0.48616916253E+02  0.48616916253E+02  0.00000000000E+00 0.  1.
         25    2    1    2    0    0  0.75982371906E+02 -0.82640223937E+02  0.32845200539E+03  0.36892850163E+03  0.12499916808E+03 0.  0.
         25    2    1    2    0    0 -0.75982371906E+02  0.82640223937E+02  0.22033861507E+03  0.27709595133E+03  0.12502133218E+03 0.  0.
          5    1    3    3  501    0 -0.45937515049E+01 -0.64508478104E+02  0.23655985091E+03  0.24528575042E+03  0.47000000000E+01 0.  1.
         -5    1    3    3    0  501  0.80576123411E+02 -0.18131745833E+02  0.91892154483E+02  0.12364275121E+03  0.47000000000E+01 0.  1.
          5    1    4    4  502    0 -0.41518591506E+02  0.91667135788E+02  0.21908750692E+03  0.24113913600E+03  0.47000000000E+01 0. -1.
         -5    1    4    4    0  502 -0.34463780401E+02 -0.90269118512E+01  0.12511081516E+01  0.35956815330E+02  0.47000000000E+01 0. -1.
<mgrwt>
<rscale>  0 0.34084666E+03</rscale>
<asrwt>0</asrwt>
<pdfrwt beam="1">  1       21 0.91908847E-01 0.34084666E+03</pdfrwt>
<pdfrwt beam="2">  1       21 0.74795260E-02 0.34084666E+03</pdfrwt>
<totfact> 0.12888710E+05</totfact>
</mgrwt>
</event>
<event>
 8    1  0.9974463E-006  0.3866267E+03  0.7546771E-02  0.1048511E+00
         21   -1    0    0  504  503  0.00000000000E+00  0.00000000000E+00  0.72771289040E+02  0.72771289040E+02  0.00000000000E+00 0. -1.
         21   -1    0    0  503  504 -0.00000000000E+00 -0.00000000000E+00 -0.51352727849E+03  0.51352727849E+03  0.00000000000E+00 0. -1.
         25    2    1    2    0    0  0.55951166551E+02 -0.10322371160E+02 -0.14075006044E+02  0.13805864223E+03  0.12499999406E+03 0.  0.
         25    2    1    2    0    0 -0.55951166551E+02  0.10322371160E+02 -0.42668098340E+03  0.44823992529E+03  0.12500113857E+03 0.  0.
          5    1    3    3  501    0  0.70530152660E+02  0.65310526072E+01 -0.55953362770E+02  0.90388195511E+02  0.47000000000E+01 0. -1.
         -5    1    3    3    0  501 -0.14578986110E+02 -0.16853423767E+02  0.41878356726E+02  0.47670446723E+02  0.47000000000E+01 0. -1.
          5    1    4    4  502    0  0.30197762125E+02  0.41330338668E+01 -0.24595011927E+03  0.24787605366E+03  0.47000000000E+01 0.  1.
         -5    1    4    4    0  502 -0.86148928675E+02  0.61893372933E+01 -0.18073086413E+03  0.20036387164E+03  0.47000000000E+01 0.  1.
<mgrwt>
<rscale>  0 0.38662665E+03</rscale>
<asrwt>0</asrwt>
<pdfrwt beam="1">  1       21 0.11195584E-01 0.38662665E+03</pdfrwt>
<pdfrwt beam="2">  1       21 0.79004192E-01 0.38662665E+03</pdfrwt>
<totfact> 0.88432596E+04</totfact>
</mgrwt>
</event>
<event>
 8    1  0.9974463E-006  0.3369539E+03  0.7546771E-02  0.1068101E+00
         21   -1    0    0  504  503  0.00000000000E+00  0.00000000000E+00  0.10846923436E+03  0.10846923436E+03  0.00000000000E+00 0. -1.
         21   -1    0    0  503  504 -0.00000000000E+00 -0.00000000000E+00 -0.26168239517E+03  0.26168239517E+03  0.00000000000E+00 0. -1.
         25    2    1    2    0    0  0.17334700437E+02  0.60489078822E+02 -0.17965666217E+03  0.22772973485E+03  0.12499958151E+03 0.  0.
         25    2    1    2    0    0 -0.17334700437E+02 -0.60489078822E+02  0.26443501360E+02  0.14242189467E+03  0.12500126728E+03 0.  0.
          5    1    3    3  501    0  0.25510674100E+02  0.66463193515E+02 -0.29574109423E+02  0.77232561354E+02  0.47000000000E+01 0.  1.
         -5    1    3    3    0  501 -0.81759736624E+01 -0.59741146927E+01 -0.15008255275E+03  0.15049717350E+03  0.47000000000E+01 0.  1.
          5    1    4    4  502    0  0.18774346243E+02  0.22096729573E+02 -0.24965929747E+02  0.38550346079E+02  0.47000000000E+01 0. -1.
         -5    1    4    4    0  502 -0.36109046680E+02 -0.82585808395E+02  0.51409431107E+02  0.10387154859E+03  0.47000000000E+01 0. -1.
<mgrwt>
<rscale>  0 0.33695394E+03</rscale>
<asrwt>0</asrwt>
<pdfrwt beam="1">  1       21 0.16687575E-01 0.33695394E+03</pdfrwt>
<pdfrwt beam="2">  1       21 0.40258830E-01 0.33695394E+03</pdfrwt>
<totfact> 0.18481491E+05</totfact>
</mgrwt>
</event>
<event>
 8    1  0.9974463E-006  0.3098900E+03  0.7546771E-02  0.1080399E+00
         21   -1    0    0  504  503  0.00000000000E+00  0.00000000000E+00  0.64062008926E+03  0.64062008926E+03  0.00000000000E+00 0.  1.
         21   -1    0    0  503  504 -0.00000000000E+00 -0.00000000000E+00 -0.37476127897E+02  0.37476127897E+02  0.00000000000E+00 0.  1.
         25    2    1    2    0    0  0.83814508002E+02 -0.28800463937E+02  0.25134882818E+03  0.29437677657E+03  0.12500845844E+03 0.  0.
         25    2    1    2    0    0 -0.83814508002E+02  0.28800463937E+02  0.35179513319E+03  0.38371944059E+03  0.12500581938E+03 0.  0.
          5    1    3    3  501    0  0.32301852281E+02 -0.30695782781E+01 -0.35824455537E+01  0.32981144427E+02  0.47000000000E+01 0.  1.
         -5    1    3    3    0  501  0.51512655722E+02 -0.25730885659E+02  0.25493127373E+03  0.26139563214E+03  0.47000000000E+01 0.  1.
          5    1    4    4  502    0 -0.59424907061E+02 -0.41788532878E+02  0.12224262651E+03  0.14227772417E+03  0.47000000000E+01 0.  1.
         -5    1    4    4    0  502 -0.24389600941E+02  0.70588996815E+02  0.22955250668E+03  0.24144171642E+03  0.47000000000E+01 0.  1.
<mgrwt>
<rscale>  0 0.30989005E+03</rscale>
<asrwt>0</asrwt>
<pdfrwt beam="1">  1       21 0.98556929E-01 0.30989005E+03</pdfrwt>
<pdfrwt beam="2">  1       21 0.57655586E-02 0.30989005E+03</pdfrwt>
<totfact> 0.17303506E+05</totfact>
</mgrwt>
</event>
<event>
 8    1  0.9974463E-006  0.3157774E+03  0.7546771E-02  0.1077609E+00
         21   -1    0    0  504  503  0.00000000000E+00  0.00000000000E+00  0.26650821013E+02  0.26650821013E+02  0.00000000000E+00 0.  1.
         21   -1    0    0  503  504 -0.00000000000E+00 -0.00000000000E+00 -0.93538747157E+03  0.93538747157E+03  0.00000000000E+00 0.  1.
         25    2    1    2    0    0 -0.19410522968E+02 -0.14623905939E+02 -0.16996692536E+03  0.21237452837E+03  0.12499423010E+03 0.  0.
         25    2    1    2    0    0  0.19410522968E+02  0.14623905939E+02 -0.73876972519E+03  0.74966376421E+03  0.12499770190E+03 0.  0.
          5    1    3    3  501    0 -0.13585566603E+02  0.48457114613E+02 -0.12417135268E+03  0.13406444123E+03  0.47000000000E+01 0. -1.
         -5    1    3    3    0  501 -0.58249563648E+01 -0.63081020552E+02 -0.45795572683E+02  0.78310087140E+02  0.47000000000E+01 0. -1.
          5    1    4    4  502    0  0.41381172080E+02  0.60369065254E+02 -0.51279647691E+03  0.51801461579E+03  0.47000000000E+01 0. -1.
         -5    1    4    4    0  502 -0.21970649112E+02 -0.45745159315E+02 -0.22597324828E+03  0.23164914841E+03  0.47000000000E+01 0. -1.
<mgrwt>
<rscale>  0 0.31577742E+03</rscale>
<asrwt>0</asrwt>
<pdfrwt beam="1">  1       21 0.41001261E-02 0.31577742E+03</pdfrwt>
<pdfrwt beam="2">  1       21 0.14390577E+00 0.31577742E+03</pdfrwt>
<totfact> 0.11959587E+05</totfact>
</mgrwt>
</event>
<event>
 8    1  0.9974463E-006  0.5438224E+03  0.7546771E-02  0.1002934E+00
         21   -1    0    0  504  503  0.00000000000E+00  0.00000000000E+00  0.41355314106E+03  0.41355314106E+03  0.00000000000E+00 0. -1.
         21   -1    0    0  503  504 -0.00000000000E+00 -0.00000000000E+00 -0.17878159070E+03  0.17878159070E+03  0.00000000000E+00 0. -1.
         25    2    1    2    0    0  0.67488839962E+02 -0.18121905345E+03  0.27490812523E+03  0.35860201406E+03  0.12500335322E+03 0.  0.
         25    2    1    2    0    0 -0.67488839962E+02  0.18121905345E+03 -0.40136574861E+02  0.23373271770E+03  0.12499979932E+03 0.  0.
          5    1    3    3  501    0  0.36350775832E+02 -0.54359247007E+02  0.14376454359E+02  0.67119885867E+02  0.47000000000E+01 0. -1.
         -5    1    3    3    0  501  0.31138064130E+02 -0.12685980644E+03  0.26053167087E+03  0.29148212819E+03  0.47000000000E+01 0. -1.
          5    1    4    4  502    0 -0.91754806801E+02  0.10916665473E+03  0.91967359940E+01  0.14297892513E+03  0.47000000000E+01 0. -1.
         -5    1    4    4    0  502  0.24265966839E+02  0.72052398715E+02 -0.49333310855E+02  0.90753792577E+02  0.47000000000E+01 0. -1.
<mgrwt>
<rscale>  0 0.54382235E+03</rscale>
<asrwt>0</asrwt>
<pdfrwt beam="1">  1       21 0.63623560E-01 0.54382235E+03</pdfrwt>
<pdfrwt beam="2">  1       21 0.27504860E-01 0.54382235E+03</pdfrwt>
<totfact> 0.25628501E+04</totfact>
</mgrwt>
</event>
<event>
 8    1  0.9974463E-006  0.3391976E+03  0.7546771E-02  0.1067138E+00
         21   -1    0    0  504  503  0.00000000000E+00  0.00000000000E+00  0.55065733707E+02  0.55065733707E+02  0.00000000000E+00 0. -1.
         21   -1    0    0  503  504 -0.00000000000E+00 -0.00000000000E+00 -0.52235287841E+03  0.52235287841E+03  0.00000000000E+00 0. -1.
         25    2    1    2    0    0  0.20729623285E+02 -0.11272569868E+03 -0.23571149882E+03  0.29038096914E+03  0.12499758454E+03 0.  0.
         25    2    1    2    0    0 -0.20729623285E+02  0.11272569868E+03 -0.23157564589E+03  0.28703764298E+03  0.12500611302E+03 0.  0.
          5    1    3    3  501    0 -0.17375434634E+02 -0.68957117594E+02 -0.31297325362E+02  0.77837024419E+02  0.47000000000E+01 0. -1.
         -5    1    3    3    0  501  0.38105057919E+02 -0.43768581089E+02 -0.20441417345E+03  0.21254394472E+03  0.47000000000E+01 0. -1.
          5    1    4    4  502    0  0.24618670876E+02  0.11610879989E+03 -0.19568895255E+03  0.22891830097E+03  0.47000000000E+01 0. -1.
         -5    1    4    4    0  502 -0.45348294161E+02 -0.33831012033E+01 -0.35886693335E+02  0.58119342009E+02  0.47000000000E+01 0. -1.
<mgrwt>
<rscale>  0 0.33919755E+03</rscale>
<asrwt>0</asrwt>
<pdfrwt beam="1">  1       21 0.84716513E-02 0.33919755E+03</pdfrwt>
<pdfrwt beam="2">  1       21 0.80361982E-01 0.33919755E+03</pdfrwt>
<totfact> 0.14153166E+05</totfact>
</mgrwt>
</event>
<event>
 8    1  0.9974463E-006  0.2560917E+03  0.7546771E-02  0.1109514E+00
         21   -1    0    0  504  503  0.00000000000E+00  0.00000000000E+00  0.24387563066E+03  0.24387563066E+03  0.00000000000E+00 0.  1.
         21   -1    0    0  503  504 -0.00000000000E+00 -0.00000000000E+00 -0.67229903426E+02  0.67229903426E+02  0.00000000000E+00 0.  1.
         25    2    1    2    0    0  0.18161644864E+02  0.12092516389E+02  0.10907144780E+03  0.16732574610E+03  0.12500100113E+03 0.  0.
         25    2    1    2    0    0 -0.18161644864E+02 -0.12092516389E+02  0.67574279429E+02  0.14377978799E+03  0.12502107781E+03 0.  0.
          5    1    3    3  501    0  0.55235233959E+01  0.51375615913E+02  0.11424206640E+03  0.12547231948E+03  0.47000000000E+01 0. -1.
         -5    1    3    3    0  501  0.12638121468E+02 -0.39283099524E+02 -0.51706185993E+01  0.41853426612E+02  0.47000000000E+01 0. -1.
          5    1    4    4  502    0 -0.80186684328E+01  0.10974312462E+02  0.10079708433E+03  0.10181786084E+03  0.47000000000E+01 0. -1.
         -5    1    4    4    0  502 -0.10142976431E+02 -0.23066828851E+02 -0.33222804900E+02  0.41961927143E+02  0.47000000000E+01 0. -1.
<mgrwt>
<rscale>  0 0.25609166E+03</rscale>
<asrwt>0</asrwt>
<pdfrwt beam="1">  1       21 0.37519327E-01 0.25609166E+03</pdfrwt>
<pdfrwt beam="2">  1       21 0.10343062E-01 0.25609166E+03</pdfrwt>
<totfact> 0.51734561E+05</totfact>
</mgrwt>
</event>
<event>
 8    1  0.9974463E-006  0.4616657E+03  0.7546771E-02  0.1024299E+00
         21   -1    0    0  504  503  0.00000000000E+00  0.00000000000E+00  0.10579319402E+04  0.10579319402E+04  0.00000000000E+00 0.  1.
         21   -1    0    0  503  504 -0.00000000000E+00 -0.00000000000E+00 -0.50365993660E+02  0.50365993660E+02  0.00000000000E+00 0.  1.
         25    2    1    2    0    0 -0.15927547341E+03 -0.11044942097E+03  0.48053005147E+03  0.53300715329E+03  0.12497897452E+03 0.  0.
         25    2    1    2    0    0  0.15927547341E+03  0.11044942097E+03  0.52703589510E+03  0.57529078060E+03  0.12499958599E+03 0.  0.
          5    1    3    3  501    0 -0.10386011371E+03 -0.12945152919E+03  0.40186103914E+03  0.43480916090E+03  0.47000000000E+01 0.  1.
         -5    1    3    3    0  501 -0.55415359701E+02  0.19002108223E+02  0.78669012339E+02  0.98197992393E+02  0.47000000000E+01 0.  1.
          5    1    4    4  502    0 -0.20413886352E+02  0.29305752429E+01  0.45713411502E+02  0.50369842350E+02  0.47000000000E+01 0.  1.
         -5    1    4    4    0  502  0.17968935976E+03  0.10751884572E+03  0.48132248360E+03  0.52492093825E+03  0.47000000000E+01 0.  1.
<mgrwt>
<rscale>  0 0.46166565E+03</rscale>
<asrwt>0</asrwt>
<pdfrwt beam="1">  1       21 0.16275874E+00 0.46166565E+03</pdfrwt>
<pdfrwt beam="2">  1       21 0.77486152E-02 0.46166565E+03</pdfrwt>
<totfact> 0.27226793E+04</totfact>
</mgrwt>
</event>
<event>
 8    1  0.9974463E-006  0.3605856E+03  0.7546771E-02  0.1058352E+00
         21   -1    0    0  504  503  0.00000000000E+00  0.00000000000E+00  0.35493290199E+02  0.35493290199E+02  0.00000000000E+00 0.  1.
         21   -1    0    0  503  504 -0.00000000000E+00 -0.00000000000E+00 -0.91582091183E+03  0.91582091183E+03  0.00000000000E+00 0.  1.
         25    2    1    2    0    0 -0.14736918739E+02  0.12772743936E+03 -0.48938947884E+03  0.52120954601E+03  0.12500341319E+03 0.  0.
         25    2    1    2    0    0  0.14736918739E+02 -0.12772743936E+03 -0.39093814279E+03  0.43010465603E+03  0.12500363237E+03 0.  0.
          5    1    3    3  501    0 -0.57172926569E+02  0.11875803513E+03 -0.31605742385E+03  0.34247131210E+03  0.47000000000E+01 0.  1.
         -5    1    3    3    0  501  0.42436007830E+02  0.89694042303E+01 -0.17333205499E+03  0.17873823391E+03  0.47000000000E+01 0.  1.
          5    1    4    4  502    0 -0.32405458311E+02 -0.93561820086E+02 -0.33451462625E+03  0.34889260967E+03  0.47000000000E+01 0.  1.
         -5    1    4    4    0  502  0.47142377050E+02 -0.34165619275E+02 -0.56423516542E+02  0.81212046356E+02  0.47000000000E+01 0.  1.
<mgrwt>
<rscale>  0 0.36058562E+03</rscale>
<asrwt>0</asrwt>
<pdfrwt beam="1">  1       21 0.54605051E-02 0.36058562E+03</pdfrwt>
<pdfrwt beam="2">  1       21 0.14089555E+00 0.36058562E+03</pdfrwt>
<totfact> 0.76460371E+04</totfact>
</mgrwt>
</event>
<event>
 8    1  0.9974463E-006  0.2829833E+03  0.7546771E-02  0.1094071E+00
         21   -1    0    0  504  503  0.00000000000E+00  0.00000000000E+00  0.41693658788E+02  0.41693658788E+02  0.00000000000E+00 0. -1.
         21   -1    0    0  503  504 -0.00000000000E+00 -0.00000000000E+00 -0.48016631353E+03  0.48016631353E+03  0.00000000000E+00 0. -1.
         25    2    1    2    0    0 -0.56805468444E+02 -0.33234535518E+02 -0.20496959623E+03  0.24893766321E+03  0.12500411669E+03 0.  0.
         25    2    1    2    0    0  0.56805468444E+02  0.33234535518E+02 -0.23350305851E+03  0.27292230911E+03  0.12502604880E+03 0.  0.
          5    1    3    3  501    0 -0.64837600029E+02  0.25249606681E+02 -0.58772087668E+02  0.91201454506E+02  0.47000000000E+01 0. -1.
         -5    1    3    3    0  501  0.80321315856E+01 -0.58484142199E+02 -0.14619750856E+03  0.15773620870E+03  0.47000000000E+01 0. -1.
          5    1    4    4  502    0 -0.86252137858E+00 -0.42937194244E+02 -0.97569348855E+02  0.10670620614E+03  0.47000000000E+01 0. -1.
         -5    1    4    4    0  502  0.57667989822E+02  0.76171729762E+02 -0.13593370966E+03  0.16621610297E+03  0.47000000000E+01 0. -1.
<mgrwt>
<rscale>  0 0.28298332E+03</rscale>
<asrwt>0</asrwt>
<pdfrwt beam="1">  1       21 0.64144089E-02 0.28298332E+03</pdfrwt>
<pdfrwt beam="2">  1       21 0.73871742E-01 0.28298332E+03</pdfrwt>
<totfact> 0.28249490E+05</totfact>
</mgrwt>
</event>
<event>
 8    1  0.9974463E-006  0.2788199E+03  0.7546771E-02  0.1096335E+00
         21   -1    0    0  504  503  0.00000000000E+00  0.00000000000E+00  0.16446333590E+03  0.16446333590E+03  0.00000000000E+00 0.  1.
         21   -1    0    0  503  504 -0.00000000000E+00 -0.00000000000E+00 -0.11817301172E+03  0.11817301172E+03  0.00000000000E+00 0.  1.
         25    2    1    2    0    0 -0.14428752002E+02 -0.17123171623E+02  0.81427571723E+02  0.15085222237E+03  0.12499820665E+03 0.  0.
         25    2    1    2    0    0  0.14428752002E+02  0.17123171623E+02 -0.35137247545E+02  0.13178412525E+03  0.12502414812E+03 0.  0.
          5    1    3    3  501    0 -0.65006623989E+02  0.39985714871E+01  0.19782060561E+02  0.68229536540E+02  0.47000000000E+01 0. -1.
         -5    1    3    3    0  501  0.50577871987E+02 -0.21121743110E+02  0.61645511162E+02  0.82622685826E+02  0.47000000000E+01 0. -1.
          5    1    4    4  502    0  0.39050354692E+01 -0.48711888327E+02  0.11327431896E+02  0.50383509999E+02  0.47000000000E+01 0.  1.
         -5    1    4    4    0  502  0.10523716533E+02  0.65835059950E+02 -0.46464679440E+02  0.81400615254E+02  0.47000000000E+01 0.  1.
<mgrwt>
<rscale>  0 0.27881985E+03</rscale>
<asrwt>0</asrwt>
<pdfrwt beam="1">  1       21 0.25302052E-01 0.27881985E+03</pdfrwt>
<pdfrwt beam="2">  1       21 0.18180463E-01 0.27881985E+03</pdfrwt>
<totfact> 0.40074719E+05</totfact>
</mgrwt>
</event>
<event>
 8    1  0.9974463E-006  0.3123599E+03  0.7546771E-02  0.1079220E+00
         21   -1    0    0  504  503  0.00000000000E+00  0.00000000000E+00  0.75648180610E+02  0.75648180610E+02  0.00000000000E+00 0. -1.
         21   -1    0    0  503  504 -0.00000000000E+00 -0.00000000000E+00 -0.32244241677E+03  0.32244241677E+03  0.00000000000E+00 0. -1.
         25    2    1    2    0    0 -0.71223449873E+02  0.26713776682E+02 -0.19294066479E+03  0.24215668743E+03  0.12500942149E+03 0.  0.
         25    2    1    2    0    0  0.71223449873E+02 -0.26713776682E+02 -0.53853571369E+02  0.15593390995E+03  0.12501508488E+03 0.  0.
          5    1    3    3  501    0 -0.76151388182E+02  0.67138487586E+02 -0.11077536412E+03  0.15033257044E+03  0.47000000000E+01 0. -1.
         -5    1    3    3    0  501  0.49279383096E+01 -0.40424710904E+02 -0.82165300669E+02  0.91824116994E+02  0.47000000000E+01 0. -1.
          5    1    4    4  502    0  0.10558734453E+03 -0.31275208612E+02 -0.48975044297E+02  0.12061289717E+03  0.47000000000E+01 0.  1.
         -5    1    4    4    0  502 -0.34363894662E+02  0.45614319301E+01 -0.48785270719E+01  0.35321012782E+02  0.47000000000E+01 0.  1.
<mgrwt>
<rscale>  0 0.31235993E+03</rscale>
<asrwt>0</asrwt>
<pdfrwt beam="1">  1       21 0.11638182E-01 0.31235993E+03</pdfrwt>
<pdfrwt beam="2">  1       21 0.49606526E-01 0.31235993E+03</pdfrwt>
<totfact> 0.23292467E+05</totfact>
</mgrwt>
</event>
<event>
 8    1  0.9974463E-006  0.2597867E+03  0.7546771E-02  0.1107271E+00
         21   -1    0    0  504  503  0.00000000000E+00  0.00000000000E+00  0.12223191711E+04  0.12223191711E+04  0.00000000000E+00 0.  1.
         21   -1    0    0  503  504 -0.00000000000E+00 -0.00000000000E+00 -0.13803498323E+02  0.13803498323E+02  0.00000000000E+00 0.  1.
         25    2    1    2    0    0  0.29825055306E+02  0.18595623224E+02  0.58774272026E+03  0.60191512518E+03  0.12499992627E+03 0.  0.
         25    2    1    2    0    0 -0.29825055306E+02 -0.18595623224E+02  0.62077295251E+03  0.63420754425E+03  0.12499927791E+03 0.  0.
          5    1    3    3  501    0 -0.23953412558E+02 -0.40436874249E+02  0.27942709412E+03  0.28339106849E+03  0.47000000000E+01 0. -1.
         -5    1    3    3    0  501  0.53778467864E+02  0.59032497473E+02  0.30831562614E+03  0.31852405668E+03  0.47000000000E+01 0. -1.
          5    1    4    4  502    0 -0.78591103840E+02 -0.86485977719E+01  0.41074423912E+03  0.41831122363E+03  0.47000000000E+01 0. -1.
         -5    1    4    4    0  502  0.48766048534E+02 -0.99470254518E+01  0.21002871339E+03  0.21589632061E+03  0.47000000000E+01 0. -1.
<mgrwt>
<rscale>  0 0.25978669E+03</rscale>
<asrwt>0</asrwt>
<pdfrwt beam="1">  1       21 0.18804902E+00 0.25978669E+03</pdfrwt>
<pdfrwt beam="2">  1       21 0.21236161E-02 0.25978669E+03</pdfrwt>
<totfact> 0.17405528E+05</totfact>
</mgrwt>
</event>
<event>
 8    1  0.9974463E-006  0.2715667E+03  0.7546771E-02  0.1100386E+00
         21   -1    0    0  504  503  0.00000000000E+00  0.00000000000E+00  0.27040292822E+03  0.27040292822E+03  0.00000000000E+00 0. -1.
         21   -1    0    0  503  504 -0.00000000000E+00 -0.00000000000E+00 -0.68183870931E+02  0.68183870931E+02  0.00000000000E+00 0. -1.
         25    2    1    2    0    0  0.44986699022E+01  0.10495183792E+02  0.16567852492E+03  0.20786398476E+03  0.12501070205E+03 0.  0.
         25    2    1    2    0    0 -0.44986699022E+01 -0.10495183792E+02  0.36540532374E+02  0.13072281439E+03  0.12499142684E+03 0.  0.
          5    1    3    3  501    0 -0.34782604006E+02  0.55436237328E+02  0.89394238498E+02  0.11088925028E+03  0.47000000000E+01 0.  1.
         -5    1    3    3    0  501  0.39281273909E+02 -0.44941053536E+02  0.76284286418E+02  0.96974734478E+02  0.47000000000E+01 0.  1.
          5    1    4    4  502    0  0.19690066663E+02 -0.30392626395E+02  0.73486609988E+02  0.82059626564E+02  0.47000000000E+01 0.  1.
         -5    1    4    4    0  502 -0.24188736565E+02  0.19897442602E+02 -0.36946077614E+02  0.48663187830E+02  0.47000000000E+01 0.  1.
<mgrwt>
<rscale>  0 0.27156670E+03</rscale>
<asrwt>0</asrwt>
<pdfrwt beam="1">  1       21 0.41600450E-01 0.27156670E+03</pdfrwt>
<pdfrwt beam="2">  1       21 0.10489826E-01 0.27156670E+03</pdfrwt>
<totfact> 0.40787301E+05</totfact>
</mgrwt>
</event>
<event>
 8    1  0.9974463E-006  0.3881349E+03  0.7546771E-02  0.1047967E+00
         21   -1    0    0  504  503  0.00000000000E+00  0.00000000000E+00  0.47611023039E+03  0.47611023039E+03  0.00000000000E+00 0. -1.
         21   -1    0    0  503  504 -0.00000000000E+00 -0.00000000000E+00 -0.79103909579E+02  0.79103909579E+02  0.00000000000E+00 0. -1.
         25    2    1    2    0    0 -0.12425038544E+03 -0.52070286351E+02  0.28767134286E+03  0.34136828470E+03  0.12501212457E+03 0.  0.
         25    2    1    2    0    0  0.12425038544E+03  0.52070286351E+02  0.10933497795E+03  0.21384585527E+03  0.12500575751E+03 0.  0.
          5    1    3    3  501    0 -0.97467457178E+02 -0.61485339705E+02  0.29039788643E+03  0.31246339729E+03  0.47000000000E+01 0.  1.
         -5    1    3    3    0  501 -0.26782928264E+02  0.94150533539E+01 -0.27265435627E+01  0.28904887404E+02  0.47000000000E+01 0.  1.
          5    1    4    4  502    0  0.10026408835E+03  0.21473137539E+01  0.11144694866E+02  0.10101382377E+03  0.47000000000E+01 0. -1.
         -5    1    4    4    0  502  0.23986297095E+02  0.49922972597E+02  0.98190283081E+02  0.11283203150E+03  0.47000000000E+01 0. -1.
<mgrwt>
<rscale>  0 0.38813493E+03</rscale>
<asrwt>0</asrwt>
<pdfrwt beam="1">  1       21 0.73247726E-01 0.38813493E+03</pdfrwt>
<pdfrwt beam="2">  1       21 0.12169833E-01 0.38813493E+03</pdfrwt>
<totfact> 0.90292133E+04</totfact>
</mgrwt>
</event>
<event>
 8    1  0.9974463E-006  0.3815244E+03  0.7546771E-02  0.1050372E+00
         21   -1    0    0  504  503  0.00000000000E+00  0.00000000000E+00  0.76972719286E+02  0.76972719286E+02  0.00000000000E+00 0.  1.
         21   -1    0    0  503  504 -0.00000000000E+00 -0.00000000000E+00 -0.47276783896E+03  0.47276783896E+03  0.00000000000E+00 0.  1.
         25    2    1    2    0    0 -0.59892348830E+02  0.10258353451E+03 -0.31544487624E+03  0.35949991638E+03  0.12499697968E+03 0.  0.
         25    2    1    2    0    0  0.59892348830E+02 -0.10258353451E+03 -0.80350243428E+02  0.19024064186E+03  0.12499946078E+03 0.  0.
          5    1    3    3  501    0  0.27646910985E+02  0.60452113567E+01 -0.12788176582E+03  0.13106003318E+03  0.47000000000E+01 0. -1.
         -5    1    3    3    0  501 -0.87539259814E+02  0.96538323154E+02 -0.18756311042E+03  0.22843988320E+03  0.47000000000E+01 0. -1.
          5    1    4    4  502    0 -0.24289345103E+02 -0.77968224330E+02 -0.55876696590E+02  0.99062159842E+02  0.47000000000E+01 0.  1.
         -5    1    4    4    0  502  0.84181693933E+02 -0.24615310180E+02 -0.24473546838E+02  0.91178482020E+02  0.47000000000E+01 0.  1.
<mgrwt>
<rscale>  0 0.38152445E+03</rscale>
<asrwt>0</asrwt>
<pdfrwt beam="1">  1       21 0.11841957E-01 0.38152445E+03</pdfrwt>
<pdfrwt beam="2">  1       21 0.72733515E-01 0.38152445E+03</pdfrwt>
<totfact> 0.96551716E+04</totfact>
</mgrwt>
</event>
<event>
 8    1  0.9974463E-006  0.2684512E+03  0.7546771E-02  0.1102169E+00
         21   -1    0    0  504  503  0.00000000000E+00  0.00000000000E+00  0.25414273650E+02  0.25414273650E+02  0.00000000000E+00 0.  1.
         21   -1    0    0  503  504 -0.00000000000E+00 -0.00000000000E+00 -0.70891294695E+03  0.70891294695E+03  0.00000000000E+00 0.  1.
         25    2    1    2    0    0 -0.17508196261E+02  0.43834052352E+02 -0.37675459449E+03  0.39974576112E+03  0.12499875191E+03 0.  0.
         25    2    1    2    0    0  0.17508196261E+02 -0.43834052352E+02 -0.30674407880E+03  0.33458145948E+03  0.12499944825E+03 0.  0.
          5    1    3    3  501    0 -0.45383855839E+02 -0.29844150588E+02 -0.14388123548E+03  0.15386444560E+03  0.47000000000E+01 0. -1.
         -5    1    3    3    0  501  0.27875659578E+02  0.73678202940E+02 -0.23287335901E+03  0.24588131552E+03  0.47000000000E+01 0. -1.
          5    1    4    4  502    0 -0.41472831008E+02 -0.56992091935E+01 -0.37869674968E+02  0.56645202616E+02  0.47000000000E+01 0. -1.
         -5    1    4    4    0  502  0.58981027269E+02 -0.38134843159E+02 -0.26887440383E+03  0.27793625686E+03  0.47000000000E+01 0. -1.
<mgrwt>
<rscale>  0 0.26845117E+03</rscale>
<asrwt>0</asrwt>
<pdfrwt beam="1">  1       21 0.39098882E-02 0.26845117E+03</pdfrwt>
<pdfrwt beam="2">  1       21 0.10906353E+00 0.26845117E+03</pdfrwt>
<totfact> 0.26537776E+05</totfact>
</mgrwt>
</event>
<event>
 8    1  0.9974463E-006  0.3748673E+03  0.7546771E-02  0.1052847E+00
         21   -1    0    0  504  503  0.00000000000E+00  0.00000000000E+00  0.22547237933E+03  0.22547237933E+03  0.00000000000E+00 0.  1.
         21   -1    0    0  503  504 -0.00000000000E+00 -0.00000000000E+00 -0.15581234085E+03  0.15581234085E+03  0.00000000000E+00 0.  1.
         25    2    1    2    0    0 -0.13749843293E+03 -0.24533206983E+02  0.34217885114E+02  0.19053974441E+03  0.12500733273E+03 0.  0.
         25    2    1    2    0    0  0.13749843293E+03  0.24533206983E+02  0.35442153367E+02  0.19074497577E+03  0.12497920725E+03 0.  0.
          5    1    3    3  501    0 -0.23184807993E+02 -0.16929439460E+01  0.65574430990E+02  0.69731609623E+02  0.47000000000E+01 0. -1.
         -5    1    3    3    0  501 -0.11431362494E+03 -0.22840263037E+02 -0.31356545876E+02  0.12080813479E+03  0.47000000000E+01 0. -1.
          5    1    4    4  502    0 -0.88468601648E+01 -0.42980560711E+01  0.39984246883E+02  0.41443578749E+02  0.47000000000E+01 0. -1.
         -5    1    4    4    0  502  0.14634529309E+03  0.28831263054E+02 -0.45420935154E+01  0.14930139702E+03  0.47000000000E+01 0. -1.
<mgrwt>
<rscale>  0 0.37486733E+03</rscale>
<asrwt>0</asrwt>
<pdfrwt beam="1">  1       21 0.34688059E-01 0.37486733E+03</pdfrwt>
<pdfrwt beam="2">  1       21 0.23971129E-01 0.37486733E+03</pdfrwt>
<totfact> 0.12494396E+05</totfact>
</mgrwt>
</event>
<event>
 8    1  0.9974463E-006  0.2673998E+03  0.7546771E-02  0.1102777E+00
         21   -1    0    0  504  503  0.00000000000E+00  0.00000000000E+00  0.59069945699E+03  0.59069945699E+03  0.00000000000E+00 0. -1.
         21   -1    0    0  503  504 -0.00000000000E+00 -0.00000000000E+00 -0.30261859501E+02  0.30261859501E+02  0.00000000000E+00 0. -1.
         25    2    1    2    0    0 -0.21089033822E+02  0.20597717685E+01  0.37882121534E+03  0.39947265468E+03  0.12499559445E+03 0.  0.
         25    2    1    2    0    0  0.21089033822E+02 -0.20597717685E+01  0.18161638214E+03  0.22148866181E+03  0.12499490806E+03 0.  0.
          5    1    3    3  501    0 -0.32853900571E+02 -0.50399528593E+02  0.28426363595E+03  0.29059834134E+03  0.47000000000E+01 0.  1.
         -5    1    3    3    0  501  0.11764866748E+02  0.52459300361E+02  0.94557579395E+02  0.10887431334E+03  0.47000000000E+01 0.  1.
          5    1    4    4  502    0 -0.16929229194E+02 -0.55327733242E+02  0.10988247936E+03  0.12427391576E+03  0.47000000000E+01 0. -1.
         -5    1    4    4    0  502  0.38018263016E+02  0.53267961474E+02  0.71733902782E+02  0.97214746056E+02  0.47000000000E+01 0. -1.
<mgrwt>
<rscale>  0 0.26739981E+03</rscale>
<asrwt>0</asrwt>
<pdfrwt beam="1">  1       21 0.90876831E-01 0.26739981E+03</pdfrwt>
<pdfrwt beam="2">  1       21 0.46556711E-02 0.26739981E+03</pdfrwt>
<totfact> 0.30556167E+05</totfact>
</mgrwt>
</event>
<event>
 8    1  0.9974463E-006  0.3598967E+03  0.7546771E-02  0.1058625E+00
         21   -1    0    0  504  503  0.00000000000E+00  0.00000000000E+00  0.49068959484E+03  0.49068959484E+03  0.00000000000E+00 0.  1.
         21   -1    0    0  503  504 -0.00000000000E+00 -0.00000000000E+00 -0.65991651634E+02  0.65991651634E+02  0.00000000000E+00 0.  1.
         25    2    1    2    0    0 -0.79440520127E+02  0.94759040335E+02  0.27153730992E+03  0.32349141240E+03  0.12499644495E+03 0.  0.
         25    2    1    2    0    0  0.79440520127E+02 -0.94759040335E+02  0.15316063328E+03  0.23318983407E+03  0.12501698751E+03 0.  0.
          5    1    3    3  501    0 -0.89792093504E+00  0.61811305298E+02  0.33152186242E+02  0.70303635591E+02  0.47000000000E+01 0. -1.
         -5    1    3    3    0  501 -0.78542599192E+02  0.32947735037E+02  0.23838512368E+03  0.25318777681E+03  0.47000000000E+01 0. -1.
          5    1    4    4  502    0  0.76751617124E+02 -0.30262500587E+02  0.14640281380E+03  0.16811455487E+03  0.47000000000E+01 0. -1.
         -5    1    4    4    0  502  0.26889030035E+01 -0.64496539748E+02  0.67578194827E+01  0.65075279200E+02  0.47000000000E+01 0. -1.
<mgrwt>
<rscale>  0 0.35989675E+03</rscale>
<asrwt>0</asrwt>
<pdfrwt beam="1">  1       21 0.75490705E-01 0.35989675E+03</pdfrwt>
<pdfrwt beam="2">  1       21 0.10152562E-01 0.35989675E+03</pdfrwt>
<totfact> 0.11771654E+05</totfact>
</mgrwt>
</event>
<event>
 8    1  0.9974463E-006  0.3041956E+03  0.7546771E-02  0.1083162E+00
         21   -1    0    0  504  503  0.00000000000E+00  0.00000000000E+00  0.47729406532E+03  0.47729406532E+03  0.00000000000E+00 0. -1.
         21   -1    0    0  503  504 -0.00000000000E+00 -0.00000000000E+00 -0.48468514191E+02  0.48468514191E+02  0.00000000000E+00 0. -1.
         25    2    1    2    0    0 -0.65183649429E+01 -0.72238568305E+02  0.13247477626E+03  0.19605175092E+03  0.12500329141E+03 0.  0.
         25    2    1    2    0    0  0.65183649429E+01  0.72238568305E+02  0.29635077487E+03  0.32971082859E+03  0.12499819554E+03 0.  0.
          5    1    3    3  501    0  0.42850111459E+02 -0.54072204267E+02  0.20307194440E+02  0.72072237875E+02  0.47000000000E+01 0.  1.
         -5    1    3    3    0  501 -0.49368476402E+02 -0.18166364038E+02  0.11216758182E+03  0.12397951305E+03  0.47000000000E+01 0.  1.
          5    1    4    4  502    0 -0.32123054777E+02  0.44351791181E+02  0.37666594491E+02  0.66632082135E+02  0.47000000000E+01 0.  1.
         -5    1    4    4    0  502  0.38641419720E+02  0.27886777124E+02  0.25868418038E+03  0.26307874645E+03  0.47000000000E+01 0.  1.
<mgrwt>
<rscale>  0 0.30419556E+03</rscale>
<asrwt>0</asrwt>
<pdfrwt beam="1">  1       21 0.73429853E-01 0.30419556E+03</pdfrwt>
<pdfrwt beam="2">  1       21 0.74566948E-02 0.30419556E+03</pdfrwt>
<totfact> 0.21923632E+05</totfact>
</mgrwt>
</event>
<event>
 8    1  0.9974463E-006  0.2793421E+03  0.7546771E-02  0.1096049E+00
         21   -1    0    0  504  503  0.00000000000E+00  0.00000000000E+00  0.24492129661E+02  0.24492129661E+02  0.00000000000E+00 0. -1.
         21   -1    0    0  503  504 -0.00000000000E+00 -0.00000000000E+00 -0.79650090644E+03  0.79650090644E+03  0.00000000000E+00 0. -1.
         25    2    1    2    0    0 -0.22185460079E+02 -0.55709184737E+02 -0.43583034070E+03  0.45734953377E+03  0.12499920904E+03 0.  0.
         25    2    1    2    0    0  0.22185460079E+02  0.55709184737E+02 -0.33617843608E+03  0.36364350233E+03  0.12499979201E+03 0.  0.
          5    1    3    3  501    0 -0.66718915184E+02 -0.44901820134E+01 -0.16483511332E+03  0.17794459801E+03  0.47000000000E+01 0.  1.
         -5    1    3    3    0  501  0.44533455105E+02 -0.51219002723E+02 -0.27099522738E+03  0.27940493576E+03  0.47000000000E+01 0.  1.
          5    1    4    4  502    0  0.64813885465E+02  0.45966206152E+02 -0.28623379585E+03  0.29709528395E+03  0.47000000000E+01 0.  1.
         -5    1    4    4    0  502 -0.42628425387E+02  0.97429785852E+01 -0.49944640228E+02  0.66548218385E+02  0.47000000000E+01 0.  1.
<mgrwt>
<rscale>  0 0.27934211E+03</rscale>
<asrwt>0</asrwt>
<pdfrwt beam="1">  1       21 0.37680205E-02 0.27934211E+03</pdfrwt>
<pdfrwt beam="2">  1       21 0.12253858E+00 0.27934211E+03</pdfrwt>
<totfact> 0.21106228E+05</totfact>
</mgrwt>
</event>
<event>
 8    1  0.9974463E-006  0.2877506E+03  0.7546771E-02  0.1091529E+00
         21   -1    0    0  504  503  0.00000000000E+00  0.00000000000E+00  0.28488815140E+03  0.28488815140E+03  0.00000000000E+00 0. -1.
         21   -1    0    0  503  504 -0.00000000000E+00 -0.00000000000E+00 -0.72660431380E+02  0.72660431380E+02  0.00000000000E+00 0. -1.
         25    2    1    2    0    0 -0.61133182407E+02  0.24059351181E+02  0.14033444768E+03  0.19908834464E+03  0.12500517347E+03 0.  0.
         25    2    1    2    0    0  0.61133182407E+02 -0.24059351181E+02  0.71893272345E+02  0.15846023815E+03  0.12499954438E+03 0.  0.
          5    1    3    3  501    0 -0.90428418898E+02  0.43577864811E+02  0.77470332710E+02  0.12688605793E+03  0.47000000000E+01 0.  1.
         -5    1    3    3    0  501  0.29295236491E+02 -0.19518513631E+02  0.62864114968E+02  0.72202286710E+02  0.47000000000E+01 0.  1.
          5    1    4    4  502    0  0.45186474875E+01 -0.49434353692E+02 -0.14560836133E+02  0.51944984829E+02  0.47000000000E+01 0.  1.
         -5    1    4    4    0  502  0.56614534919E+02  0.25375002511E+02  0.86454108478E+02  0.10651525332E+03  0.47000000000E+01 0.  1.
<mgrwt>
<rscale>  0 0.28775056E+03</rscale>
<asrwt>0</asrwt>
<pdfrwt beam="1">  1       21 0.43828946E-01 0.28775056E+03</pdfrwt>
<pdfrwt beam="2">  1       21 0.11178528E-01 0.28775056E+03</pdfrwt>
<totfact> 0.32590336E+05</totfact>
</mgrwt>
</event>
<event>
 8    1  0.9974463E-006  0.2848371E+03  0.7546771E-02  0.1093076E+00
         21   -1    0    0  504  503  0.00000000000E+00  0.00000000000E+00  0.12244841157E+02  0.12244841157E+02  0.00000000000E+00 0.  1.
         21   -1    0    0  503  504 -0.00000000000E+00 -0.00000000000E+00 -0.16564561885E+04  0.16564561885E+04  0.00000000000E+00 0.  1.
         25    2    1    2    0    0  0.33726021175E+01  0.63134766117E+02 -0.97279054616E+03  0.98282450663E+03  0.12500076398E+03 0.  0.
         25    2    1    2    0    0 -0.33726021175E+01 -0.63134766117E+02 -0.67142080117E+03  0.68587652302E+03  0.12499335759E+03 0.  0.
          5    1    3    3  501    0 -0.46463381234E+02  0.75257104369E+02 -0.61981304692E+03  0.62610924022E+03  0.47000000000E+01 0. -1.
         -5    1    3    3    0  501  0.49835983351E+02 -0.12122338252E+02 -0.35297749924E+03  0.35671526641E+03  0.47000000000E+01 0. -1.
          5    1    4    4  502    0 -0.48277679193E+02  0.51314697387E+01 -0.14146783196E+03  0.14964058196E+03  0.47000000000E+01 0.  1.
         -5    1    4    4    0  502  0.44905077076E+02 -0.68266235856E+02 -0.52995296921E+03  0.53623594106E+03  0.47000000000E+01 0.  1.
<mgrwt>
<rscale>  0 0.28483710E+03</rscale>
<asrwt>0</asrwt>
<pdfrwt beam="1">  1       21 0.18838243E-02 0.28483710E+03</pdfrwt>
<pdfrwt beam="2">  1       21 0.25483907E+00 0.28483710E+03</pdfrwt>
<totfact> 0.79834111E+04</totfact>
</mgrwt>
</event>
<event>
 8    1  0.9974463E-006  0.3313967E+03  0.7546771E-02  0.1070521E+00
         21   -1    0    0  504  503  0.00000000000E+00  0.00000000000E+00  0.13444259025E+04  0.13444259025E+04  0.00000000000E+00 0.  1.
         21   -1    0    0  503  504 -0.00000000000E+00 -0.00000000000E+00 -0.20422061820E+02  0.20422061820E+02  0.00000000000E+00 0.  1.
         25    2    1    2    0    0  0.62780479169E+02  0.63348709508E+02  0.40557378633E+03  0.43366974008E+03  0.12499959896E+03 0.  0.
         25    2    1    2    0    0 -0.62780479169E+02 -0.63348709508E+02  0.91843005438E+03  0.93117822428E+03  0.12499869203E+03 0.  0.
          5    1    3    3  501    0  0.29147107428E+02  0.82799920266E+02  0.37156347978E+03  0.38182049470E+03  0.47000000000E+01 0.  1.
         -5    1    3    3    0  501  0.33633371741E+02 -0.19451210758E+02  0.34010306552E+02  0.51849245379E+02  0.47000000000E+01 0.  1.
          5    1    4    4  502    0  0.28494343991E+02 -0.53941270237E+02  0.33127766271E+03  0.33688064368E+03  0.47000000000E+01 0. -1.
         -5    1    4    4    0  502 -0.91274823160E+02 -0.94074392707E+01  0.58715239167E+03  0.59429758060E+03  0.47000000000E+01 0. -1.
<mgrwt>
<rscale>  0 0.33139673E+03</rscale>
<asrwt>0</asrwt>
<pdfrwt beam="1">  1       21 0.20683468E+00 0.33139673E+03</pdfrwt>
<pdfrwt beam="2">  1       21 0.31418567E-02 0.33139673E+03</pdfrwt>
<totfact> 0.66448401E+04</totfact>
</mgrwt>
</event>
<event>
 8    1  0.9974463E-006  0.2655809E+03  0.7546771E-02  0.1103836E+00
         21   -1    0    0  504  503  0.00000000000E+00  0.00000000000E+00  0.31250429967E+02  0.31250429967E+02  0.00000000000E+00 0. -1.
         21   -1    0    0  503  504 -0.00000000000E+00 -0.00000000000E+00 -0.56425784193E+03  0.56425784193E+03  0.00000000000E+00 0. -1.
         25    2    1    2    0    0 -0.41873321130E+01 -0.28518189851E+02 -0.18958923141E+03  0.22891343168E+03  0.12500584641E+03 0.  0.
         25    2    1    2    0    0  0.41873321130E+01  0.28518189851E+02 -0.34341818056E+03  0.36659484022E+03  0.12499963693E+03 0.  0.
          5    1    3    3  501    0 -0.43412456603E+02 -0.52905332244E+02 -0.59567285756E+02  0.90851346168E+02  0.47000000000E+01 0. -1.
         -5    1    3    3    0  501  0.39225124490E+02  0.24387142393E+02 -0.13002194565E+03  0.13806208551E+03  0.47000000000E+01 0. -1.
          5    1    4    4  502    0  0.18300579896E+02  0.57272315301E+02 -0.75039880178E+02  0.96270987019E+02  0.47000000000E+01 0.  1.
         -5    1    4    4    0  502 -0.14113247783E+02 -0.28754125450E+02 -0.26837830038E+03  0.27032385320E+03  0.47000000000E+01 0.  1.
<mgrwt>
<rscale>  0 0.26558087E+03</rscale>
<asrwt>0</asrwt>
<pdfrwt beam="1">  1       21 0.48077580E-02 0.26558087E+03</pdfrwt>
<pdfrwt beam="2">  1       21 0.86808907E-01 0.26558087E+03</pdfrwt>
<totfact> 0.32199077E+05</totfact>
</mgrwt>
</event>
<event>
 8    1  0.9974463E-006  0.2995418E+03  0.7546771E-02  0.1085470E+00
         21   -1    0    0  504  503  0.00000000000E+00  0.00000000000E+00  0.72359204693E+03  0.72359204693E+03  0.00000000000E+00 0.  1.
         21   -1    0    0  503  504 -0.00000000000E+00 -0.00000000000E+00 -0.30999949133E+02  0.30999949133E+02  0.00000000000E+00 0.  1.
         25    2    1    2    0    0  0.16877198993E+02 -0.80728267508E+02  0.34081765022E+03  0.37226712232E+03  0.12499698653E+03 0.  0.
         25    2    1    2    0    0 -0.16877198993E+02  0.80728267508E+02  0.35177444758E+03  0.38232487374E+03  0.12500061636E+03 0.  0.
          5    1    3    3  501    0 -0.28473228860E+02 -0.26103917711E+02  0.20189071115E+02  0.43838657302E+02  0.47000000000E+01 0. -1.
         -5    1    3    3    0  501  0.45350427854E+02 -0.54624349797E+02  0.32062857910E+03  0.32842846502E+03  0.47000000000E+01 0. -1.
          5    1    4    4  502    0 -0.65015874515E+01  0.11309064317E+03  0.24054255421E+03  0.26592212130E+03  0.47000000000E+01 0.  1.
         -5    1    4    4    0  502 -0.10375611542E+02 -0.32362375659E+02  0.11123189337E+03  0.11640275244E+03  0.47000000000E+01 0.  1.
<mgrwt>
<rscale>  0 0.29954176E+03</rscale>
<asrwt>0</asrwt>
<pdfrwt beam="1">  1       21 0.11132184E+00 0.29954176E+03</pdfrwt>
<pdfrwt beam="2">  1       21 0.47692235E-02 0.29954176E+03</pdfrwt>
<totfact> 0.17869490E+05</totfact>
</mgrwt>
</event>
<event>
 8    1  0.9974463E-006  0.3023867E+03  0.7546771E-02  0.1084054E+00
         21   -1    0    0  504  503  0.00000000000E+00  0.00000000000E+00  0.36404907665E+03  0.36404907665E+03  0.00000000000E+00 0. -1.
         21   -1    0    0  503  504 -0.00000000000E+00 -0.00000000000E+00 -0.62792166174E+02  0.62792166174E+02  0.00000000000E+00 0. -1.
         25    2    1    2    0    0  0.36439397175E+02  0.28952362947E+02  0.25109177164E+03  0.28432694380E+03  0.12501465594E+03 0.  0.
         25    2    1    2    0    0 -0.36439397175E+02 -0.28952362947E+02  0.50165138834E+02  0.14251429902E+03  0.12501086067E+03 0.  0.
          5    1    3    3  501    0  0.69098700036E+02  0.57290791276E+02  0.16693518824E+03  0.18959512701E+03  0.47000000000E+01 0. -1.
         -5    1    3    3    0  501 -0.32659302861E+02 -0.28338428330E+02  0.84156583398E+02  0.94731816792E+02  0.47000000000E+01 0. -1.
          5    1    4    4  502    0  0.19057364646E+02 -0.64007148957E+02  0.32241586849E+02  0.74308197310E+02  0.47000000000E+01 0. -1.
         -5    1    4    4    0  502 -0.55496761822E+02  0.35054786011E+02  0.17923551985E+02  0.68206101712E+02  0.47000000000E+01 0. -1.
<mgrwt>
<rscale>  0 0.30238671E+03</rscale>
<asrwt>0</asrwt>
<pdfrwt beam="1">  1       21 0.56007549E-01 0.30238671E+03</pdfrwt>
<pdfrwt beam="2">  1       21 0.96603334E-02 0.30238671E+03</pdfrwt>
<totfact> 0.25179162E+05</totfact>
</mgrwt>
</event>
<event>
 8    1  0.9974463E-006  0.2808599E+03  0.7546771E-02  0.1095220E+00
         21   -1    0    0  504  503  0.00000000000E+00  0.00000000000E+00  0.13969726327E+04  0.13969726327E+04  0.00000000000E+00 0. -1.
         21   -1    0    0  503  504 -0.00000000000E+00 -0.00000000000E+00 -0.14116647508E+02  0.14116647508E+02  0.00000000000E+00 0. -1.
         25    2    1    2    0    0  0.59388406469E+02  0.13385556614E+02  0.59192904745E+03  0.60803982710E+03  0.12500511258E+03 0.  0.
         25    2    1    2    0    0 -0.59388406469E+02 -0.13385556614E+02  0.79092693774E+03  0.80304945311E+03  0.12496738514E+03 0.  0.
          5    1    3    3  501    0 -0.14076841787E+02 -0.40560648531E+02  0.12435197988E+03  0.13163900859E+03  0.47000000000E+01 0. -1.
         -5    1    3    3    0  501  0.73465248256E+02  0.53946205145E+02  0.46757706758E+03  0.47640081851E+03  0.47000000000E+01 0. -1.
          5    1    4    4  502    0 -0.88583291944E+02  0.10896014876E+02  0.38107466095E+03  0.39141500990E+03  0.47000000000E+01 0. -1.
         -5    1    4    4    0  502  0.29194885475E+02 -0.24281571490E+02  0.40985227679E+03  0.41163444322E+03  0.47000000000E+01 0. -1.
<mgrwt>
<rscale>  0 0.28085990E+03</rscale>
<asrwt>0</asrwt>
<pdfrwt beam="1">  1       21 0.21491876E+00 0.28085990E+03</pdfrwt>
<pdfrwt beam="2">  1       21 0.21717930E-02 0.28085990E+03</pdfrwt>
<totfact> 0.11118444E+05</totfact>
</mgrwt>
</event>
<event>
 8    1  0.9974463E-006  0.4065051E+03  0.7546771E-02  0.1041550E+00
         21   -1    0    0  504  503  0.00000000000E+00  0.00000000000E+00  0.30059302606E+03  0.30059302606E+03  0.00000000000E+00 0. -1.
         21   -1    0    0  503  504 -0.00000000000E+00 -0.00000000000E+00 -0.13743362631E+03  0.13743362631E+03  0.00000000000E+00 0. -1.
         25    2    1    2    0    0 -0.15667341928E+03  0.78209579717E+00  0.45228126029E+02  0.20546289609E+03  0.12498898472E+03 0.  0.
         25    2    1    2    0    0  0.15667341928E+03 -0.78209579717E+00  0.11793127372E+03  0.23256375628E+03  0.12502377146E+03 0.  0.
          5    1    3    3  501    0 -0.14808062564E+03 -0.25729769832E+02 -0.20432496393E+01  0.15038669361E+03  0.47000000000E+01 0.  1.
         -5    1    3    3    0  501 -0.85927936402E+01  0.26511865629E+02  0.47271375668E+02  0.55076202477E+02  0.47000000000E+01 0.  1.
          5    1    4    4  502    0  0.37603097102E+02 -0.28056042762E+02  0.97935263771E+02  0.10869471163E+03  0.47000000000E+01 0. -1.
         -5    1    4    4    0  502  0.11907032218E+03  0.27273946965E+02  0.19996009946E+02  0.12386904464E+03  0.47000000000E+01 0. -1.
<mgrwt>
<rscale>  0 0.40650505E+03</rscale>
<asrwt>0</asrwt>
<pdfrwt beam="1">  1       21 0.46245081E-01 0.40650505E+03</pdfrwt>
<pdfrwt beam="2">  1       21 0.21143635E-01 0.40650505E+03</pdfrwt>
<totfact> 0.87473604E+04</totfact>
</mgrwt>
</event>
<event>
 8    1  0.9974463E-006  0.4261830E+03  0.7546771E-02  0.1035073E+00
         21   -1    0    0  504  503  0.00000000000E+00  0.00000000000E+00  0.53903159718E+03  0.53903159718E+03  0.00000000000E+00 0.  1.
         21   -1    0    0  503  504 -0.00000000000E+00 -0.00000000000E+00 -0.84239933667E+02  0.84239933667E+02  0.00000000000E+00 0.  1.
         25    2    1    2    0    0 -0.56588502876E+02  0.11590879897E+03  0.39507354635E+03  0.43398730500E+03  0.12499906216E+03 0.  0.
         25    2    1    2    0    0  0.56588502876E+02 -0.11590879897E+03  0.59718117169E+02  0.18928422585E+03  0.12500062520E+03 0.  0.
          5    1    3    3  501    0  0.32159480204E+02  0.62141306157E+02  0.21447074786E+03  0.22564477788E+03  0.47000000000E+01 0.  1.
         -5    1    3    3    0  501 -0.88747983079E+02  0.53767492815E+02  0.18060279849E+03  0.20834252712E+03  0.47000000000E+01 0.  1.
          5    1    4    4  502    0  0.95147665710E+02 -0.98368475982E+02  0.43457083381E+02  0.14366643120E+03  0.47000000000E+01 0. -1.
         -5    1    4    4    0  502 -0.38559162835E+02 -0.17540322990E+02  0.16261033788E+02  0.45617794652E+02  0.47000000000E+01 0. -1.
<mgrwt>
<rscale>  0 0.42618299E+03</rscale>
<asrwt>0</asrwt>
<pdfrwt beam="1">  1       21 0.82927936E-01 0.42618299E+03</pdfrwt>
<pdfrwt beam="2">  1       21 0.12959990E-01 0.42618299E+03</pdfrwt>
<totfact> 0.60042698E+04</totfact>
</mgrwt>
</event>
<event>
 8    1  0.9974463E-006  0.3424871E+03  0.7546771E-02  0.1065742E+00
         21   -1    0    0  504  503  0.00000000000E+00  0.00000000000E+00  0.10478279048E+02  0.10478279048E+02  0.00000000000E+00 0. -1.
         21   -1    0    0  503  504 -0.00000000000E+00 -0.00000000000E+00 -0.27985842564E+04  0.27985842564E+04  0.00000000000E+00 0. -1.
         25    2    1    2    0    0 -0.56751207607E+01 -0.38994718619E+02 -0.22977448649E+04  0.23014803111E+04  0.12500945378E+03 0.  0.
         25    2    1    2    0    0  0.56751207607E+01  0.38994718619E+02 -0.49036111248E+03  0.50758222429E+03  0.12503159083E+03 0.  0.
          5    1    3    3  501    0 -0.40723320791E+02  0.26176516896E+02 -0.13344250942E+04  0.13353112075E+04  0.47000000000E+01 0.  1.
         -5    1    3    3    0  501  0.35048200030E+02 -0.65171235516E+02 -0.96331977065E+03  0.96616910362E+03  0.47000000000E+01 0.  1.
          5    1    4    4  502    0 -0.10962006533E+02  0.15311978680E+02 -0.33582571120E+01  0.19697466059E+02  0.47000000000E+01 0. -1.
         -5    1    4    4    0  502  0.16637127293E+02  0.23682739939E+02 -0.48700285537E+03  0.48788475823E+03  0.47000000000E+01 0. -1.
<mgrwt>
<rscale>  0 0.34248706E+03</rscale>
<asrwt>0</asrwt>
<pdfrwt beam="1">  1       21 0.16120434E-02 0.34248706E+03</pdfrwt>
<pdfrwt beam="2">  1       21 0.43055130E+00 0.34248706E+03</pdfrwt>
<totfact> 0.84178111E+03</totfact>
</mgrwt>
</event>
<event>
 8    1  0.9974463E-006  0.3480848E+03  0.7546771E-02  0.1063404E+00
         21   -1    0    0  504  503  0.00000000000E+00  0.00000000000E+00  0.72995822321E+02  0.72995822321E+02  0.00000000000E+00 0. -1.
         21   -1    0    0  503  504 -0.00000000000E+00 -0.00000000000E+00 -0.41496563137E+03  0.41496563137E+03  0.00000000000E+00 0. -1.
         25    2    1    2    0    0 -0.75242065529E+02  0.92588987637E+00 -0.30400206806E+03  0.33720171866E+03  0.12500206391E+03 0.  0.
         25    2    1    2    0    0  0.75242065529E+02 -0.92588987637E+00 -0.37967740986E+02  0.15075973503E+03  0.12499889061E+03 0.  0.
          5    1    3    3  501    0 -0.42581100167E+02 -0.22489958011E+02 -0.29056726013E+03  0.29456810921E+03  0.47000000000E+01 0. -1.
         -5    1    3    3    0  501 -0.32660965362E+02  0.23415847887E+02 -0.13434807935E+02  0.42633609452E+02  0.47000000000E+01 0. -1.
          5    1    4    4  502    0  0.50330198021E+02  0.23116900338E+02 -0.79172277538E+02  0.96736029713E+02  0.47000000000E+01 0.  1.
         -5    1    4    4    0  502  0.24911867507E+02 -0.24042790215E+02  0.41204536553E+02  0.54023705320E+02  0.47000000000E+01 0.  1.
<mgrwt>
<rscale>  0 0.34808480E+03</rscale>
<asrwt>0</asrwt>
<pdfrwt beam="1">  1       21 0.11230127E-01 0.34808480E+03</pdfrwt>
<pdfrwt beam="2">  1       21 0.63840865E-01 0.34808480E+03</pdfrwt>
<totfact> 0.14321191E+05</totfact>
</mgrwt>
</event>
<event>
 8    1  0.9974463E-006  0.5887717E+03  0.7546771E-02  0.9928979E-01
         21   -1    0    0  504  503  0.00000000000E+00  0.00000000000E+00  0.45596775942E+03  0.45596775942E+03  0.00000000000E+00 0. -1.
         21   -1    0    0  503  504 -0.00000000000E+00 -0.00000000000E+00 -0.19006395644E+03  0.19006395644E+03  0.00000000000E+00 0. -1.
         25    2    1    2    0    0 -0.22525259056E+03  0.87511786538E+02  0.25632196265E+03  0.37379387018E+03  0.12499546594E+03 0.  0.
         25    2    1    2    0    0  0.22525259056E+03 -0.87511786538E+02  0.95818403347E+01  0.27223784568E+03  0.12499836247E+03 0.  0.
          5    1    3    3  501    0 -0.33000618134E+02  0.42038716093E+02  0.47092017232E+01  0.53856856842E+02  0.47000000000E+01 0. -1.
         -5    1    3    3    0  501 -0.19225197243E+03  0.45473070445E+02  0.25161276093E+03  0.31993701333E+03  0.47000000000E+01 0. -1.
          5    1    4    4  502    0  0.22525848099E+03 -0.94571703566E+02 -0.16406176326E+02  0.24490088402E+03  0.47000000000E+01 0.  1.
         -5    1    4    4    0  502 -0.58904236165E-02  0.70599170284E+01  0.25988016661E+02  0.27336961665E+02  0.47000000000E+01 0.  1.
<mgrwt>
<rscale>  0 0.58877173E+03</rscale>
<asrwt>0</asrwt>
<pdfrwt beam="1">  1       21 0.70148886E-01 0.58877173E+03</pdfrwt>
<pdfrwt beam="2">  1       21 0.29240609E-01 0.58877173E+03</pdfrwt>
<totfact> 0.18065324E+04</totfact>
</mgrwt>
</event>
<event>
 8    1  0.9974463E-006  0.3894947E+03  0.7546771E-02  0.1047479E+00
         21   -1    0    0  504  503  0.00000000000E+00  0.00000000000E+00  0.44816103620E+03  0.44816103620E+03  0.00000000000E+00 0. -1.
         21   -1    0    0  503  504 -0.00000000000E+00 -0.00000000000E+00 -0.84627024599E+02  0.84627024599E+02  0.00000000000E+00 0. -1.
         25    2    1    2    0    0  0.11286627436E+03  0.95286668713E+02  0.21183723752E+03  0.28690986691E+03  0.12499564555E+03 0.  0.
         25    2    1    2    0    0 -0.11286627436E+03 -0.95286668713E+02  0.15169677408E+03  0.24587819389E+03  0.12500331933E+03 0.  0.
          5    1    3    3  501    0  0.12406665030E+03  0.98421329910E+02  0.22060678326E+03  0.27160400350E+03  0.47000000000E+01 0. -1.
         -5    1    3    3    0  501 -0.11200375941E+02 -0.31346611975E+01 -0.87695457403E+01  0.15305863403E+02  0.47000000000E+01 0. -1.
          5    1    4    4  502    0 -0.52331131983E+02 -0.66919424954E+02  0.57445479062E+01  0.85275123228E+02  0.47000000000E+01 0.  1.
         -5    1    4    4    0  502 -0.60535142379E+02 -0.28367243758E+02  0.14595222618E+03  0.16060307067E+03  0.47000000000E+01 0.  1.
<mgrwt>
<rscale>  0 0.38949472E+03</rscale>
<asrwt>0</asrwt>
<pdfrwt beam="1">  1       21 0.68947850E-01 0.38949472E+03</pdfrwt>
<pdfrwt beam="2">  1       21 0.13019543E-01 0.38949472E+03</pdfrwt>
<totfact> 0.91453487E+04</totfact>
</mgrwt>
</event>
<event>
 8    1  0.9974463E-006  0.2636952E+03  0.7546771E-02  0.1104943E+00
         21   -1    0    0  504  503  0.00000000000E+00  0.00000000000E+00  0.21025319507E+03  0.21025319507E+03  0.00000000000E+00 0.  1.
         21   -1    0    0  503  504 -0.00000000000E+00 -0.00000000000E+00 -0.82680275365E+02  0.82680275365E+02  0.00000000000E+00 0.  1.
         25    2    1    2    0    0  0.11230008928E+02  0.40252544275E+02  0.67729722115E+02  0.14818390306E+03  0.12499909378E+03 0.  0.
         25    2    1    2    0    0 -0.11230008928E+02 -0.40252544275E+02  0.59843197595E+02  0.14474956738E+03  0.12499939415E+03 0.  0.
          5    1    3    3  501    0  0.58062840781E+02  0.39926138247E+01  0.40506053956E+00  0.58390825639E+02  0.47000000000E+01 0. -1.
         -5    1    3    3    0  501 -0.46832831853E+02  0.36259930450E+02  0.67324661575E+02  0.89793077416E+02  0.47000000000E+01 0. -1.
          5    1    4    4  502    0  0.32111345976E+02 -0.42190644491E+02  0.80470098779E+02  0.96481686451E+02  0.47000000000E+01 0.  1.
         -5    1    4    4    0  502 -0.43341354904E+02  0.19381002160E+01 -0.20626901184E+02  0.48267880934E+02  0.47000000000E+01 0.  1.
<mgrwt>
<rscale>  0 0.26369522E+03</rscale>
<asrwt>0</asrwt>
<pdfrwt beam="1">  1       21 0.32346645E-01 0.26369522E+03</pdfrwt>
<pdfrwt beam="2">  1       21 0.12720043E-01 0.26369522E+03</pdfrwt>
<totfact> 0.47931531E+05</totfact>
</mgrwt>
</event>
<event>
 8    1  0.9974463E-006  0.3660800E+03  0.7546771E-02  0.1056202E+00
         21   -1    0    0  504  503  0.00000000000E+00  0.00000000000E+00  0.86297769951E+02  0.86297769951E+02  0.00000000000E+00 0. -1.
         21   -1    0    0  503  504 -0.00000000000E+00 -0.00000000000E+00 -0.38823295930E+03  0.38823295930E+03  0.00000000000E+00 0. -1.
         25    2    1    2    0    0 -0.33896379615E+02 -0.31573739910E+02  0.11551339421E+02  0.13387688044E+03  0.12507485787E+03 0.  0.
         25    2    1    2    0    0  0.33896379615E+02  0.31573739910E+02 -0.31348652876E+03  0.34065384881E+03  0.12500150154E+03 0.  0.
          5    1    3    3  501    0 -0.56205832724E+02 -0.48195360929E+02  0.47564730670E+02  0.88127078989E+02  0.47000000000E+01 0.  1.
         -5    1    3    3    0  501  0.22309453109E+02  0.16621621020E+02 -0.36013391249E+02  0.45749801449E+02  0.47000000000E+01 0.  1.
          5    1    4    4  502    0  0.41107813907E+02  0.28477855835E+02 -0.33180598265E+02  0.60198693826E+02  0.47000000000E+01 0.  1.
         -5    1    4    4    0  502 -0.72114342914E+01  0.30958840745E+01 -0.28030593050E+03  0.28045515498E+03  0.47000000000E+01 0.  1.
<mgrwt>
<rscale>  0 0.36607998E+03</rscale>
<asrwt>0</asrwt>
<pdfrwt beam="1">  1       21 0.13276580E-01 0.36607998E+03</pdfrwt>
<pdfrwt beam="2">  1       21 0.59728148E-01 0.36607998E+03</pdfrwt>
<totfact> 0.12178378E+05</totfact>
</mgrwt>
</event>
<event>
 8    1  0.9974463E-006  0.2543110E+03  0.7546771E-02  0.1110610E+00
         21   -1    0    0  504  503  0.00000000000E+00  0.00000000000E+00  0.41907427626E+03  0.41907427626E+03  0.00000000000E+00 0.  1.
         21   -1    0    0  503  504 -0.00000000000E+00 -0.00000000000E+00 -0.38581512877E+02  0.38581512877E+02  0.00000000000E+00 0.  1.
         25    2    1    2    0    0  0.14860082623E+02 -0.17194503424E+02  0.18049535163E+03  0.22072417201E+03  0.12499646053E+03 0.  0.
         25    2    1    2    0    0 -0.14860082623E+02  0.17194503424E+02  0.19999741175E+03  0.23693161713E+03  0.12498461299E+03 0.  0.
          5    1    3    3  501    0  0.45602811986E+02 -0.58771524971E+02  0.95813185630E+02  0.12139178370E+03  0.47000000000E+01 0. -1.
         -5    1    3    3    0  501 -0.30742729363E+02  0.41577021547E+02  0.84682165999E+02  0.99332388312E+02  0.47000000000E+01 0. -1.
          5    1    4    4  502    0 -0.32864453862E+02  0.64336285920E+02  0.14546148316E+03  0.16248188544E+03  0.47000000000E+01 0. -1.
         -5    1    4    4    0  502  0.18004371239E+02 -0.47141782496E+02  0.54535928592E+02  0.74449731685E+02  0.47000000000E+01 0. -1.
<mgrwt>
<rscale>  0 0.25431099E+03</rscale>
<asrwt>0</asrwt>
<pdfrwt beam="1">  1       21 0.64472963E-01 0.25431099E+03</pdfrwt>
<pdfrwt beam="2">  1       21 0.59356176E-02 0.25431099E+03</pdfrwt>
<totfact> 0.43949103E+05</totfact>
</mgrwt>
</event>
<event>
 8    1  0.9974463E-006  0.3070744E+03  0.7546771E-02  0.1081757E+00
         21   -1    0    0  504  503  0.00000000000E+00  0.00000000000E+00  0.52106786192E+02  0.52106786192E+02  0.00000000000E+00 0.  1.
         21   -1    0    0  503  504 -0.00000000000E+00 -0.00000000000E+00 -0.45241092522E+03  0.45241092522E+03  0.00000000000E+00 0.  1.
         25    2    1    2    0    0  0.44418407313E+02  0.45435007717E+02 -0.97399029753E+02  0.17073101682E+03  0.12500069709E+03 0.  0.
         25    2    1    2    0    0 -0.44418407313E+02 -0.45435007717E+02 -0.30290510928E+03  0.33378669459E+03  0.12499886970E+03 0.  0.
          5    1    3    3  501    0 -0.10236129700E+02  0.76324547898E+02 -0.57087831050E+02  0.95975650126E+02  0.47000000000E+01 0.  1.
         -5    1    3    3    0  501  0.54654537013E+02 -0.30889540181E+02 -0.40311198703E+02  0.74755366694E+02  0.47000000000E+01 0.  1.
          5    1    4    4  502    0 -0.47221160059E+02 -0.15531965170E+02 -0.28080723614E+02  0.57286097249E+02  0.47000000000E+01 0. -1.
         -5    1    4    4    0  502  0.28027527468E+01 -0.29903042547E+02 -0.27482438566E+03  0.27650059734E+03  0.47000000000E+01 0. -1.
<mgrwt>
<rscale>  0 0.30707445E+03</rscale>
<asrwt>0</asrwt>
<pdfrwt beam="1">  1       21 0.80164284E-02 0.30707445E+03</pdfrwt>
<pdfrwt beam="2">  1       21 0.69601683E-01 0.30707445E+03</pdfrwt>
<totfact> 0.21754585E+05</totfact>
</mgrwt>
</event>
<event>
 8    1  0.9974463E-006  0.2853935E+03  0.7546771E-02  0.1092779E+00
         21   -1    0    0  504  503  0.00000000000E+00  0.00000000000E+00  0.91729130594E+03  0.91729130594E+03  0.00000000000E+00 0.  1.
         21   -1    0    0  503  504 -0.00000000000E+00 -0.00000000000E+00 -0.22198360158E+02  0.22198360158E+02  0.00000000000E+00 0.  1.
         25    2    1    2    0    0  0.47364399323E+02 -0.26333325944E+02  0.58707218675E+03  0.60267585788E+03  0.12501042692E+03 0.  0.
         25    2    1    2    0    0 -0.47364399323E+02  0.26333325944E+02  0.30802075903E+03  0.33681380822E+03  0.12501969058E+03 0.  0.
          5    1    3    3  501    0 -0.68000073279E+01  0.74100954172E+01 -0.98739885845E+00  0.11145159050E+02  0.47000000000E+01 0. -1.
         -5    1    3    3    0  501  0.54164406650E+02 -0.33743421362E+02  0.58805958561E+03  0.59153069883E+03  0.47000000000E+01 0. -1.
          5    1    4    4  502    0 -0.10873270819E+02 -0.41685334415E+02  0.19573458041E+03  0.20047446493E+03  0.47000000000E+01 0.  1.
         -5    1    4    4    0  502 -0.36491128503E+02  0.68018660359E+02  0.11228617863E+03  0.13633934328E+03  0.47000000000E+01 0.  1.
<mgrwt>
<rscale>  0 0.28539350E+03</rscale>
<asrwt>0</asrwt>
<pdfrwt beam="1">  1       21 0.14112171E+00 0.28539350E+03</pdfrwt>
<pdfrwt beam="2">  1       21 0.34151330E-02 0.28539350E+03</pdfrwt>
<totfact> 0.17298285E+05</totfact>
</mgrwt>
</event>
<event>
 8    1  0.9974463E-006  0.4084871E+03  0.7546771E-02  0.1040880E+00
         21   -1    0    0  504  503  0.00000000000E+00  0.00000000000E+00  0.15446916173E+03  0.15446916173E+03  0.00000000000E+00 0. -1.
         21   -1    0    0  503  504 -0.00000000000E+00 -0.00000000000E+00 -0.27005669745E+03  0.27005669745E+03  0.00000000000E+00 0. -1.
         25    2    1    2    0    0  0.79213837763E+02 -0.12621483341E+03 -0.12256897292E+03  0.22990077973E+03  0.12500479643E+03 0.  0.
         25    2    1    2    0    0 -0.79213837763E+02  0.12621483341E+03  0.69814372041E+01  0.19462507946E+03  0.12500065928E+03 0.  0.
          5    1    3    3  501    0  0.19350870329E+02 -0.10303839330E+03 -0.17079816430E+02  0.10632580498E+03  0.47000000000E+01 0.  1.
         -5    1    3    3    0  501  0.59862967433E+02 -0.23176440117E+02 -0.10548915649E+03  0.12357497474E+03  0.47000000000E+01 0.  1.
          5    1    4    4  502    0 -0.11142646577E+03  0.89943680273E+02 -0.83908632636E+01  0.14352079808E+03  0.47000000000E+01 0. -1.
         -5    1    4    4    0  502  0.32212628007E+02  0.36271153141E+02  0.15372300468E+02  0.51104281376E+02  0.47000000000E+01 0. -1.
<mgrwt>
<rscale>  0 0.40848712E+03</rscale>
<asrwt>0</asrwt>
<pdfrwt beam="1">  1       21 0.23764487E-01 0.40848712E+03</pdfrwt>
<pdfrwt beam="2">  1       21 0.41547184E-01 0.40848712E+03</pdfrwt>
<totfact> 0.87320899E+04</totfact>
</mgrwt>
</event>
<event>
 8    1  0.9974463E-006  0.3491827E+03  0.7546771E-02  0.1062951E+00
         21   -1    0    0  504  503  0.00000000000E+00  0.00000000000E+00  0.82261851119E+02  0.82261851119E+02  0.00000000000E+00 0. -1.
         21   -1    0    0  503  504 -0.00000000000E+00 -0.00000000000E+00 -0.37055010891E+03  0.37055010891E+03  0.00000000000E+00 0. -1.
         25    2    1    2    0    0  0.12045747606E+03  0.88793422992E+01 -0.16567275441E+03  0.24010181669E+03  0.12495028837E+03 0.  0.
         25    2    1    2    0    0 -0.12045747606E+03 -0.88793422992E+01 -0.12261550338E+03  0.21271014334E+03  0.12498878810E+03 0.  0.
          5    1    3    3  501    0  0.56680198661E+02 -0.35881854831E+02 -0.12802623563E+02  0.68455457025E+02  0.47000000000E+01 0.  1.
         -5    1    3    3    0  501  0.63777277402E+02  0.44761197131E+02 -0.15287013084E+03  0.17164635966E+03  0.47000000000E+01 0.  1.
          5    1    4    4  502    0 -0.22371726997E+02  0.46068957274E+02 -0.74034409682E+02  0.90144477425E+02  0.47000000000E+01 0.  1.
         -5    1    4    4    0  502 -0.98085749066E+02 -0.54948299574E+02 -0.48581093700E+02  0.12256566591E+03  0.47000000000E+01 0.  1.
<mgrwt>
<rscale>  0 0.34918269E+03</rscale>
<asrwt>0</asrwt>
<pdfrwt beam="1">  1       21 0.12655670E-01 0.34918269E+03</pdfrwt>
<pdfrwt beam="2">  1       21 0.57007708E-01 0.34918269E+03</pdfrwt>
<totfact> 0.14759445E+05</totfact>
</mgrwt>
</event>
<event>
 8    1  0.9974463E-006  0.2770798E+03  0.7546771E-02  0.1097295E+00
         21   -1    0    0  504  503  0.00000000000E+00  0.00000000000E+00  0.28611831485E+03  0.28611831485E+03  0.00000000000E+00 0. -1.
         21   -1    0    0  503  504 -0.00000000000E+00 -0.00000000000E+00 -0.67081712952E+02  0.67081712952E+02  0.00000000000E+00 0. -1.
         25    2    1    2    0    0  0.27387390147E+02 -0.42316847480E+02  0.68657218314E+02  0.15125790012E+03  0.12499741598E+03 0.  0.
         25    2    1    2    0    0 -0.27387390147E+02  0.42316847480E+02  0.15037938359E+03  0.20194212769E+03  0.12500351678E+03 0.  0.
          5    1    3    3  501    0 -0.17072951382E+02  0.36725105101E+02  0.37089671071E+02  0.55117626162E+02  0.47000000000E+01 0.  1.
         -5    1    3    3    0  501  0.44460341529E+02 -0.79041952582E+02  0.31567547243E+02  0.96140273953E+02  0.47000000000E+01 0.  1.
          5    1    4    4  502    0 -0.21670276108E+02  0.62858734824E+02  0.16343320894E+03  0.17650304585E+03  0.47000000000E+01 0.  1.
         -5    1    4    4    0  502 -0.57171140395E+01 -0.20541887344E+02 -0.13053825351E+02  0.25439081840E+02  0.47000000000E+01 0.  1.
<mgrwt>
<rscale>  0 0.27707982E+03</rscale>
<asrwt>0</asrwt>
<pdfrwt beam="1">  1       21 0.44018202E-01 0.27707982E+03</pdfrwt>
<pdfrwt beam="2">  1       21 0.10320264E-01 0.27707982E+03</pdfrwt>
<totfact> 0.37346078E+05</totfact>
</mgrwt>
</event>
<event>
 8    1  0.9974463E-006  0.3387576E+03  0.7546771E-02  0.1067326E+00
         21   -1    0    0  504  503  0.00000000000E+00  0.00000000000E+00  0.49087771970E+02  0.49087771970E+02  0.00000000000E+00 0. -1.
         21   -1    0    0  503  504 -0.00000000000E+00 -0.00000000000E+00 -0.58444649621E+03  0.58444649621E+03  0.00000000000E+00 0. -1.
         25    2    1    2    0    0 -0.11244310936E+03 -0.16627589074E+02 -0.24520532803E+03  0.29777527280E+03  0.12499812253E+03 0.  0.
         25    2    1    2    0    0  0.11244310936E+03  0.16627589074E+02 -0.29015339621E+03  0.33575899538E+03  0.12500072033E+03 0.  0.
          5    1    3    3  501    0  0.13869661802E+02 -0.30150700013E+02 -0.19623265394E+02  0.38840633034E+02  0.47000000000E+01 0. -1.
         -5    1    3    3    0  501 -0.12631277116E+03  0.13523110940E+02 -0.22558206263E+03  0.25893463976E+03  0.47000000000E+01 0. -1.
          5    1    4    4  502    0  0.15127388768E+02  0.67588331103E+01 -0.20577247485E+03  0.20649193960E+03  0.47000000000E+01 0.  1.
         -5    1    4    4    0  502  0.97315720593E+02  0.98687559634E+01 -0.84380921367E+02  0.12926705578E+03  0.47000000000E+01 0.  1.
<mgrwt>
<rscale>  0 0.33875759E+03</rscale>
<asrwt>0</asrwt>
<pdfrwt beam="1">  1       21 0.75519648E-02 0.33875759E+03</pdfrwt>
<pdfrwt beam="2">  1       21 0.89914847E-01 0.33875759E+03</pdfrwt>
<totfact> 0.13351325E+05</totfact>
</mgrwt>
</event>
<event>
 8    1  0.9974463E-006  0.4331916E+03  0.7546771E-02  0.1032856E+00
         21   -1    0    0  504  503  0.00000000000E+00  0.00000000000E+00  0.37468854002E+03  0.37468854002E+03  0.00000000000E+00 0.  1.
         21   -1    0    0  503  504 -0.00000000000E+00 -0.00000000000E+00 -0.12520732252E+03  0.12520732252E+03  0.00000000000E+00 0.  1.
         25    2    1    2    0    0  0.30528225507E+02  0.14683147612E+03  0.16491778044E+02  0.19592233454E+03  0.12498850946E+03 0.  0.
         25    2    1    2    0    0 -0.30528225507E+02 -0.14683147612E+03  0.23298943945E+03  0.30397352800E+03  0.12499748757E+03 0.  0.
          5    1    3    3  501    0  0.44454923710E+02  0.10768516554E+03 -0.42079926597E+02  0.12395622349E+03  0.47000000000E+01 0.  1.
         -5    1    3    3    0  501 -0.13926698203E+02  0.39146310576E+02  0.58571704642E+02  0.71966111047E+02  0.47000000000E+01 0.  1.
          5    1    4    4  502    0  0.28895516804E+01  0.17989225043E+02  0.30559260893E+01  0.19062801757E+02  0.47000000000E+01 0.  1.
         -5    1    4    4    0  502 -0.33417777187E+02 -0.16482070116E+03  0.22993351336E+03  0.28491072624E+03  0.47000000000E+01 0.  1.
<mgrwt>
<rscale>  0 0.43319164E+03</rscale>
<asrwt>0</asrwt>
<pdfrwt beam="1">  1       21 0.57644390E-01 0.43319164E+03</pdfrwt>
<pdfrwt beam="2">  1       21 0.19262665E-01 0.43319164E+03</pdfrwt>
<totfact> 0.64880007E+04</totfact>
</mgrwt>
</event>
<event>
 8    1  0.9974463E-006  0.2881656E+03  0.7546771E-02  0.1091311E+00
         21   -1    0    0  504  503  0.00000000000E+00  0.00000000000E+00  0.37989373460E+02  0.37989373460E+02  0.00000000000E+00 0.  1.
         21   -1    0    0  503  504 -0.00000000000E+00 -0.00000000000E+00 -0.54646481672E+03  0.54646481672E+03  0.00000000000E+00 0.  1.
         25    2    1    2    0    0  0.41968755278E+02 -0.53290536761E+02 -0.20730643754E+03  0.25140098949E+03  0.12500096295E+03 0.  0.
         25    2    1    2    0    0 -0.41968755278E+02  0.53290536761E+02 -0.30116900572E+03  0.33305320070E+03  0.12498162570E+03 0.  0.
          5    1    3    3  501    0 -0.33901032408E+02  0.49014323154E+01 -0.17346596219E+02  0.38682016978E+02  0.47000000000E+01 0.  1.
         -5    1    3    3    0  501  0.75869787686E+02 -0.58191969077E+02 -0.18995984133E+03  0.21271897251E+03  0.47000000000E+01 0.  1.
          5    1    4    4  502    0 -0.12015850740E+02  0.67521300635E+02 -0.65286298618E+02  0.94804522548E+02  0.47000000000E+01 0. -1.
         -5    1    4    4    0  502 -0.29952904539E+02 -0.14230763873E+02 -0.23588270710E+03  0.23824867815E+03  0.47000000000E+01 0. -1.
<mgrwt>
<rscale>  0 0.28816562E+03</rscale>
<asrwt>0</asrwt>
<pdfrwt beam="1">  1       21 0.58445194E-02 0.28816562E+03</pdfrwt>
<pdfrwt beam="2">  1       21 0.84071504E-01 0.28816562E+03</pdfrwt>
<totfact> 0.24683569E+05</totfact>
</mgrwt>
</event>
<event>
 8    1  0.9974463E-006  0.2698793E+03  0.7546771E-02  0.1101349E+00
         21   -1    0    0  504  503  0.00000000000E+00  0.00000000000E+00  0.80592066145E+02  0.80592066145E+02  0.00000000000E+00 0.  1.
         21   -1    0    0  503  504 -0.00000000000E+00 -0.00000000000E+00 -0.22593666725E+03  0.22593666725E+03  0.00000000000E+00 0.  1.
         25    2    1    2    0    0  0.92709724357E+00 -0.28792398397E+02 -0.12023447781E+03  0.17581675783E+03  0.12500136384E+03 0.  0.
         25    2    1    2    0    0 -0.92709724357E+00  0.28792398397E+02 -0.25110123294E+02  0.13071197557E+03  0.12500096220E+03 0.  0.
          5    1    3    3  501    0 -0.31377434822E+02  0.30372529194E+02 -0.77564651075E+01  0.44601420343E+02  0.47000000000E+01 0. -1.
         -5    1    3    3    0  501  0.32304532065E+02 -0.59164927591E+02 -0.11247801271E+03  0.13121533748E+03  0.47000000000E+01 0. -1.
          5    1    4    4  502    0  0.16987312020E+02 -0.47026280512E+02 -0.10572397993E+02  0.51321588321E+02  0.47000000000E+01 0.  1.
         -5    1    4    4    0  502 -0.17914409264E+02  0.75818678909E+02 -0.14537725301E+02  0.79390387250E+02  0.47000000000E+01 0.  1.
<mgrwt>
<rscale>  0 0.26987925E+03</rscale>
<asrwt>0</asrwt>
<pdfrwt beam="1">  1       21 0.12398780E-01 0.26987925E+03</pdfrwt>
<pdfrwt beam="2">  1       21 0.34759487E-01 0.26987925E+03</pdfrwt>
<totfact> 0.43456753E+05</totfact>
</mgrwt>
</event>
<event>
 8    1  0.9974463E-006  0.2577553E+03  0.7546771E-02  0.1108499E+00
         21   -1    0    0  504  503  0.00000000000E+00  0.00000000000E+00  0.51378030141E+02  0.51378030141E+02  0.00000000000E+00 0.  1.
         21   -1    0    0  503  504 -0.00000000000E+00 -0.00000000000E+00 -0.32327927623E+03  0.32327927623E+03  0.00000000000E+00 0.  1.
         25    2    1    2    0    0 -0.23443347562E+02  0.11688512909E+02 -0.11086249113E+03  0.16912080332E+03  0.12500056918E+03 0.  0.
         25    2    1    2    0    0  0.23443347562E+02 -0.11688512909E+02 -0.16103875496E+03  0.20553650306E+03  0.12500224642E+03 0.  0.
          5    1    3    3  501    0  0.28727864652E+02  0.39916582909E+02 -0.76616650327E+01  0.49994148755E+02  0.47000000000E+01 0. -1.
         -5    1    3    3    0  501 -0.52171212214E+02 -0.28228070000E+02 -0.10320082610E+03  0.11912665456E+03  0.47000000000E+01 0. -1.
          5    1    4    4  502    0  0.67752689945E+01 -0.66109518716E+02 -0.11173145849E+03  0.13008605441E+03  0.47000000000E+01 0.  1.
         -5    1    4    4    0  502  0.16668078568E+02  0.54421005807E+02 -0.49307296465E+02  0.75450448646E+02  0.47000000000E+01 0.  1.
<mgrwt>
<rscale>  0 0.25775533E+03</rscale>
<asrwt>0</asrwt>
<pdfrwt beam="1">  1       21 0.79043121E-02 0.25775533E+03</pdfrwt>
<pdfrwt beam="2">  1       21 0.49735274E-01 0.25775533E+03</pdfrwt>
<totfact> 0.46575767E+05</totfact>
</mgrwt>
</event>
<event>
 8    1  0.9974463E-006  0.2879236E+03  0.7546771E-02  0.1091438E+00
         21   -1    0    0  504  503  0.00000000000E+00  0.00000000000E+00  0.19711351182E+02  0.19711351182E+02  0.00000000000E+00 0. -1.
         21   -1    0    0  503  504 -0.00000000000E+00 -0.00000000000E+00 -0.10514247047E+04  0.10514247047E+04  0.00000000000E+00 0. -1.
         25    2    1    2    0    0  0.22700168364E+02 -0.44945066105E+02 -0.70424874739E+03  0.71702683587E+03  0.12500331412E+03 0.  0.
         25    2    1    2    0    0 -0.22700168364E+02  0.44945066105E+02 -0.32746460610E+03  0.35410921999E+03  0.12499965928E+03 0.  0.
          5    1    3    3  501    0  0.63123144620E+02 -0.62308194598E+02 -0.52068376183E+03  0.52820499083E+03  0.47000000000E+01 0. -1.
         -5    1    3    3    0  501 -0.40422976255E+02  0.17363128493E+02 -0.18356498556E+03  0.18882184504E+03  0.47000000000E+01 0. -1.
          5    1    4    4  502    0  0.37323318951E+02 -0.14043872402E+02 -0.17841043176E+03  0.18287326937E+03  0.47000000000E+01 0. -1.
         -5    1    4    4    0  502 -0.60023487315E+02  0.58988938507E+02 -0.14905417435E+03  0.17123595062E+03  0.47000000000E+01 0. -1.
<mgrwt>
<rscale>  0 0.28792361E+03</rscale>
<asrwt>0</asrwt>
<pdfrwt beam="1">  1       21 0.30325156E-02 0.28792361E+03</pdfrwt>
<pdfrwt beam="2">  1       21 0.16175764E+00 0.28792361E+03</pdfrwt>
<totfact> 0.14621481E+05</totfact>
</mgrwt>
</event>
<event>
 8    1  0.9974463E-006  0.4313283E+03  0.7546771E-02  0.1033441E+00
         21   -1    0    0  504  503  0.00000000000E+00  0.00000000000E+00  0.36840312798E+02  0.36840312798E+02  0.00000000000E+00 0. -1.
         21   -1    0    0  503  504 -0.00000000000E+00 -0.00000000000E+00 -0.12625032616E+04  0.12625032616E+04  0.00000000000E+00 0. -1.
         25    2    1    2    0    0  0.11265734828E+02  0.82657007931E+02 -0.10788030156E+04  0.10892188227E+04  0.12499039758E+03 0.  0.
         25    2    1    2    0    0 -0.11265734828E+02 -0.82657007931E+02 -0.14685993326E+03  0.21012475177E+03  0.12500189426E+03 0.  0.
          5    1    3    3  501    0 -0.19723056721E+02  0.74910792249E+01 -0.75574396905E+03  0.75605300872E+03  0.47000000000E+01 0. -1.
         -5    1    3    3    0  501  0.30988791550E+02  0.75165928706E+02 -0.32305904652E+03  0.33316581394E+03  0.47000000000E+01 0. -1.
          5    1    4    4  502    0  0.17153263325E+01  0.24337972225E+02  0.34727547185E+01  0.25088428842E+02  0.47000000000E+01 0.  1.
         -5    1    4    4    0  502 -0.12981061161E+02 -0.10699498016E+03 -0.15033268798E+03  0.18503632293E+03  0.47000000000E+01 0.  1.
<mgrwt>
<rscale>  0 0.43132825E+03</rscale>
<asrwt>0</asrwt>
<pdfrwt beam="1">  1       21 0.56677397E-02 0.43132825E+03</pdfrwt>
<pdfrwt beam="2">  1       21 0.19423129E+00 0.43132825E+03</pdfrwt>
<totfact> 0.28429664E+04</totfact>
</mgrwt>
</event>
<event>
 8    1  0.9974463E-006  0.3298301E+03  0.7546771E-02  0.1071212E+00
         21   -1    0    0  504  503  0.00000000000E+00  0.00000000000E+00  0.45993836127E+03  0.45993836127E+03  0.00000000000E+00 0. -1.
         21   -1    0    0  503  504 -0.00000000000E+00 -0.00000000000E+00 -0.59131795851E+02  0.59131795851E+02  0.00000000000E+00 0. -1.
         25    2    1    2    0    0 -0.52898445699E+01 -0.87434093879E+02  0.29866880517E+03  0.33540941021E+03  0.12499485609E+03 0.  0.
         25    2    1    2    0    0  0.52898445699E+01  0.87434093879E+02  0.10213776025E+03  0.18366074691E+03  0.12500577850E+03 0.  0.
          5    1    3    3  501    0 -0.48982573694E+02 -0.95416707391E+02  0.19677518569E+03  0.22415665120E+03  0.47000000000E+01 0.  1.
         -5    1    3    3    0  501  0.43692729124E+02  0.79826135120E+01  0.10189361947E+03  0.11125275901E+03  0.47000000000E+01 0.  1.
          5    1    4    4  502    0 -0.45202699105E+02  0.41481720958E+02  0.99218186745E+00  0.61539350052E+02  0.47000000000E+01 0. -1.
         -5    1    4    4    0  502  0.50492543675E+02  0.45952372921E+02  0.10114557839E+03  0.12212139686E+03  0.47000000000E+01 0. -1.
<mgrwt>
<rscale>  0 0.32983015E+03</rscale>
<asrwt>0</asrwt>
<pdfrwt beam="1">  1       21 0.70759746E-01 0.32983015E+03</pdfrwt>
<pdfrwt beam="2">  1       21 0.90971997E-02 0.32983015E+03</pdfrwt>
<totfact> 0.16682463E+05</totfact>
</mgrwt>
</event>
<event>
 8    1  0.9974463E-006  0.2934219E+03  0.7546771E-02  0.1088576E+00
         21   -1    0    0  504  503  0.00000000000E+00  0.00000000000E+00  0.21760161217E+02  0.21760161217E+02  0.00000000000E+00 0.  1.
         21   -1    0    0  503  504 -0.00000000000E+00 -0.00000000000E+00 -0.98915194858E+03  0.98915194858E+03  0.00000000000E+00 0.  1.
         25    2    1    2    0    0 -0.24752417024E+02 -0.53247439133E+02 -0.65410674834E+03  0.66853453506E+03  0.12503925155E+03 0.  0.
         25    2    1    2    0    0  0.24752417024E+02  0.53247439133E+02 -0.31328503902E+03  0.34237757473E+03  0.12500766409E+03 0.  0.
          5    1    3    3  501    0 -0.29634796305E+02 -0.49714316388E+02 -0.65758057987E+03  0.66013941212E+03  0.47000000000E+01 0. -1.
         -5    1    3    3    0  501  0.48823792812E+01 -0.35331227457E+01  0.34738315324E+01  0.83951229472E+01  0.47000000000E+01 0. -1.
          5    1    4    4  502    0  0.65985396200E+02 -0.17965663428E+01 -0.18905845208E+03  0.20030598709E+03  0.47000000000E+01 0. -1.
         -5    1    4    4    0  502 -0.41232979176E+02  0.55044005476E+02 -0.12422658694E+03  0.14207158764E+03  0.47000000000E+01 0. -1.
<mgrwt>
<rscale>  0 0.29342192E+03</rscale>
<asrwt>0</asrwt>
<pdfrwt beam="1">  1       21 0.33477172E-02 0.29342192E+03</pdfrwt>
<pdfrwt beam="2">  1       21 0.15217722E+00 0.29342192E+03</pdfrwt>
<totfact> 0.14603771E+05</totfact>
</mgrwt>
</event>
<event>
 8    1  0.9974463E-006  0.2754014E+03  0.7546771E-02  0.1098227E+00
         21   -1    0    0  504  503  0.00000000000E+00  0.00000000000E+00  0.80161153851E+02  0.80161153851E+02  0.00000000000E+00 0. -1.
         21   -1    0    0  503  504 -0.00000000000E+00 -0.00000000000E+00 -0.23654208788E+03  0.23654208788E+03  0.00000000000E+00 0. -1.
         25    2    1    2    0    0 -0.27660042981E+02  0.48121962887E+02 -0.96563258391E+02  0.16742122349E+03  0.12499840765E+03 0.  0.
         25    2    1    2    0    0  0.27660042981E+02 -0.48121962887E+02 -0.59817675633E+02  0.14928201823E+03  0.12500466135E+03 0.  0.
          5    1    3    3  501    0 -0.78820674508E-02  0.59968027229E+02 -0.11644044799E+03  0.13105965161E+03  0.47000000000E+01 0. -1.
         -5    1    3    3    0  501 -0.27652160914E+02 -0.11846064342E+02  0.19877189598E+02  0.36361571884E+02  0.47000000000E+01 0. -1.
          5    1    4    4  502    0  0.49399764446E+02 -0.82068254331E+02 -0.46386969487E+02  0.10653345031E+03  0.47000000000E+01 0.  1.
         -5    1    4    4    0  502 -0.21739721465E+02  0.33946291444E+02 -0.13430706146E+02  0.42748567926E+02  0.47000000000E+01 0.  1.
<mgrwt>
<rscale>  0 0.27540143E+03</rscale>
<asrwt>0</asrwt>
<pdfrwt beam="1">  1       21 0.12332485E-01 0.27540143E+03</pdfrwt>
<pdfrwt beam="2">  1       21 0.36391090E-01 0.27540143E+03</pdfrwt>
<totfact> 0.39983156E+05</totfact>
</mgrwt>
</event>
<event>
 8    1  0.9974463E-006  0.3737273E+03  0.7546771E-02  0.1053277E+00
         21   -1    0    0  504  503  0.00000000000E+00  0.00000000000E+00  0.98577610050E+02  0.98577610050E+02  0.00000000000E+00 0. -1.
         21   -1    0    0  503  504 -0.00000000000E+00 -0.00000000000E+00 -0.35421854982E+03  0.35421854982E+03  0.00000000000E+00 0. -1.
         25    2    1    2    0    0  0.11687729715E+03 -0.24223038369E+02 -0.21387705776E+03  0.27498692524E+03  0.12500941981E+03 0.  0.
         25    2    1    2    0    0 -0.11687729715E+03  0.24223038369E+02 -0.41763882017E+02  0.17780923464E+03  0.12499937561E+03 0.  0.
          5    1    3    3  501    0  0.17050919117E+01  0.37986031510E+02 -0.27393704437E+02  0.47099373362E+02  0.47000000000E+01 0. -1.
         -5    1    3    3    0  501  0.11517220524E+03 -0.62209069879E+02 -0.18648335332E+03  0.22788755188E+03  0.47000000000E+01 0. -1.
          5    1    4    4  502    0 -0.75279041478E+02  0.37215582439E+02  0.33644548825E+02  0.90586860679E+02  0.47000000000E+01 0.  1.
         -5    1    4    4    0  502 -0.41598255674E+02 -0.12992544071E+02 -0.75408430841E+02  0.87222373956E+02  0.47000000000E+01 0.  1.
<mgrwt>
<rscale>  0 0.37372727E+03</rscale>
<asrwt>0</asrwt>
<pdfrwt beam="1">  1       21 0.15165786E-01 0.37372727E+03</pdfrwt>
<pdfrwt beam="2">  1       21 0.54495162E-01 0.37372727E+03</pdfrwt>
<totfact> 0.11606921E+05</totfact>
</mgrwt>
</event>
<event>
 8    1  0.9974463E-006  0.2980389E+03  0.7546771E-02  0.1086225E+00
         21   -1    0    0  504  503  0.00000000000E+00  0.00000000000E+00  0.40628800977E+03  0.40628800977E+03  0.00000000000E+00 0.  1.
         21   -1    0    0  503  504 -0.00000000000E+00 -0.00000000000E+00 -0.54657776686E+02  0.54657776686E+02  0.00000000000E+00 0.  1.
         25    2    1    2    0    0  0.24500263927E+02  0.60155552879E+02  0.10062440819E+03  0.17311292210E+03  0.12499543512E+03 0.  0.
         25    2    1    2    0    0 -0.24500263927E+02 -0.60155552879E+02  0.25100582490E+03  0.28783286435E+03  0.12499952077E+03 0.  0.
          5    1    3    3  501    0 -0.20781594560E+01  0.69769238662E+02  0.11973359246E+03  0.13867331602E+03  0.47000000000E+01 0.  1.
         -5    1    3    3    0  501  0.26578423383E+02 -0.96136857828E+01 -0.19109184277E+02  0.34439606089E+02  0.47000000000E+01 0.  1.
          5    1    4    4  502    0 -0.49859496715E+02 -0.81840423697E+02  0.12604406396E+03  0.15840776630E+03  0.47000000000E+01 0. -1.
         -5    1    4    4    0  502  0.25359232788E+02  0.21684870818E+02  0.12496176093E+03  0.12942509805E+03  0.47000000000E+01 0. -1.
<mgrwt>
<rscale>  0 0.29803892E+03</rscale>
<asrwt>0</asrwt>
<pdfrwt beam="1">  1       21 0.62505846E-01 0.29803892E+03</pdfrwt>
<pdfrwt beam="2">  1       21 0.84088890E-02 0.29803892E+03</pdfrwt>
<totfact> 0.25405545E+05</totfact>
</mgrwt>
</event>
<event>
 8    1  0.9974463E-006  0.2711431E+03  0.7546771E-02  0.1100627E+00
         21   -1    0    0  504  503  0.00000000000E+00  0.00000000000E+00  0.39664148984E+02  0.39664148984E+02  0.00000000000E+00 0.  1.
         21   -1    0    0  503  504 -0.00000000000E+00 -0.00000000000E+00 -0.46338170673E+03  0.46338170673E+03  0.00000000000E+00 0.  1.
         25    2    1    2    0    0  0.26342461556E+01  0.37046547361E+02 -0.14306956377E+03  0.19357785941E+03  0.12499640655E+03 0.  0.
         25    2    1    2    0    0 -0.26342461556E+01 -0.37046547361E+02 -0.28064799398E+03  0.30946799631E+03  0.12501103268E+03 0.  0.
          5    1    3    3  501    0 -0.16416450944E+01  0.69757157315E+02 -0.30708165901E+02  0.76379561718E+02  0.47000000000E+01 0. -1.
         -5    1    3    3    0  501  0.42758912500E+01 -0.32710609954E+02 -0.11236139787E+03  0.11719829769E+03  0.47000000000E+01 0. -1.
          5    1    4    4  502    0  0.49661230910E+02  0.18697350690E+02 -0.10125169713E+03  0.11441077287E+03  0.47000000000E+01 0.  1.
         -5    1    4    4    0  502 -0.52295477066E+02 -0.55743898051E+02 -0.17939629685E+03  0.19505722343E+03  0.47000000000E+01 0.  1.
<mgrwt>
<rscale>  0 0.27114307E+03</rscale>
<asrwt>0</asrwt>
<pdfrwt beam="1">  1       21 0.61021768E-02 0.27114307E+03</pdfrwt>
<pdfrwt beam="2">  1       21 0.71289492E-01 0.27114307E+03</pdfrwt>
<totfact> 0.33438257E+05</totfact>
</mgrwt>
</event>
<event>
 8    1  0.9974463E-006  0.2954398E+03  0.7546771E-02  0.1087543E+00
         21   -1    0    0  504  503  0.00000000000E+00  0.00000000000E+00  0.83933581227E+03  0.83933581227E+03  0.00000000000E+00 0. -1.
         21   -1    0    0  503  504 -0.00000000000E+00 -0.00000000000E+00 -0.25998133815E+02  0.25998133815E+02  0.00000000000E+00 0. -1.
         25    2    1    2    0    0  0.49196351723E+02  0.47277093701E+02  0.52168142048E+03  0.54076982540E+03  0.12500037991E+03 0.  0.
         25    2    1    2    0    0 -0.49196351723E+02 -0.47277093701E+02  0.29165625798E+03  0.32456412069E+03  0.12499236380E+03 0.  0.
          5    1    3    3  501    0 -0.35042047318E+02  0.57316170467E+01  0.62310949738E+02  0.71871697986E+02  0.47000000000E+01 0.  1.
         -5    1    3    3    0  501  0.84238399041E+02  0.41545476654E+02  0.45937047074E+03  0.46889812741E+03  0.47000000000E+01 0.  1.
          5    1    4    4  502    0 -0.48164611581E+02  0.18817097846E+02  0.22369248036E+03  0.22963956268E+03  0.47000000000E+01 0. -1.
         -5    1    4    4    0  502 -0.10317401423E+01 -0.66094191547E+02  0.67963777622E+02  0.94924558006E+02  0.47000000000E+01 0. -1.
<mgrwt>
<rscale>  0 0.29543977E+03</rscale>
<asrwt>0</asrwt>
<pdfrwt beam="1">  1       21 0.12912857E+00 0.29543977E+03</pdfrwt>
<pdfrwt beam="2">  1       21 0.39997135E-02 0.29543977E+03</pdfrwt>
<totfact> 0.16631341E+05</totfact>
</mgrwt>
</event>
<event>
 8    1  0.9974463E-006  0.2814573E+03  0.7546771E-02  0.1094896E+00
         21   -1    0    0  504  503  0.00000000000E+00  0.00000000000E+00  0.31129785109E+03  0.31129785109E+03  0.00000000000E+00 0.  1.
         21   -1    0    0  503  504 -0.00000000000E+00 -0.00000000000E+00 -0.63619302335E+02  0.63619302335E+02  0.00000000000E+00 0.  1.
         25    2    1    2    0    0  0.29333273653E+02 -0.53588975805E+02  0.95711704296E+02  0.16887555197E+03  0.12500400971E+03 0.  0.
         25    2    1    2    0    0 -0.29333273653E+02  0.53588975805E+02  0.15196684446E+03  0.20604160145E+03  0.12500800152E+03 0.  0.
          5    1    3    3  501    0  0.69656231696E+02  0.25420562432E+01  0.48171317393E+02  0.84858815001E+02  0.47000000000E+01 0.  1.
         -5    1    3    3    0  501 -0.40322958044E+02 -0.56131032048E+02  0.47540386903E+02  0.84016736970E+02  0.47000000000E+01 0.  1.
          5    1    4    4  502    0 -0.36084415052E+02  0.14438201500E+02  0.16044102271E+03  0.16514829227E+03  0.47000000000E+01 0. -1.
         -5    1    4    4    0  502  0.67511413994E+01  0.39150774305E+02 -0.84741782503E+01  0.40893309182E+02  0.47000000000E+01 0. -1.
<mgrwt>
<rscale>  0 0.28145729E+03</rscale>
<asrwt>0</asrwt>
<pdfrwt beam="1">  1       21 0.47891976E-01 0.28145729E+03</pdfrwt>
<pdfrwt beam="2">  1       21 0.97875851E-02 0.28145729E+03</pdfrwt>
<totfact> 0.34416081E+05</totfact>
</mgrwt>
</event>
<event>
 8    1  0.9974463E-006  0.4778792E+03  0.7546771E-02  0.1019720E+00
         21   -1    0    0  504  503  0.00000000000E+00  0.00000000000E+00  0.17375327746E+03  0.17375327746E+03  0.00000000000E+00 0. -1.
         21   -1    0    0  503  504 -0.00000000000E+00 -0.00000000000E+00 -0.32858165229E+03  0.32858165229E+03  0.00000000000E+00 0. -1.
         25    2    1    2    0    0 -0.72802158854E+02  0.74231819526E+02  0.10663687441E+03  0.19443709022E+03  0.12499536674E+03 0.  0.
         25    2    1    2    0    0  0.72802158854E+02 -0.74231819526E+02 -0.26146524924E+03  0.30789783953E+03  0.12500594251E+03 0.  0.
          5    1    3    3  501    0 -0.10306633592E+02  0.71771661098E+02  0.10976906237E+03  0.13163865347E+03  0.47000000000E+01 0.  1.
         -5    1    3    3    0  501 -0.62495525263E+02  0.24601584276E+01 -0.31321879592E+01  0.62798436754E+02  0.47000000000E+01 0.  1.
          5    1    4    4  502    0 -0.14118838409E+02 -0.30280999909E+02 -0.57575081834E+01  0.34227466369E+02  0.47000000000E+01 0. -1.
         -5    1    4    4    0  502  0.86920997264E+02 -0.43950819617E+02 -0.25570774105E+03  0.27367037316E+03  0.47000000000E+01 0. -1.
<mgrwt>
<rscale>  0 0.47787923E+03</rscale>
<asrwt>0</asrwt>
<pdfrwt beam="1">  1       21 0.26731274E-01 0.47787923E+03</pdfrwt>
<pdfrwt beam="2">  1       21 0.50551023E-01 0.47787923E+03</pdfrwt>
<totfact> 0.45339394E+04</totfact>
</mgrwt>
</event>
<event>
 8    1  0.9974463E-006  0.3388423E+03  0.7546771E-02  0.1067290E+00
         21   -1    0    0  504  503  0.00000000000E+00  0.00000000000E+00  0.22043442304E+02  0.22043442304E+02  0.00000000000E+00 0.  1.
         21   -1    0    0  503  504 -0.00000000000E+00 -0.00000000000E+00 -0.13021343696E+04  0.13021343696E+04  0.00000000000E+00 0.  1.
         25    2    1    2    0    0  0.75990591197E+02  0.85336499045E+02 -0.62198621838E+03  0.64463042845E+03  0.12499858164E+03 0.  0.
         25    2    1    2    0    0 -0.75990591197E+02 -0.85336499045E+02 -0.65810470894E+03  0.67954738347E+03  0.12500380171E+03 0.  0.
          5    1    3    3  501    0  0.75474682710E+01  0.65854082714E+02 -0.11634803875E+03  0.13398761364E+03  0.47000000000E+01 0.  1.
         -5    1    3    3    0  501  0.68443122926E+02  0.19482416331E+02 -0.50563817963E+03  0.51064281481E+03  0.47000000000E+01 0.  1.
          5    1    4    4  502    0 -0.49626255329E+02 -0.44730799943E+02 -0.60019294905E+03  0.60391826912E+03  0.47000000000E+01 0.  1.
         -5    1    4    4    0  502 -0.26364335868E+02 -0.40605699102E+02 -0.57911759882E+02  0.75629114354E+02  0.47000000000E+01 0.  1.
<mgrwt>
<rscale>  0 0.33884229E+03</rscale>
<asrwt>0</asrwt>
<pdfrwt beam="1">  1       21 0.33912989E-02 0.33884229E+03</pdfrwt>
<pdfrwt beam="2">  1       21 0.20032836E+00 0.33884229E+03</pdfrwt>
<totfact> 0.64262179E+04</totfact>
</mgrwt>
</event>
<event>
 8    1  0.9974463E-006  0.4150585E+03  0.7546771E-02  0.1038687E+00
         21   -1    0    0  504  503  0.00000000000E+00  0.00000000000E+00  0.42638517786E+02  0.42638517786E+02  0.00000000000E+00 0.  1.
         21   -1    0    0  503  504 -0.00000000000E+00 -0.00000000000E+00 -0.10100816289E+04  0.10100816289E+04  0.00000000000E+00 0.  1.
         25    2    1    2    0    0 -0.67458853404E+02  0.13227759865E+03 -0.67002395079E+03  0.69757057887E+03  0.12499823144E+03 0.  0.
         25    2    1    2    0    0  0.67458853404E+02 -0.13227759865E+03 -0.29741916037E+03  0.35514956786E+03  0.12499999437E+03 0.  0.
          5    1    3    3  501    0 -0.46776202228E+02  0.15263884539E+03 -0.49599778437E+03  0.52107823052E+03  0.47000000000E+01 0.  1.
         -5    1    3    3    0  501 -0.20682651176E+02 -0.20361246739E+02 -0.17402616642E+03  0.17649234835E+03  0.47000000000E+01 0.  1.
          5    1    4    4  502    0  0.64330944559E+02 -0.15547261179E+03 -0.27485888565E+03  0.32230373945E+03  0.47000000000E+01 0. -1.
         -5    1    4    4    0  502  0.31279088444E+01  0.23195013144E+02 -0.22560274723E+02  0.32845828412E+02  0.47000000000E+01 0. -1.
<mgrwt>
<rscale>  0 0.41505847E+03</rscale>
<asrwt>0</asrwt>
<pdfrwt beam="1">  1       21 0.65597725E-02 0.41505847E+03</pdfrwt>
<pdfrwt beam="2">  1       21 0.15539716E+00 0.41505847E+03</pdfrwt>
<totfact> 0.42051309E+04</totfact>
</mgrwt>
</event>
<event>
 8    1  0.9974463E-006  0.2772664E+03  0.7546771E-02  0.1097191E+00
         21   -1    0    0  504  503  0.00000000000E+00  0.00000000000E+00  0.18929102785E+03  0.18929102785E+03  0.00000000000E+00 0. -1.
         21   -1    0    0  503  504 -0.00000000000E+00 -0.00000000000E+00 -0.10153239204E+03  0.10153239204E+03  0.00000000000E+00 0. -1.
         25    2    1    2    0    0  0.52370661620E+02  0.21204463551E+01  0.74393089189E+02  0.15461776218E+03  0.12500055268E+03 0.  0.
         25    2    1    2    0    0 -0.52370661620E+02 -0.21204463551E+01  0.13365546618E+02  0.13620565772E+03  0.12500464338E+03 0.  0.
          5    1    3    3  501    0 -0.72745770640E+01  0.31967989073E+02  0.80922209282E+02  0.87437782176E+02  0.47000000000E+01 0.  1.
         -5    1    3    3    0  501  0.59645238684E+02 -0.29847542717E+02 -0.65291200926E+01  0.67179980002E+02  0.47000000000E+01 0.  1.
          5    1    4    4  502    0 -0.42946727290E+02 -0.58900567602E+02  0.25173270980E+02  0.77262421788E+02  0.47000000000E+01 0.  1.
         -5    1    4    4    0  502 -0.94239343295E+01  0.56780121247E+02 -0.11807724362E+02  0.58943235928E+02  0.47000000000E+01 0.  1.
<mgrwt>
<rscale>  0 0.27726645E+03</rscale>
<asrwt>0</asrwt>
<pdfrwt beam="1">  1       21 0.29121696E-01 0.27726645E+03</pdfrwt>
<pdfrwt beam="2">  1       21 0.15620368E-01 0.27726645E+03</pdfrwt>
<totfact> 0.40414266E+05</totfact>
</mgrwt>
</event>
<event>
 8    1  0.9974463E-006  0.3782181E+03  0.7546771E-02  0.1051594E+00
         21   -1    0    0  504  503  0.00000000000E+00  0.00000000000E+00  0.40400739198E+03  0.40400739198E+03  0.00000000000E+00 0.  1.
         21   -1    0    0  503  504 -0.00000000000E+00 -0.00000000000E+00 -0.88518743331E+02  0.88518743331E+02  0.00000000000E+00 0.  1.
         25    2    1    2    0    0  0.63585136818E+02 -0.11672722853E+02 -0.67149819411E+01  0.14092752442E+03  0.12504460834E+03 0.  0.
         25    2    1    2    0    0 -0.63585136818E+02  0.11672722853E+02  0.32220363059E+03  0.35159861089E+03  0.12500832585E+03 0.  0.
          5    1    3    3  501    0  0.64595227609E+02 -0.48114229796E+02  0.32678288319E+02  0.87048739602E+02  0.47000000000E+01 0.  1.
         -5    1    3    3    0  501 -0.10100907915E+01  0.36441506943E+02 -0.39393270260E+02  0.53878784818E+02  0.47000000000E+01 0.  1.
          5    1    4    4  502    0 -0.73369727221E+02  0.48288902124E+02  0.13927430644E+03  0.16472509637E+03  0.47000000000E+01 0. -1.
         -5    1    4    4    0  502  0.97845904028E+01 -0.36616179271E+02  0.18292932415E+03  0.18687351452E+03  0.47000000000E+01 0. -1.
<mgrwt>
<rscale>  0 0.37821807E+03</rscale>
<asrwt>0</asrwt>
<pdfrwt beam="1">  1       21 0.62154982E-01 0.37821807E+03</pdfrwt>
<pdfrwt beam="2">  1       21 0.13618268E-01 0.37821807E+03</pdfrwt>
<totfact> 0.10626157E+05</totfact>
</mgrwt>
</event>
<event>
 8    1  0.9974463E-006  0.2869169E+03  0.7546771E-02  0.1091970E+00
         21   -1    0    0  504  503  0.00000000000E+00  0.00000000000E+00  0.18885302807E+02  0.18885302807E+02  0.00000000000E+00 0. -1.
         21   -1    0    0  503  504 -0.00000000000E+00 -0.00000000000E+00 -0.10897532972E+04  0.10897532972E+04  0.00000000000E+00 0. -1.
         25    2    1    2    0    0 -0.21839588570E+02 -0.46058100321E+02 -0.72315224510E+03  0.73564505263E+03  0.12500463043E+03 0.  0.
         25    2    1    2    0    0  0.21839588570E+02  0.46058100321E+02 -0.34771574932E+03  0.37299354741E+03  0.12497850954E+03 0.  0.
          5    1    3    3  501    0 -0.14345420256E+02  0.31572730847E+02 -0.45493856540E+03  0.45628260619E+03  0.47000000000E+01 0. -1.
         -5    1    3    3    0  501 -0.74941683135E+01 -0.77630831169E+02 -0.26821367969E+03  0.27936244644E+03  0.47000000000E+01 0. -1.
          5    1    4    4  502    0  0.53992053371E+02  0.63971999327E+02 -0.30546584281E+03  0.31676336538E+03  0.47000000000E+01 0.  1.
         -5    1    4    4    0  502 -0.32152464801E+02 -0.17913899006E+02 -0.42249906514E+02  0.56230182027E+02  0.47000000000E+01 0.  1.
<mgrwt>
<rscale>  0 0.28691686E+03</rscale>
<asrwt>0</asrwt>
<pdfrwt beam="1">  1       21 0.29054307E-02 0.28691686E+03</pdfrwt>
<pdfrwt beam="2">  1       21 0.16765438E+00 0.28691686E+03</pdfrwt>
<totfact> 0.14227262E+05</totfact>
</mgrwt>
</event>
<event>
 8    1  0.9974463E-006  0.4429264E+03  0.7546771E-02  0.1029853E+00
         21   -1    0    0  504  503  0.00000000000E+00  0.00000000000E+00  0.86800931980E+02  0.86800931980E+02  0.00000000000E+00 0.  1.
         21   -1    0    0  503  504 -0.00000000000E+00 -0.00000000000E+00 -0.56503947427E+03  0.56503947427E+03  0.00000000000E+00 0.  1.
         25    2    1    2    0    0  0.44920332196E+02  0.72682273568E+02 -0.12674610774E+01  0.15141599864E+03  0.12499859619E+03 0.  0.
         25    2    1    2    0    0 -0.44920332196E+02 -0.72682273568E+02 -0.47697108121E+03  0.50042440761E+03  0.12499050479E+03 0.  0.
          5    1    3    3  501    0 -0.43457707335E+01 -0.27796627120E+02  0.23201619158E+02  0.36768782059E+02  0.47000000000E+01 0.  1.
         -5    1    3    3    0  501  0.49266102929E+02  0.10047890069E+03 -0.24469080235E+02  0.11464721658E+03  0.47000000000E+01 0.  1.
          5    1    4    4  502    0 -0.41651766524E+02 -0.90669934674E+02 -0.46968633320E+03  0.48019084571E+03  0.47000000000E+01 0.  1.
         -5    1    4    4    0  502 -0.32685656718E+01  0.17987661106E+02 -0.72847480063E+01  0.20233561899E+02  0.47000000000E+01 0.  1.
<mgrwt>
<rscale>  0 0.44292642E+03</rscale>
<asrwt>0</asrwt>
<pdfrwt beam="1">  1       21 0.13353990E-01 0.44292642E+03</pdfrwt>
<pdfrwt beam="2">  1       21 0.86929148E-01 0.44292642E+03</pdfrwt>
<totfact> 0.50712927E+04</totfact>
</mgrwt>
</event>
<event>
 8    1  0.9974463E-006  0.3019334E+03  0.7546771E-02  0.1084278E+00
         21   -1    0    0  504  503  0.00000000000E+00  0.00000000000E+00  0.77964221513E+02  0.77964221513E+02  0.00000000000E+00 0.  1.
         21   -1    0    0  503  504 -0.00000000000E+00 -0.00000000000E+00 -0.29232575038E+03  0.29232575038E+03  0.00000000000E+00 0.  1.
         25    2    1    2    0    0 -0.75877981489E+02 -0.12583790190E+02 -0.15054816579E+03  0.21025271878E+03  0.12500254270E+03 0.  0.
         25    2    1    2    0    0  0.75877981489E+02  0.12583790190E+02 -0.63813363079E+02  0.16003725311E+03  0.12499582883E+03 0.  0.
          5    1    3    3  501    0 -0.46399429596E+01 -0.84672108642E+01 -0.13706034273E+03  0.13748036325E+03  0.47000000000E+01 0. -1.
         -5    1    3    3    0  501 -0.71238038530E+02 -0.41165793258E+01 -0.13487823061E+02  0.72772355533E+02  0.47000000000E+01 0. -1.
          5    1    4    4  502    0  0.89782888071E+02  0.48947172951E+02 -0.26122970534E+02  0.10564701756E+03  0.47000000000E+01 0. -1.
         -5    1    4    4    0  502 -0.13904906582E+02 -0.36363382761E+02 -0.37690392546E+02  0.54390235550E+02  0.47000000000E+01 0. -1.
<mgrwt>
<rscale>  0 0.30193343E+03</rscale>
<asrwt>0</asrwt>
<pdfrwt beam="1">  1       21 0.11994496E-01 0.30193343E+03</pdfrwt>
<pdfrwt beam="2">  1       21 0.44973192E-01 0.30193343E+03</pdfrwt>
<totfact> 0.27136516E+05</totfact>
</mgrwt>
</event>
<event>
 8    1  0.9974463E-006  0.2931764E+03  0.7546771E-02  0.1088702E+00
         21   -1    0    0  504  503  0.00000000000E+00  0.00000000000E+00  0.23027948201E+03  0.23027948201E+03  0.00000000000E+00 0.  1.
         21   -1    0    0  503  504 -0.00000000000E+00 -0.00000000000E+00 -0.93313151751E+02  0.93313151751E+02  0.00000000000E+00 0.  1.
         25    2    1    2    0    0  0.54599216798E+02  0.32204572290E+02  0.21077216227E+02  0.14172976542E+03  0.12499947364E+03 0.  0.
         25    2    1    2    0    0 -0.54599216798E+02 -0.32204572290E+02  0.11588911403E+03  0.18186286835E+03  0.12500242870E+03 0.  0.
          5    1    3    3  501    0  0.38939254757E+01  0.29804686934E+02 -0.47422200106E+02  0.56342143035E+02  0.47000000000E+01 0. -1.
         -5    1    3    3    0  501  0.50705291322E+02  0.23998853566E+01  0.68499416334E+02  0.85387622381E+02  0.47000000000E+01 0. -1.
          5    1    4    4  502    0 -0.71248491950E+02 -0.54097689500E+02  0.12384430287E+03  0.15284766589E+03  0.47000000000E+01 0. -1.
         -5    1    4    4    0  502  0.16649275152E+02  0.21893117210E+02 -0.79551888365E+01  0.29015202458E+02  0.47000000000E+01 0. -1.
<mgrwt>
<rscale>  0 0.29317643E+03</rscale>
<asrwt>0</asrwt>
<pdfrwt beam="1">  1       21 0.35427613E-01 0.29317643E+03</pdfrwt>
<pdfrwt beam="2">  1       21 0.14355870E-01 0.29317643E+03</pdfrwt>
<totfact> 0.31898743E+05</totfact>
</mgrwt>
</event>
<event>
 8    1  0.9974463E-006  0.2787946E+03  0.7546771E-02  0.1096349E+00
         21   -1    0    0  504  503  0.00000000000E+00  0.00000000000E+00  0.49768165067E+02  0.49768165067E+02  0.00000000000E+00 0. -1.
         21   -1    0    0  503  504 -0.00000000000E+00 -0.00000000000E+00 -0.39044247661E+03  0.39044247661E+03  0.00000000000E+00 0. -1.
         25    2    1    2    0    0 -0.17468364577E+02 -0.58781800347E+01 -0.26330691167E+03  0.29205017901E+03  0.12499232202E+03 0.  0.
         25    2    1    2    0    0  0.17468364577E+02  0.58781800347E+01 -0.77367399874E+02  0.14816046267E+03  0.12500444542E+03 0.  0.
          5    1    3    3  501    0 -0.65196317005E+02  0.23595982887E+02 -0.13171591759E+03  0.14892448794E+03  0.47000000000E+01 0.  1.
         -5    1    3    3    0  501  0.47727952428E+02 -0.29474162921E+02 -0.13159099408E+03  0.14312569107E+03  0.47000000000E+01 0.  1.
          5    1    4    4  502    0  0.72602190313E+01 -0.58546172261E+01  0.34023805635E+02  0.35590682392E+02  0.47000000000E+01 0. -1.
         -5    1    4    4    0  502  0.10208145546E+02  0.11732797261E+02 -0.11139120551E+03  0.11256978028E+03  0.47000000000E+01 0. -1.
<mgrwt>
<rscale>  0 0.27879459E+03</rscale>
<asrwt>0</asrwt>
<pdfrwt beam="1">  1       21 0.76566406E-02 0.27879459E+03</pdfrwt>
<pdfrwt beam="2">  1       21 0.60068075E-01 0.27879459E+03</pdfrwt>
<totfact> 0.32794127E+05</totfact>
</mgrwt>
</event>
<event>
 8    1  0.9974463E-006  0.3323085E+03  0.7546771E-02  0.1070120E+00
         21   -1    0    0  504  503  0.00000000000E+00  0.00000000000E+00  0.31211219759E+03  0.31211219759E+03  0.00000000000E+00 0. -1.
         21   -1    0    0  503  504 -0.00000000000E+00 -0.00000000000E+00 -0.88452893287E+02  0.88452893287E+02  0.00000000000E+00 0. -1.
         25    2    1    2    0    0 -0.30745014107E+02  0.10077977855E+03  0.76069601070E+02  0.18031565428E+03  0.12500132526E+03 0.  0.
         25    2    1    2    0    0  0.30745014107E+02 -0.10077977855E+03  0.14758970323E+03  0.22024943659E+03  0.12500109664E+03 0.  0.
          5    1    3    3  501    0  0.36740045362E+02  0.61499825788E+02  0.85691846775E+00  0.71797519557E+02  0.47000000000E+01 0.  1.
         -5    1    3    3    0  501 -0.67485059469E+02  0.39279952760E+02  0.75212682602E+02  0.10851813473E+03  0.47000000000E+01 0.  1.
          5    1    4    4  502    0  0.16324731352E+02 -0.69744244329E+02  0.16618022224E+03  0.18102130464E+03  0.47000000000E+01 0.  1.
         -5    1    4    4    0  502  0.14420282755E+02 -0.31035534220E+02 -0.18590519010E+02  0.39228131948E+02  0.47000000000E+01 0.  1.
<mgrwt>
<rscale>  0 0.33230845E+03</rscale>
<asrwt>0</asrwt>
<pdfrwt beam="1">  1       21 0.48017261E-01 0.33230845E+03</pdfrwt>
<pdfrwt beam="2">  1       21 0.13608138E-01 0.33230845E+03</pdfrwt>
<totfact> 0.18698141E+05</totfact>
</mgrwt>
</event>
<event>
 8    1  0.9974463E-006  0.3823939E+03  0.7546771E-02  0.1050052E+00
         21   -1    0    0  504  503  0.00000000000E+00  0.00000000000E+00  0.46582692044E+03  0.46582692044E+03  0.00000000000E+00 0.  1.
         21   -1    0    0  503  504 -0.00000000000E+00 -0.00000000000E+00 -0.78476097099E+02  0.78476097099E+02  0.00000000000E+00 0.  1.
         25    2    1    2    0    0 -0.59108924130E+01 -0.35701777263E+02  0.39306946377E+03  0.41405065236E+03  0.12499913529E+03 0.  0.
         25    2    1    2    0    0  0.59108924130E+01  0.35701777263E+02 -0.57186404261E+01  0.13025236518E+03  0.12499368079E+03 0.  0.
          5    1    3    3  501    0 -0.28685069698E+02 -0.15295843467E+02  0.17515857358E+02  0.37224874881E+02  0.47000000000E+01 0. -1.
         -5    1    3    3    0  501  0.22774177285E+02 -0.20405933796E+02  0.37555360641E+03  0.37682577748E+03  0.47000000000E+01 0. -1.
          5    1    4    4  502    0  0.63769959319E+01 -0.36874164453E+02 -0.35374642489E+02  0.51709045751E+02  0.47000000000E+01 0. -1.
         -5    1    4    4    0  502 -0.46610351892E+00  0.72575941716E+02  0.29656002063E+02  0.78543319429E+02  0.47000000000E+01 0. -1.
<mgrwt>
<rscale>  0 0.38239393E+03</rscale>
<asrwt>0</asrwt>
<pdfrwt beam="1">  1       21 0.71665678E-01 0.38239393E+03</pdfrwt>
<pdfrwt beam="2">  1       21 0.12073246E-01 0.38239393E+03</pdfrwt>
<totfact> 0.96363766E+04</totfact>
</mgrwt>
</event>
<event>
 8    1  0.9974463E-006  0.4325712E+03  0.7546771E-02  0.1033051E+00
         21   -1    0    0  504  503  0.00000000000E+00  0.00000000000E+00  0.51536961682E+03  0.51536961682E+03  0.00000000000E+00 0.  1.
         21   -1    0    0  503  504 -0.00000000000E+00 -0.00000000000E+00 -0.90768760010E+02  0.90768760010E+02  0.00000000000E+00 0.  1.
         25    2    1    2    0    0 -0.31402010852E+02  0.11213876173E+03  0.26437954730E+02  0.17287204536E+03  0.12499836178E+03 0.  0.
         25    2    1    2    0    0  0.31402010852E+02 -0.11213876173E+03  0.39816290208E+03  0.43326633147E+03  0.12499931689E+03 0.  0.
          5    1    3    3  501    0 -0.69508123665E+02  0.72822550032E+02  0.50683867731E+02  0.11280712520E+03  0.47000000000E+01 0. -1.
         -5    1    3    3    0  501  0.38106112813E+02  0.39316211701E+02 -0.24245913002E+02  0.60064920157E+02  0.47000000000E+01 0. -1.
          5    1    4    4  502    0 -0.21542082124E+02 -0.15954995426E+02  0.23485323070E+03  0.23642494189E+03  0.47000000000E+01 0. -1.
         -5    1    4    4    0  502  0.52944092976E+02 -0.96183766306E+02  0.16330967138E+03  0.19684138957E+03  0.47000000000E+01 0. -1.
<mgrwt>
<rscale>  0 0.43257120E+03</rscale>
<asrwt>0</asrwt>
<pdfrwt beam="1">  1       21 0.79287631E-01 0.43257120E+03</pdfrwt>
<pdfrwt beam="2">  1       21 0.13964425E-01 0.43257120E+03</pdfrwt>
<totfact> 0.57993511E+04</totfact>
</mgrwt>
</event>
<event>
 8    1  0.9974463E-006  0.3833817E+03  0.7546771E-02  0.1049691E+00
         21   -1    0    0  504  503  0.00000000000E+00  0.00000000000E+00  0.46770126382E+03  0.46770126382E+03  0.00000000000E+00 0.  1.
         21   -1    0    0  503  504 -0.00000000000E+00 -0.00000000000E+00 -0.78565924424E+02  0.78565924424E+02  0.00000000000E+00 0.  1.
         25    2    1    2    0    0 -0.13133239796E+03  0.30532043268E+02  0.27182368468E+03  0.32816688146E+03  0.12499992844E+03 0.  0.
         25    2    1    2    0    0  0.13133239796E+03 -0.30532043268E+02  0.11731165471E+03  0.21810030679E+03  0.12500126027E+03 0.  0.
          5    1    3    3  501    0 -0.10705980179E+02  0.23723762870E+02  0.16413794761E+03  0.16625519776E+03  0.47000000000E+01 0.  1.
         -5    1    3    3    0  501 -0.12062641778E+03  0.68082803980E+01  0.10768573708E+03  0.16191168370E+03  0.47000000000E+01 0.  1.
          5    1    4    4  502    0  0.24933842127E+01 -0.33327637913E+02  0.75228619924E+02  0.82452311486E+02  0.47000000000E+01 0. -1.
         -5    1    4    4    0  502  0.12883901375E+03  0.27955946444E+01  0.42083034790E+02  0.13564799530E+03  0.47000000000E+01 0. -1.
<mgrwt>
<rscale>  0 0.38338170E+03</rscale>
<asrwt>0</asrwt>
<pdfrwt beam="1">  1       21 0.71954039E-01 0.38338170E+03</pdfrwt>
<pdfrwt beam="2">  1       21 0.12087066E-01 0.38338170E+03</pdfrwt>
<totfact> 0.95276076E+04</totfact>
</mgrwt>
</event>
<event>
 8    1  0.9974463E-006  0.3217617E+03  0.7546771E-02  0.1074841E+00
         21   -1    0    0  504  503  0.00000000000E+00  0.00000000000E+00  0.27160393643E+03  0.27160393643E+03  0.00000000000E+00 0. -1.
         21   -1    0    0  503  504 -0.00000000000E+00 -0.00000000000E+00 -0.95295568306E+02  0.95295568306E+02  0.00000000000E+00 0. -1.
         25    2    1    2    0    0 -0.37206044726E+02 -0.80878005152E+02  0.33102969309E+02  0.15700006877E+03  0.12501069369E+03 0.  0.
         25    2    1    2    0    0  0.37206044726E+02  0.80878005152E+02  0.14320539882E+03  0.20989943597E+03  0.12499778193E+03 0.  0.
          5    1    3    3  501    0 -0.20387242149E+02 -0.83234221887E+02 -0.30437820948E+02  0.91061112884E+02  0.47000000000E+01 0. -1.
         -5    1    3    3    0  501 -0.16818802576E+02  0.23562167354E+01  0.63540790257E+02  0.65938955890E+02  0.47000000000E+01 0. -1.
          5    1    4    4  502    0  0.62840348807E+02  0.63314234990E+02  0.32885027274E+02  0.95189898673E+02  0.47000000000E+01 0. -1.
         -5    1    4    4    0  502 -0.25634304081E+02  0.17563770162E+02  0.11032037155E+03  0.11470953729E+03  0.47000000000E+01 0. -1.
<mgrwt>
<rscale>  0 0.32176172E+03</rscale>
<asrwt>0</asrwt>
<pdfrwt beam="1">  1       21 0.41785221E-01 0.32176172E+03</pdfrwt>
<pdfrwt beam="2">  1       21 0.14660857E-01 0.32176172E+03</pdfrwt>
<totfact> 0.21822009E+05</totfact>
</mgrwt>
</event>
<event>
 8    1  0.9974463E-006  0.2643480E+03  0.7546771E-02  0.1104559E+00
         21   -1    0    0  504  503  0.00000000000E+00  0.00000000000E+00  0.83975656063E+03  0.83975656063E+03  0.00000000000E+00 0. -1.
         21   -1    0    0  503  504 -0.00000000000E+00 -0.00000000000E+00 -0.20803607328E+02  0.20803607328E+02  0.00000000000E+00 0. -1.
         25    2    1    2    0    0  0.40573629452E+02  0.13628295304E+01  0.45509905006E+03  0.47369776736E+03  0.12500541078E+03 0.  0.
         25    2    1    2    0    0 -0.40573629452E+02 -0.13628295304E+01  0.36385390324E+03  0.38686240060E+03  0.12499910953E+03 0.  0.
          5    1    3    3  501    0 -0.17591221806E+02  0.44031359465E+02  0.93468931052E+02  0.10491302480E+03  0.47000000000E+01 0. -1.
         -5    1    3    3    0  501  0.58164851258E+02 -0.42668529935E+02  0.36163011901E+03  0.36878474256E+03  0.47000000000E+01 0. -1.
          5    1    4    4  502    0 -0.11849053418E+02  0.15954584403E+02  0.34946960187E+03  0.35006576733E+03  0.47000000000E+01 0.  1.
         -5    1    4    4    0  502 -0.28724576034E+02 -0.17317413934E+02  0.14384301376E+02  0.36796633267E+02  0.47000000000E+01 0.  1.
<mgrwt>
<rscale>  0 0.26434800E+03</rscale>
<asrwt>0</asrwt>
<pdfrwt beam="1">  1       21 0.12919329E+00 0.26434800E+03</pdfrwt>
<pdfrwt beam="2">  1       21 0.32005556E-02 0.26434800E+03</pdfrwt>
<totfact> 0.24377233E+05</totfact>
</mgrwt>
</event>
<event>
 8    1  0.9974463E-006  0.6170277E+03  0.7546771E-02  0.9870695E-01
         21   -1    0    0  504  503  0.00000000000E+00  0.00000000000E+00  0.79681088541E+03  0.79681088541E+03  0.00000000000E+00 0. -1.
         21   -1    0    0  503  504 -0.00000000000E+00 -0.00000000000E+00 -0.11945218630E+03  0.11945218630E+03  0.00000000000E+00 0. -1.
         25    2    1    2    0    0  0.20717412999E+03 -0.10222203580E+03  0.98383920813E+02  0.28049009301E+03  0.12499932664E+03 0.  0.
         25    2    1    2    0    0 -0.20717412999E+03  0.10222203580E+03  0.57897477830E+03  0.63577297871E+03  0.12500008721E+03 0.  0.
          5    1    3    3  501    0  0.17855467013E+03 -0.12235282153E+03  0.11061741255E+03  0.24312606837E+03  0.47000000000E+01 0. -1.
         -5    1    3    3    0  501  0.28619459861E+02  0.20130785735E+02 -0.12233491735E+02  0.37364024637E+02  0.47000000000E+01 0. -1.
          5    1    4    4  502    0 -0.18145707290E+03  0.50179511276E+02  0.51927536330E+03  0.55237093115E+03  0.47000000000E+01 0.  1.
         -5    1    4    4    0  502 -0.25717057095E+02  0.52042524521E+02  0.59699415008E+02  0.83402047556E+02  0.47000000000E+01 0.  1.
<mgrwt>
<rscale>  0 0.61702772E+03</rscale>
<asrwt>0</asrwt>
<pdfrwt beam="1">  1       21 0.12258629E+00 0.61702772E+03</pdfrwt>
<pdfrwt beam="2">  1       21 0.18377260E-01 0.61702772E+03</pdfrwt>
<totfact> 0.11545337E+04</totfact>
</mgrwt>
</event>
<event>
 8    1  0.9974463E-006  0.3250633E+03  0.7546771E-02  0.1073342E+00
         21   -1    0    0  504  503  0.00000000000E+00  0.00000000000E+00  0.10112615797E+03  0.10112615797E+03  0.00000000000E+00 0. -1.
         21   -1    0    0  503  504 -0.00000000000E+00 -0.00000000000E+00 -0.26122366214E+03  0.26122366214E+03  0.00000000000E+00 0. -1.
         25    2    1    2    0    0 -0.11093128657E+02  0.98055425491E+02 -0.11618462479E+03  0.19713628561E+03  0.12500369632E+03 0.  0.
         25    2    1    2    0    0  0.11093128657E+02 -0.98055425491E+02 -0.43912879388E+02  0.16521353450E+03  0.12501698698E+03 0.  0.
          5    1    3    3  501    0  0.51556623871E+02  0.70701144428E+02 -0.84166254818E+02  0.12150220467E+03  0.47000000000E+01 0. -1.
         -5    1    3    3    0  501 -0.62649752528E+02  0.27354281062E+02 -0.32018369970E+02  0.75634080941E+02  0.47000000000E+01 0. -1.
          5    1    4    4  502    0 -0.27140671348E+02 -0.14735437628E+01 -0.54108834455E+02  0.60734202379E+02  0.47000000000E+01 0.  1.
         -5    1    4    4    0  502  0.38233800006E+02 -0.96581881728E+02  0.10195955068E+02  0.10447933212E+03  0.47000000000E+01 0.  1.
<mgrwt>
<rscale>  0 0.32506335E+03</rscale>
<asrwt>0</asrwt>
<pdfrwt beam="1">  1       21 0.15557871E-01 0.32506335E+03</pdfrwt>
<pdfrwt beam="2">  1       21 0.40188256E-01 0.32506335E+03</pdfrwt>
<totfact> 0.21173725E+05</totfact>
</mgrwt>
</event>
<event>
 8    1  0.9974463E-006  0.2600302E+03  0.7546771E-02  0.1107125E+00
         21   -1    0    0  504  503  0.00000000000E+00  0.00000000000E+00  0.29909056971E+03  0.29909056971E+03  0.00000000000E+00 0.  1.
         21   -1    0    0  503  504 -0.00000000000E+00 -0.00000000000E+00 -0.56517728890E+02  0.56517728890E+02  0.00000000000E+00 0.  1.
         25    2    1    2    0    0 -0.35104535297E+02 -0.64786899375E+01  0.12411781361E+03  0.17973420514E+03  0.12499940408E+03 0.  0.
         25    2    1    2    0    0  0.35104535297E+02  0.64786899375E+01  0.11845502721E+03  0.17587409346E+03  0.12500320579E+03 0.  0.
          5    1    3    3  501    0  0.26720192409E+02 -0.43454467158E+02  0.24704426545E+02  0.56874054623E+02  0.47000000000E+01 0. -1.
         -5    1    3    3    0  501 -0.61824727706E+02  0.36975777221E+02  0.99413387070E+02  0.12286015052E+03  0.47000000000E+01 0. -1.
          5    1    4    4  502    0  0.58621679591E+01  0.51947495069E+02  0.83834033772E+01  0.53153350876E+02  0.47000000000E+01 0. -1.
         -5    1    4    4    0  502  0.29242367338E+02 -0.45468805132E+02  0.11007162383E+03  0.12272074258E+03  0.47000000000E+01 0. -1.
<mgrwt>
<rscale>  0 0.26003015E+03</rscale>
<asrwt>0</asrwt>
<pdfrwt beam="1">  1       21 0.46013933E-01 0.26003015E+03</pdfrwt>
<pdfrwt beam="2">  1       21 0.86950355E-02 0.26003015E+03</pdfrwt>
<totfact> 0.46317279E+05</totfact>
</mgrwt>
</event>
<event>
 8    1  0.9974463E-006  0.2781779E+03  0.7546771E-02  0.1096688E+00
         21   -1    0    0  504  503  0.00000000000E+00  0.00000000000E+00  0.22300907428E+02  0.22300907428E+02  0.00000000000E+00 0.  1.
         21   -1    0    0  503  504 -0.00000000000E+00 -0.00000000000E+00 -0.86748642282E+03  0.86748642282E+03  0.00000000000E+00 0.  1.
         25    2    1    2    0    0  0.10774061729E+02  0.50324304367E+02 -0.31788406364E+03  0.34543318115E+03  0.12500075484E+03 0.  0.
         25    2    1    2    0    0 -0.10774061729E+02 -0.50324304367E+02 -0.52730145175E+03  0.54435414909E+03  0.12500401034E+03 0.  0.
          5    1    3    3  501    0 -0.37840092893E+02  0.66224181669E+02 -0.24217043608E+03  0.25394118409E+03  0.47000000000E+01 0.  1.
         -5    1    3    3    0  501  0.48614154622E+02 -0.15899877302E+02 -0.75713627564E+02  0.91491997063E+02  0.47000000000E+01 0.  1.
          5    1    4    4  502    0  0.39023324168E+02  0.19755643429E+02 -0.11429311569E+03  0.12246677741E+03  0.47000000000E+01 0.  1.
         -5    1    4    4    0  502 -0.49797385897E+02 -0.70079947795E+02 -0.41300833606E+03  0.42188737168E+03  0.47000000000E+01 0.  1.
<mgrwt>
<rscale>  0 0.27817789E+03</rscale>
<asrwt>0</asrwt>
<pdfrwt beam="1">  1       21 0.34309088E-02 0.27817789E+03</pdfrwt>
<pdfrwt beam="2">  1       21 0.13345945E+00 0.27817789E+03</pdfrwt>
<totfact> 0.19887940E+05</totfact>
</mgrwt>
</event>
<event>
 8    1  0.9974463E-006  0.4272715E+03  0.7546771E-02  0.1034725E+00
         21   -1    0    0  504  503  0.00000000000E+00  0.00000000000E+00  0.53418590677E+03  0.53418590677E+03  0.00000000000E+00 0. -1.
         21   -1    0    0  503  504 -0.00000000000E+00 -0.00000000000E+00 -0.85438866034E+02  0.85438866034E+02  0.00000000000E+00 0. -1.
         25    2    1    2    0    0  0.53199095493E+02 -0.16260101269E+03  0.26398344980E+03  0.33849872130E+03  0.12499955787E+03 0.  0.
         25    2    1    2    0    0 -0.53199095493E+02  0.16260101269E+03  0.18476359094E+03  0.28112605150E+03  0.12500015684E+03 0.  0.
          5    1    3    3  501    0  0.73209772057E+02 -0.71953712732E+02  0.72844438661E+02  0.12595796817E+03  0.47000000000E+01 0. -1.
         -5    1    3    3    0  501 -0.20010676564E+02 -0.90647299954E+02  0.19113901114E+03  0.21254075314E+03  0.47000000000E+01 0. -1.
          5    1    4    4  502    0  0.17891361341E+02  0.82087858380E+02  0.23598104127E+02  0.87392664580E+02  0.47000000000E+01 0.  1.
         -5    1    4    4    0  502 -0.71090456835E+02  0.80513154306E+02  0.16116548681E+03  0.19373338692E+03  0.47000000000E+01 0.  1.
<mgrwt>
<rscale>  0 0.42727152E+03</rscale>
<asrwt>0</asrwt>
<pdfrwt beam="1">  1       21 0.82182445E-01 0.42727152E+03</pdfrwt>
<pdfrwt beam="2">  1       21 0.13144441E-01 0.42727152E+03</pdfrwt>
<totfact> 0.59732442E+04</totfact>
</mgrwt>
</event>
<event>
 8    1  0.9974463E-006  0.2981265E+03  0.7546771E-02  0.1086181E+00
         21   -1    0    0  504  503  0.00000000000E+00  0.00000000000E+00  0.29091276798E+02  0.29091276798E+02  0.00000000000E+00 0.  1.
         21   -1    0    0  503  504 -0.00000000000E+00 -0.00000000000E+00 -0.76379779479E+03  0.76379779479E+03  0.00000000000E+00 0.  1.
         25    2    1    2    0    0 -0.67865513329E+02 -0.37002351986E+02 -0.30109569757E+03  0.33504821671E+03  0.12499514580E+03 0.  0.
         25    2    1    2    0    0  0.67865513329E+02  0.37002351986E+02 -0.43361082042E+03  0.45784085487E+03  0.12500001143E+03 0.  0.
          5    1    3    3  501    0 -0.75194424357E+02 -0.16339367703E+02 -0.30289686433E+03  0.31255363830E+03  0.47000000000E+01 0. -1.
         -5    1    3    3    0  501  0.73289110276E+01 -0.20662984283E+02  0.18011667598E+01  0.22494578414E+02  0.47000000000E+01 0. -1.
          5    1    4    4  502    0 -0.32520979421E+02  0.21568822998E+02 -0.18711913525E+03  0.19120274320E+03  0.47000000000E+01 0.  1.
         -5    1    4    4    0  502  0.10038649275E+03  0.15433528987E+02 -0.24649168516E+03  0.26663811168E+03  0.47000000000E+01 0.  1.
<mgrwt>
<rscale>  0 0.29812650E+03</rscale>
<asrwt>0</asrwt>
<pdfrwt beam="1">  1       21 0.44755809E-02 0.29812650E+03</pdfrwt>
<pdfrwt beam="2">  1       21 0.11750736E+00 0.29812650E+03</pdfrwt>
<totfact> 0.17431448E+05</totfact>
</mgrwt>
</event>
<event>
 8    1  0.9974463E-006  0.5614752E+03  0.7546771E-02  0.9988722E-01
         21   -1    0    0  504  503  0.00000000000E+00  0.00000000000E+00  0.48457978534E+03  0.48457978534E+03  0.00000000000E+00 0. -1.
         21   -1    0    0  503  504 -0.00000000000E+00 -0.00000000000E+00 -0.16264317990E+03  0.16264317990E+03  0.00000000000E+00 0. -1.
         25    2    1    2    0    0  0.21893130241E+03  0.66049775139E+02  0.28129198987E+03  0.38346079298E+03  0.12499403274E+03 0.  0.
         25    2    1    2    0    0 -0.21893130241E+03 -0.66049775139E+02  0.40644615578E+02  0.26376217225E+03  0.12500004306E+03 0.  0.
          5    1    3    3  501    0  0.21917845033E+03  0.32990393912E+02  0.21298510611E+03  0.30742853577E+03  0.47000000000E+01 0.  1.
         -5    1    3    3    0  501 -0.24714791690E+00  0.33059381227E+02  0.68306883752E+02  0.76032257214E+02  0.47000000000E+01 0.  1.
          5    1    4    4  502    0 -0.12054788039E+03 -0.91968090176E+02 -0.58344884093E+01  0.15180926300E+03  0.47000000000E+01 0. -1.
         -5    1    4    4    0  502 -0.98383422018E+02  0.25918315037E+02  0.46479103988E+02  0.11195290925E+03  0.47000000000E+01 0. -1.
<mgrwt>
<rscale>  0 0.56147519E+03</rscale>
<asrwt>0</asrwt>
<pdfrwt beam="1">  1       21 0.74550735E-01 0.56147519E+03</pdfrwt>
<pdfrwt beam="2">  1       21 0.25022028E-01 0.56147519E+03</pdfrwt>
<totfact> 0.21505644E+04</totfact>
</mgrwt>
</event>
<event>
 8    1  0.9974463E-006  0.3788678E+03  0.7546771E-02  0.1051353E+00
         21   -1    0    0  504  503  0.00000000000E+00  0.00000000000E+00  0.25392632549E+03  0.25392632549E+03  0.00000000000E+00 0. -1.
         21   -1    0    0  503  504 -0.00000000000E+00 -0.00000000000E+00 -0.14132130672E+03  0.14132130672E+03  0.00000000000E+00 0. -1.
         25    2    1    2    0    0  0.59538124905E+02 -0.98907464038E+02  0.14315143049E+03  0.22237336989E+03  0.12502043364E+03 0.  0.
         25    2    1    2    0    0 -0.59538124905E+02  0.98907464038E+02 -0.30546411724E+02  0.17287426231E+03  0.12499981017E+03 0.  0.
          5    1    3    3  501    0  0.67677594368E+02 -0.90716729811E+02  0.42555143329E+02  0.12100748766E+03  0.47000000000E+01 0. -1.
         -5    1    3    3    0  501 -0.81394694626E+01 -0.81907342278E+01  0.10059628716E+03  0.10136588223E+03  0.47000000000E+01 0. -1.
          5    1    4    4  502    0  0.37207236333E+02  0.23976724962E+02 -0.23197261345E+02  0.50194269687E+02  0.47000000000E+01 0.  1.
         -5    1    4    4    0  502 -0.96745361239E+02  0.74930739077E+02 -0.73491503784E+01  0.12267999263E+03  0.47000000000E+01 0.  1.
<mgrwt>
<rscale>  0 0.37886779E+03</rscale>
<asrwt>0</asrwt>
<pdfrwt beam="1">  1       21 0.39065589E-01 0.37886779E+03</pdfrwt>
<pdfrwt beam="2">  1       21 0.21741739E-01 0.37886779E+03</pdfrwt>
<totfact> 0.11832216E+05</totfact>
</mgrwt>
</event>
<event>
 8    1  0.9974463E-006  0.3308237E+03  0.7546771E-02  0.1070773E+00
         21   -1    0    0  504  503  0.00000000000E+00  0.00000000000E+00  0.16556870279E+03  0.16556870279E+03  0.00000000000E+00 0. -1.
         21   -1    0    0  503  504 -0.00000000000E+00 -0.00000000000E+00 -0.16525514621E+03  0.16525514621E+03  0.00000000000E+00 0. -1.
         25    2    1    2    0    0  0.38719410916E+02 -0.25866283723E+02 -0.97652578663E+02  0.16531639262E+03  0.12500090453E+03 0.  0.
         25    2    1    2    0    0 -0.38719410916E+02  0.25866283723E+02  0.97966135242E+02  0.16550745637E+03  0.12500838790E+03 0.  0.
          5    1    3    3  501    0 -0.27310801451E+02  0.26453996210E+02 -0.28716608263E+01  0.38419138815E+02  0.47000000000E+01 0.  1.
         -5    1    3    3    0  501  0.66030212367E+02 -0.52320279933E+02 -0.94780917837E+02  0.12689725381E+03  0.47000000000E+01 0.  1.
          5    1    4    4  502    0 -0.58573917388E+01  0.32225724741E+02  0.12044993910E+03  0.12491230604E+03  0.47000000000E+01 0. -1.
         -5    1    4    4    0  502 -0.32862019177E+02 -0.63594410178E+01 -0.22483803853E+02  0.40595150328E+02  0.47000000000E+01 0. -1.
<mgrwt>
<rscale>  0 0.33082370E+03</rscale>
<asrwt>0</asrwt>
<pdfrwt beam="1">  1       21 0.25472108E-01 0.33082370E+03</pdfrwt>
<pdfrwt beam="2">  1       21 0.25423868E-01 0.33082370E+03</pdfrwt>
<totfact> 0.20703632E+05</totfact>
</mgrwt>
</event>
<event>
 8    1  0.9974463E-006  0.2706728E+03  0.7546771E-02  0.1100895E+00
         21   -1    0    0  504  503  0.00000000000E+00  0.00000000000E+00  0.29434264187E+04  0.29434264187E+04  0.00000000000E+00 0. -1.
         21   -1    0    0  503  504 -0.00000000000E+00 -0.00000000000E+00 -0.62226617000E+01  0.62226617000E+01  0.00000000000E+00 0. -1.
         25    2    1    2    0    0 -0.28935825731E+01 -0.44740909333E+02  0.17529551961E+04  0.17579781398E+04  0.12500039454E+03 0.  0.
         25    2    1    2    0    0  0.28935825731E+01  0.44740909333E+02  0.11842485609E+04  0.11916709406E+04  0.12499941971E+03 0.  0.
          5    1    3    3  501    0 -0.61239234629E+02 -0.40983979992E+02  0.91732755641E+03  0.92029444539E+03  0.47000000000E+01 0.  1.
         -5    1    3    3    0  501  0.58345652056E+02 -0.37569293409E+01  0.83562763971E+03  0.83768369441E+03  0.47000000000E+01 0.  1.
          5    1    4    4  502    0  0.63760735581E+02  0.23944490325E+02  0.59570208173E+03  0.59960139276E+03  0.47000000000E+01 0.  1.
         -5    1    4    4    0  502 -0.60867153008E+02  0.20796419008E+02  0.58854647912E+03  0.59206954781E+03  0.47000000000E+01 0.  1.
<mgrwt>
<rscale>  0 0.27067284E+03</rscale>
<asrwt>0</asrwt>
<pdfrwt beam="1">  1       21 0.45283372E+00 0.27067284E+03</pdfrwt>
<pdfrwt beam="2">  1       21 0.95733492E-03 0.27067284E+03</pdfrwt>
<totfact> 0.14717285E+04</totfact>
</mgrwt>
</event>
<event>
 8    1  0.9974463E-006  0.2873347E+03  0.7546771E-02  0.1091749E+00
         21   -1    0    0  504  503  0.00000000000E+00  0.00000000000E+00  0.11579004426E+03  0.11579004426E+03  0.00000000000E+00 0.  1.
         21   -1    0    0  503  504 -0.00000000000E+00 -0.00000000000E+00 -0.17825634964E+03  0.17825634964E+03  0.00000000000E+00 0.  1.
         25    2    1    2    0    0  0.40529192435E+02 -0.36513427674E+02  0.14987935636E+02  0.13720874002E+03  0.12500301709E+03 0.  0.
         25    2    1    2    0    0 -0.40529192435E+02  0.36513427674E+02 -0.77454241018E+02  0.15683765388E+03  0.12499217728E+03 0.  0.
          5    1    3    3  501    0  0.61735650239E+02 -0.69320292972E+02 -0.49961988105E+01  0.93078706108E+02  0.47000000000E+01 0. -1.
         -5    1    3    3    0  501 -0.21206457803E+02  0.32806865298E+02  0.19984134446E+02  0.44130033909E+02  0.47000000000E+01 0. -1.
          5    1    4    4  502    0 -0.39620111688E+02 -0.18256949109E+02  0.17400713315E+02  0.47201104487E+02  0.47000000000E+01 0.  1.
         -5    1    4    4    0  502 -0.90908074732E+00  0.54770376783E+02 -0.94854954333E+02  0.10963654939E+03  0.47000000000E+01 0.  1.
<mgrwt>
<rscale>  0 0.28733472E+03</rscale>
<asrwt>0</asrwt>
<pdfrwt beam="1">  1       21 0.17813853E-01 0.28733472E+03</pdfrwt>
<pdfrwt beam="2">  1       21 0.27424054E-01 0.28733472E+03</pdfrwt>
<totfact> 0.35557670E+05</totfact>
</mgrwt>
</event>
<event>
 8    1  0.9974463E-006  0.3186565E+03  0.7546771E-02  0.1076269E+00
         21   -1    0    0  504  503  0.00000000000E+00  0.00000000000E+00  0.64969795901E+03  0.64969795901E+03  0.00000000000E+00 0. -1.
         21   -1    0    0  503  504 -0.00000000000E+00 -0.00000000000E+00 -0.39072755937E+02  0.39072755937E+02  0.00000000000E+00 0. -1.
         25    2    1    2    0    0 -0.90130503989E+02 -0.28732084308E+02  0.36686796493E+03  0.39895721627E+03  0.12500286519E+03 0.  0.
         25    2    1    2    0    0  0.90130503989E+02  0.28732084308E+02  0.24375723814E+03  0.28981349868E+03  0.12500092980E+03 0.  0.
          5    1    3    3  501    0 -0.94057177302E+02 -0.64379124186E+02  0.32019874647E+03  0.33991285865E+03  0.47000000000E+01 0. -1.
         -5    1    3    3    0  501  0.39266733133E+01  0.35647039877E+02  0.46669218453E+02  0.59044357616E+02  0.47000000000E+01 0. -1.
          5    1    4    4  502    0  0.71910083152E+02 -0.35469473468E+02  0.18127189602E+03  0.19826934684E+03  0.47000000000E+01 0. -1.
         -5    1    4    4    0  502  0.18220420836E+02  0.64201557776E+02  0.62485342120E+02  0.91544151840E+02  0.47000000000E+01 0. -1.
<mgrwt>
<rscale>  0 0.31865649E+03</rscale>
<asrwt>0</asrwt>
<pdfrwt beam="1">  1       21 0.99953525E-01 0.31865649E+03</pdfrwt>
<pdfrwt beam="2">  1       21 0.60111937E-02 0.31865649E+03</pdfrwt>
<totfact> 0.15531888E+05</totfact>
</mgrwt>
</event>
<event>
 8    1  0.9974463E-006  0.3306087E+03  0.7546771E-02  0.1070868E+00
         21   -1    0    0  504  503  0.00000000000E+00  0.00000000000E+00  0.54408630840E+02  0.54408630840E+02  0.00000000000E+00 0.  1.
         21   -1    0    0  503  504 -0.00000000000E+00 -0.00000000000E+00 -0.50222767824E+03  0.50222767824E+03  0.00000000000E+00 0.  1.
         25    2    1    2    0    0 -0.22777916446E+02  0.15551895648E+02 -0.47803730855E+02  0.13663579127E+03  0.12499379119E+03 0.  0.
         25    2    1    2    0    0  0.22777916446E+02 -0.15551895648E+02 -0.40001531655E+03  0.42000051781E+03  0.12500994582E+03 0.  0.
          5    1    3    3  501    0 -0.23577792422E+02  0.23264899800E+02  0.37842717083E+02  0.50510682973E+02  0.47000000000E+01 0. -1.
         -5    1    3    3    0  501  0.79987597625E+00 -0.77130041520E+01 -0.85646447938E+02  0.86125108296E+02  0.47000000000E+01 0. -1.
          5    1    4    4  502    0  0.18931976023E+02 -0.45293944584E+02 -0.55881563214E+02  0.74530532262E+02  0.47000000000E+01 0.  1.
         -5    1    4    4    0  502  0.38459404223E+01  0.29742048936E+02 -0.34413375333E+03  0.34546998555E+03  0.47000000000E+01 0.  1.
<mgrwt>
<rscale>  0 0.33060865E+03</rscale>
<asrwt>0</asrwt>
<pdfrwt beam="1">  1       21 0.83705585E-02 0.33060865E+03</pdfrwt>
<pdfrwt beam="2">  1       21 0.77265797E-01 0.33060865E+03</pdfrwt>
<totfact> 0.15847089E+05</totfact>
</mgrwt>
</event>
<event>
 8    1  0.9974463E-006  0.2679328E+03  0.7546771E-02  0.1102469E+00
         21   -1    0    0  504  503  0.00000000000E+00  0.00000000000E+00  0.25273237270E+03  0.25273237270E+03  0.00000000000E+00 0. -1.
         21   -1    0    0  503  504 -0.00000000000E+00 -0.00000000000E+00 -0.71011836546E+02  0.71011836546E+02  0.00000000000E+00 0. -1.
         25    2    1    2    0    0  0.11769600679E+02  0.45004085778E+02  0.75678177469E+02  0.15335112844E+03  0.12500196323E+03 0.  0.
         25    2    1    2    0    0 -0.11769600679E+02 -0.45004085778E+02  0.10604235869E+03  0.17039308081E+03  0.12499971566E+03 0.  0.
          5    1    3    3  501    0  0.39622259148E+02  0.72348581601E+02  0.78458727403E+02  0.11393903012E+03  0.47000000000E+01 0. -1.
         -5    1    3    3    0  501 -0.27852658469E+02 -0.27344495824E+02 -0.27805499341E+01  0.39412098315E+02  0.47000000000E+01 0. -1.
          5    1    4    4  502    0 -0.17987153247E+02 -0.87128969714E+02  0.82937413911E+02  0.12171975876E+03  0.47000000000E+01 0.  1.
         -5    1    4    4    0  502  0.62175525679E+01  0.42124883937E+02  0.23104944775E+02  0.48673322053E+02  0.47000000000E+01 0.  1.
<mgrwt>
<rscale>  0 0.26793275E+03</rscale>
<asrwt>0</asrwt>
<pdfrwt beam="1">  1       21 0.38881903E-01 0.26793275E+03</pdfrwt>
<pdfrwt beam="2">  1       21 0.10924898E-01 0.26793275E+03</pdfrwt>
<totfact> 0.43559387E+05</totfact>
</mgrwt>
</event>
<event>
 8    1  0.9974463E-006  0.2708990E+03  0.7546771E-02  0.1100766E+00
         21   -1    0    0  504  503  0.00000000000E+00  0.00000000000E+00  0.16531298449E+03  0.16531298449E+03  0.00000000000E+00 0.  1.
         21   -1    0    0  503  504 -0.00000000000E+00 -0.00000000000E+00 -0.11098080209E+03  0.11098080209E+03  0.00000000000E+00 0.  1.
         25    2    1    2    0    0  0.40614558109E+02  0.13176489480E+02 -0.33608491589E+01  0.13212124801E+03  0.12498626590E+03 0.  0.
         25    2    1    2    0    0 -0.40614558109E+02 -0.13176489480E+02  0.57693031559E+02  0.14417253857E+03  0.12503628586E+03 0.  0.
          5    1    3    3  501    0 -0.39287093398E+02 -0.60903528771E+01  0.22380857126E+02  0.45864592787E+02  0.47000000000E+01 0. -1.
         -5    1    3    3    0  501  0.79901651507E+02  0.19266842357E+02 -0.25741706285E+02  0.86256655224E+02  0.47000000000E+01 0. -1.
          5    1    4    4  502    0 -0.42743121142E+02 -0.46360246607E+02  0.81393484013E+02  0.10306908416E+03  0.47000000000E+01 0.  1.
         -5    1    4    4    0  502  0.21285630328E+01  0.33183757127E+02 -0.23700452453E+02  0.41103454406E+02  0.47000000000E+01 0.  1.
<mgrwt>
<rscale>  0 0.27089900E+03</rscale>
<asrwt>0</asrwt>
<pdfrwt beam="1">  1       21 0.25432767E-01 0.27089900E+03</pdfrwt>
<pdfrwt beam="2">  1       21 0.17073970E-01 0.27089900E+03</pdfrwt>
<totfact> 0.44658728E+05</totfact>
</mgrwt>
</event>
<event>
 8    1  0.9974463E-006  0.2625842E+03  0.7546771E-02  0.1105600E+00
         21   -1    0    0  504  503  0.00000000000E+00  0.00000000000E+00  0.37164046356E+02  0.37164046356E+02  0.00000000000E+00 0. -1.
         21   -1    0    0  503  504 -0.00000000000E+00 -0.00000000000E+00 -0.46382512702E+03  0.46382512702E+03  0.00000000000E+00 0. -1.
         25    2    1    2    0    0  0.25866655944E+02 -0.29200126129E+02 -0.19518267317E+03  0.23503756896E+03  0.12499860663E+03 0.  0.
         25    2    1    2    0    0 -0.25866655944E+02  0.29200126129E+02 -0.23147840749E+03  0.26595160442E+03  0.12500508590E+03 0.  0.
          5    1    3    3  501    0  0.75163705579E+02 -0.26529014772E+02 -0.10259376285E+03  0.13000362086E+03  0.47000000000E+01 0.  1.
         -5    1    3    3    0  501 -0.49297049634E+02 -0.26711113572E+01 -0.92588910315E+02  0.10503394809E+03  0.47000000000E+01 0.  1.
          5    1    4    4  502    0 -0.15577404787E+02 -0.26873410381E+02 -0.19629832756E+03  0.19879627544E+03  0.47000000000E+01 0.  1.
         -5    1    4    4    0  502 -0.10289251157E+02  0.56073536510E+02 -0.35180079931E+02  0.67155328977E+02  0.47000000000E+01 0.  1.
<mgrwt>
<rscale>  0 0.26258422E+03</rscale>
<asrwt>0</asrwt>
<pdfrwt beam="1">  1       21 0.57175460E-02 0.26258422E+03</pdfrwt>
<pdfrwt beam="2">  1       21 0.71357707E-01 0.26258422E+03</pdfrwt>
<totfact> 0.37394773E+05</totfact>
</mgrwt>
</event>
<event>
 8    1  0.9974463E-006  0.3115845E+03  0.7546771E-02  0.1079589E+00
         21   -1    0    0  504  503  0.00000000000E+00  0.00000000000E+00  0.63588917622E+03  0.63588917622E+03  0.00000000000E+00 0. -1.
         21   -1    0    0  503  504 -0.00000000000E+00 -0.00000000000E+00 -0.38168947757E+02  0.38168947757E+02  0.00000000000E+00 0. -1.
         25    2    1    2    0    0  0.46623922633E+02 -0.77079328726E+02  0.24895995592E+03  0.29278027369E+03  0.12499686370E+03 0.  0.
         25    2    1    2    0    0 -0.46623922633E+02  0.77079328726E+02  0.34876027255E+03  0.38127785029E+03  0.12499623328E+03 0.  0.
          5    1    3    3  501    0  0.55169599884E+02 -0.10446812071E+03  0.15835535256E+03  0.19762535435E+03  0.47000000000E+01 0.  1.
         -5    1    3    3    0  501 -0.85456772512E+01  0.27388791985E+02  0.90604603355E+02  0.95154919343E+02  0.47000000000E+01 0.  1.
          5    1    4    4  502    0 -0.80126481655E+02  0.32518281210E+02  0.27737712296E+03  0.29058191619E+03  0.47000000000E+01 0. -1.
         -5    1    4    4    0  502  0.33502559022E+02  0.44561047516E+02  0.71383149586E+02  0.90695934096E+02  0.47000000000E+01 0. -1.
<mgrwt>
<rscale>  0 0.31158447E+03</rscale>
<asrwt>0</asrwt>
<pdfrwt beam="1">  1       21 0.97829096E-01 0.31158447E+03</pdfrwt>
<pdfrwt beam="2">  1       21 0.58721463E-02 0.31158447E+03</pdfrwt>
<totfact> 0.17057426E+05</totfact>
</mgrwt>
</event>
<event>
 8    1  0.9974463E-006  0.3010801E+03  0.7546771E-02  0.1084702E+00
         21   -1    0    0  504  503  0.00000000000E+00  0.00000000000E+00  0.31040409476E+03  0.31040409476E+03  0.00000000000E+00 0.  1.
         21   -1    0    0  503  504 -0.00000000000E+00 -0.00000000000E+00 -0.73009039834E+02  0.73009039834E+02  0.00000000000E+00 0.  1.
         25    2    1    2    0    0 -0.58755240397E+02 -0.51822911233E+02  0.80482236159E+02  0.16804442294E+03  0.12499498126E+03 0.  0.
         25    2    1    2    0    0  0.58755240397E+02  0.51822911233E+02  0.15691281876E+03  0.21536871165E+03  0.12499702742E+03 0.  0.
          5    1    3    3  501    0 -0.81867942291E+02 -0.70301860412E+02  0.34928398244E+02  0.11352001831E+03  0.47000000000E+01 0.  1.
         -5    1    3    3    0  501  0.23112701894E+02  0.18478949179E+02  0.45553837914E+02  0.54524404631E+02  0.47000000000E+01 0.  1.
          5    1    4    4  502    0 -0.16040589534E+02 -0.12653539927E+02  0.98143523805E+02  0.10035762976E+03  0.47000000000E+01 0. -1.
         -5    1    4    4    0  502  0.74795829931E+02  0.64476451159E+02  0.58769294957E+02  0.11501108190E+03  0.47000000000E+01 0. -1.
<mgrwt>
<rscale>  0 0.30108009E+03</rscale>
<asrwt>0</asrwt>
<pdfrwt beam="1">  1       21 0.47754475E-01 0.30108009E+03</pdfrwt>
<pdfrwt beam="2">  1       21 0.11232160E-01 0.30108009E+03</pdfrwt>
<totfact> 0.26959604E+05</totfact>
</mgrwt>
</event>
<event>
 8    1  0.9974463E-006  0.4603509E+03  0.7546771E-02  0.1024679E+00
         21   -1    0    0  504  503  0.00000000000E+00  0.00000000000E+00  0.31069011589E+03  0.31069011589E+03  0.00000000000E+00 0. -1.
         21   -1    0    0  503  504 -0.00000000000E+00 -0.00000000000E+00 -0.17052598566E+03  0.17052598566E+03  0.00000000000E+00 0. -1.
         25    2    1    2    0    0  0.64315189929E+02 -0.14618335609E+03 -0.43670531021E+02  0.20745979771E+03  0.12500574040E+03 0.  0.
         25    2    1    2    0    0 -0.64315189929E+02  0.14618335609E+03  0.18383466125E+03  0.27375630384E+03  0.12506523881E+03 0.  0.
          5    1    3    3  501    0  0.33889927221E+02 -0.16327966725E+03 -0.29076434383E+02  0.16934079821E+03  0.47000000000E+01 0. -1.
         -5    1    3    3    0  501  0.30425262708E+02  0.17096311158E+02 -0.14594096638E+02  0.38118999498E+02  0.47000000000E+01 0. -1.
          5    1    4    4  502    0  0.35531910416E+02  0.53884978588E+02  0.41627839069E+02  0.76948518899E+02  0.47000000000E+01 0. -1.
         -5    1    4    4    0  502 -0.99847100345E+02  0.92298377501E+02  0.14220682218E+03  0.19680778494E+03  0.47000000000E+01 0. -1.
<mgrwt>
<rscale>  0 0.46035090E+03</rscale>
<asrwt>0</asrwt>
<pdfrwt beam="1">  1       21 0.47798479E-01 0.46035090E+03</pdfrwt>
<pdfrwt beam="2">  1       21 0.26234767E-01 0.46035090E+03</pdfrwt>
<totfact> 0.53169418E+04</totfact>
</mgrwt>
</event>
<event>
 8    1  0.9974463E-006  0.4302833E+03  0.7546771E-02  0.1033771E+00
         21   -1    0    0  504  503  0.00000000000E+00  0.00000000000E+00  0.53430823663E+02  0.53430823663E+02  0.00000000000E+00 0.  1.
         21   -1    0    0  503  504 -0.00000000000E+00 -0.00000000000E+00 -0.86627772105E+03  0.86627772105E+03  0.00000000000E+00 0.  1.
         25    2    1    2    0    0 -0.27028490222E+02  0.38764207145E+01 -0.36726062096E+02  0.13311323969E+03  0.12499906008E+03 0.  0.
         25    2    1    2    0    0  0.27028490222E+02 -0.38764207145E+01 -0.77612083529E+03  0.78659530503E+03  0.12499222774E+03 0.  0.
          5    1    3    3  501    0 -0.61779272632E+02 -0.26692990391E+02 -0.50866497155E+02  0.84490737930E+02  0.47000000000E+01 0. -1.
         -5    1    3    3    0  501  0.34750782410E+02  0.30569411106E+02  0.14140435060E+02  0.48622501758E+02  0.47000000000E+01 0. -1.
          5    1    4    4  502    0  0.74289619124E+01  0.35263328788E+02 -0.67958165180E+02  0.77065517886E+02  0.47000000000E+01 0.  1.
         -5    1    4    4    0  502  0.19599528310E+02 -0.39139749503E+02 -0.70816267011E+03  0.70952978714E+03  0.47000000000E+01 0.  1.
<mgrwt>
<rscale>  0 0.43028331E+03</rscale>
<asrwt>0</asrwt>
<pdfrwt beam="1">  1       21 0.82201268E-02 0.43028331E+03</pdfrwt>
<pdfrwt beam="2">  1       21 0.13327349E+00 0.43028331E+03</pdfrwt>
<totfact> 0.42447822E+04</totfact>
</mgrwt>
</event>
<event>
 8    1  0.9974463E-006  0.2720189E+03  0.7546771E-02  0.1100130E+00
         21   -1    0    0  504  503  0.00000000000E+00  0.00000000000E+00  0.17699514164E+02  0.17699514164E+02  0.00000000000E+00 0.  1.
         21   -1    0    0  503  504 -0.00000000000E+00 -0.00000000000E+00 -0.10451455873E+04  0.10451455873E+04  0.00000000000E+00 0.  1.
         25    2    1    2    0    0  0.40871393382E+02  0.23688249497E+01 -0.64893108635E+03  0.66212736437E+03  0.12500003880E+03 0.  0.
         25    2    1    2    0    0 -0.40871393382E+02 -0.23688249497E+01 -0.37851498683E+03  0.40071773713E+03  0.12500010987E+03 0.  0.
          5    1    3    3  501    0 -0.41584992332E+01  0.57680158416E+01  0.26810774599E+01  0.89353958484E+01  0.47000000000E+01 0. -1.
         -5    1    3    3    0  501  0.45029892615E+02 -0.33991908919E+01 -0.65161216381E+03  0.65319196853E+03  0.47000000000E+01 0. -1.
          5    1    4    4  502    0  0.17212132628E+02 -0.49146103640E+02 -0.20940783938E+03  0.21583635052E+03  0.47000000000E+01 0. -1.
         -5    1    4    4    0  502 -0.58083526010E+02  0.46777278691E+02 -0.16910714745E+03  0.18488138661E+03  0.47000000000E+01 0. -1.
<mgrwt>
<rscale>  0 0.27201889E+03</rscale>
<asrwt>0</asrwt>
<pdfrwt beam="1">  1       21 0.27230021E-02 0.27201889E+03</pdfrwt>
<pdfrwt beam="2">  1       21 0.16079163E+00 0.27201889E+03</pdfrwt>
<totfact> 0.17876645E+05</totfact>
</mgrwt>
</event>
<event>
 8    1  0.9974463E-006  0.2711901E+03  0.7546771E-02  0.1100600E+00
         21   -1    0    0  504  503  0.00000000000E+00  0.00000000000E+00  0.14501877336E+03  0.14501877336E+03  0.00000000000E+00 0.  1.
         21   -1    0    0  503  504 -0.00000000000E+00 -0.00000000000E+00 -0.12678372731E+03  0.12678372731E+03  0.00000000000E+00 0.  1.
         25    2    1    2    0    0  0.53646901646E+01 -0.45498578266E+02  0.34850176462E+02  0.13764104508E+03  0.12502648506E+03 0.  0.
         25    2    1    2    0    0 -0.53646901646E+01  0.45498578266E+02 -0.16615130411E+02  0.13416145559E+03  0.12499733231E+03 0.  0.
          5    1    3    3  501    0 -0.38842616778E+02  0.34063938397E+01  0.55865377450E+02  0.68288965395E+02  0.47000000000E+01 0.  1.
         -5    1    3    3    0  501  0.44207306943E+02 -0.48904972105E+02 -0.21015200988E+02  0.69352079683E+02  0.47000000000E+01 0.  1.
          5    1    4    4  502    0  0.40607655443E+02 -0.46945437812E-01 -0.47190609939E+02  0.62434185755E+02  0.47000000000E+01 0.  1.
         -5    1    4    4    0  502 -0.45972345608E+02  0.45545523703E+02  0.30575479528E+02  0.71727269838E+02  0.47000000000E+01 0.  1.
<mgrwt>
<rscale>  0 0.27119012E+03</rscale>
<asrwt>0</asrwt>
<pdfrwt beam="1">  1       21 0.22310580E-01 0.27119012E+03</pdfrwt>
<pdfrwt beam="2">  1       21 0.19505189E-01 0.27119012E+03</pdfrwt>
<totfact> 0.44763049E+05</totfact>
</mgrwt>
</event>
<event>
 8    1  0.9974463E-006  0.3067155E+03  0.7546771E-02  0.1081931E+00
         21   -1    0    0  504  503  0.00000000000E+00  0.00000000000E+00  0.77246715159E+03  0.77246715159E+03  0.00000000000E+00 0.  1.
         21   -1    0    0  503  504 -0.00000000000E+00 -0.00000000000E+00 -0.30446092610E+02  0.30446092610E+02  0.00000000000E+00 0.  1.
         25    2    1    2    0    0 -0.72366293202E+02  0.11093425480E+02  0.50279372393E+03  0.52324670849E+03  0.12500257853E+03 0.  0.
         25    2    1    2    0    0  0.72366293202E+02 -0.11093425480E+02  0.23922733505E+03  0.27966653571E+03  0.12499483542E+03 0.  0.
          5    1    3    3  501    0 -0.33604592953E+02 -0.38554292225E+02  0.75518176525E+02  0.91327909766E+02  0.47000000000E+01 0. -1.
         -5    1    3    3    0  501 -0.38761700249E+02  0.49647717705E+02  0.42727554741E+03  0.43191879872E+03  0.47000000000E+01 0. -1.
          5    1    4    4  502    0  0.60375013766E+02 -0.22221251371E+02  0.32483478013E+02  0.72223214021E+02  0.47000000000E+01 0. -1.
         -5    1    4    4    0  502  0.11991279436E+02  0.11127825891E+02  0.20674385704E+03  0.20744332169E+03  0.47000000000E+01 0. -1.
<mgrwt>
<rscale>  0 0.30671555E+03</rscale>
<asrwt>0</asrwt>
<pdfrwt beam="1">  1       21 0.11884109E+00 0.30671555E+03</pdfrwt>
<pdfrwt beam="2">  1       21 0.46840148E-02 0.30671555E+03</pdfrwt>
<totfact> 0.15646356E+05</totfact>
</mgrwt>
</event>
<event>
 8    1  0.9974463E-006  0.2978001E+03  0.7546771E-02  0.1086346E+00
         21   -1    0    0  504  503  0.00000000000E+00  0.00000000000E+00  0.17737939605E+02  0.17737939605E+02  0.00000000000E+00 0. -1.
         21   -1    0    0  503  504 -0.00000000000E+00 -0.00000000000E+00 -0.12499320304E+04  0.12499320304E+04  0.00000000000E+00 0. -1.
         25    2    1    2    0    0 -0.26814369020E+02  0.82832561533E+01 -0.29305419384E+03  0.31983198376E+03  0.12499645833E+03 0.  0.
         25    2    1    2    0    0  0.26814369020E+02 -0.82832561533E+01 -0.93913989691E+03  0.94783798620E+03  0.12500191754E+03 0.  0.
          5    1    3    3  501    0 -0.58693309171E+02 -0.20818995180E+02 -0.25355670539E+03  0.26113488459E+03  0.47000000000E+01 0. -1.
         -5    1    3    3    0  501  0.31878940151E+02  0.29102251333E+02 -0.39497488452E+02  0.58697099177E+02  0.47000000000E+01 0. -1.
          5    1    4    4  502    0 -0.49853670576E+02  0.19376175814E+01 -0.32826109964E+03  0.33206412389E+03  0.47000000000E+01 0.  1.
         -5    1    4    4    0  502  0.76668039596E+02 -0.10220873735E+02 -0.61087879727E+03  0.61577386231E+03  0.47000000000E+01 0.  1.
<mgrwt>
<rscale>  0 0.29780006E+03</rscale>
<asrwt>0</asrwt>
<pdfrwt beam="1">  1       21 0.27289137E-02 0.29780006E+03</pdfrwt>
<pdfrwt beam="2">  1       21 0.19229724E+00 0.29780006E+03</pdfrwt>
<totfact> 0.10614732E+05</totfact>
</mgrwt>
</event>
<event>
 8    1  0.9974463E-006  0.2684676E+03  0.7546771E-02  0.1102160E+00
         21   -1    0    0  504  503  0.00000000000E+00  0.00000000000E+00  0.51997211404E+02  0.51997211404E+02  0.00000000000E+00 0. -1.
         21   -1    0    0  503  504 -0.00000000000E+00 -0.00000000000E+00 -0.34653236892E+03  0.34653236892E+03  0.00000000000E+00 0. -1.
         25    2    1    2    0    0  0.81755288959E+01 -0.24483461757E+02 -0.20895399038E+03  0.24485170224E+03  0.12499722725E+03 0.  0.
         25    2    1    2    0    0 -0.81755288959E+01  0.24483461757E+02 -0.85581167138E+02  0.15367787809E+03  0.12500589935E+03 0.  0.
          5    1    3    3  501    0  0.11096544769E+02 -0.69637618960E+02 -0.17296238787E+03  0.18684380883E+03  0.47000000000E+01 0.  1.
         -5    1    3    3    0  501 -0.29210158729E+01  0.45154157203E+02 -0.35991602513E+02  0.58007893410E+02  0.47000000000E+01 0.  1.
          5    1    4    4  502    0  0.37604884238E+02 -0.33026359538E+02 -0.17080860595E+02  0.53091558101E+02  0.47000000000E+01 0.  1.
         -5    1    4    4    0  502 -0.45780413134E+02  0.57509821295E+02 -0.68500306543E+02  0.10058631999E+03  0.47000000000E+01 0.  1.
<mgrwt>
<rscale>  0 0.26846763E+03</rscale>
<asrwt>0</asrwt>
<pdfrwt beam="1">  1       21 0.79995711E-02 0.26846763E+03</pdfrwt>
<pdfrwt beam="2">  1       21 0.53312672E-01 0.26846763E+03</pdfrwt>
<totfact> 0.39308337E+05</totfact>
</mgrwt>
</event>
<event>
 8    1  0.9974463E-006  0.2979969E+03  0.7546771E-02  0.1086246E+00
         21   -1    0    0  504  503  0.00000000000E+00  0.00000000000E+00  0.20001133208E+03  0.20001133208E+03  0.00000000000E+00 0.  1.
         21   -1    0    0  503  504 -0.00000000000E+00 -0.00000000000E+00 -0.11099643587E+03  0.11099643587E+03  0.00000000000E+00 0.  1.
         25    2    1    2    0    0 -0.57513208727E+02 -0.57068107775E+02  0.40968441700E+02  0.15449030061E+03  0.12499720663E+03 0.  0.
         25    2    1    2    0    0  0.57513208727E+02  0.57068107775E+02  0.48046454510E+02  0.15651746735E+03  0.12499887076E+03 0.  0.
          5    1    3    3  501    0 -0.31275945512E+02  0.25554375171E+02 -0.22942599619E+02  0.46686868982E+02  0.47000000000E+01 0.  1.
         -5    1    3    3    0  501 -0.26237263214E+02 -0.82622482945E+02  0.63911041319E+02  0.10780343163E+03  0.47000000000E+01 0.  1.
          5    1    4    4  502    0  0.36656471505E+02  0.54381617860E+02  0.88755858602E+02  0.11045700385E+03  0.47000000000E+01 0. -1.
         -5    1    4    4    0  502  0.20856737222E+02  0.26864899146E+01 -0.40709404091E+02  0.46060463492E+02  0.47000000000E+01 0. -1.
<mgrwt>
<rscale>  0 0.29799695E+03</rscale>
<asrwt>0</asrwt>
<pdfrwt beam="1">  1       21 0.30770974E-01 0.29799695E+03</pdfrwt>
<pdfrwt beam="2">  1       21 0.17076375E-01 0.29799695E+03</pdfrwt>
<totfact> 0.30630609E+05</totfact>
</mgrwt>
</event>
<event>
 8    1  0.9974463E-006  0.3075367E+03  0.7546771E-02  0.1081533E+00
         21   -1    0    0  504  503  0.00000000000E+00  0.00000000000E+00  0.74600485363E+02  0.74600485363E+02  0.00000000000E+00 0. -1.
         21   -1    0    0  503  504 -0.00000000000E+00 -0.00000000000E+00 -0.31695107614E+03  0.31695107614E+03  0.00000000000E+00 0. -1.
         25    2    1    2    0    0  0.68819401750E+02 -0.10386832617E+02 -0.49463668736E+02  0.15139699284E+03  0.12502159241E+03 0.  0.
         25    2    1    2    0    0 -0.68819401750E+02  0.10386832617E+02 -0.19288692204E+03  0.24015456865E+03  0.12499942321E+03 0.  0.
          5    1    3    3  501    0  0.20495121882E+02  0.60890947364E+01 -0.85804152393E+02  0.88552637812E+02  0.47000000000E+01 0. -1.
         -5    1    3    3    0  501  0.48324279867E+02 -0.16475927354E+02  0.36340483657E+02  0.62844355031E+02  0.47000000000E+01 0. -1.
          5    1    4    4  502    0  0.22873399227E+02  0.40232577631E+02 -0.61473993476E+02  0.77090820264E+02  0.47000000000E+01 0. -1.
         -5    1    4    4    0  502 -0.91692800977E+02 -0.29845745013E+02 -0.13141292856E+03  0.16306374839E+03  0.47000000000E+01 0. -1.
<mgrwt>
<rscale>  0 0.30753669E+03</rscale>
<asrwt>0</asrwt>
<pdfrwt beam="1">  1       21 0.11476998E-01 0.30753669E+03</pdfrwt>
<pdfrwt beam="2">  1       21 0.48761703E-01 0.30753669E+03</pdfrwt>
<totfact> 0.24789463E+05</totfact>
</mgrwt>
</event>
<event>
 8    1  0.9974463E-006  0.3197498E+03  0.7546771E-02  0.1075765E+00
         21   -1    0    0  504  503  0.00000000000E+00  0.00000000000E+00  0.31280071790E+03  0.31280071790E+03  0.00000000000E+00 0. -1.
         21   -1    0    0  503  504 -0.00000000000E+00 -0.00000000000E+00 -0.81713315940E+02  0.81713315940E+02  0.00000000000E+00 0. -1.
         25    2    1    2    0    0  0.89183041689E+01  0.35214431316E+02  0.23006053260E+03  0.26434101477E+03  0.12501492355E+03 0.  0.
         25    2    1    2    0    0 -0.89183041689E+01 -0.35214431316E+02  0.10268693616E+01  0.13017301907E+03  0.12499747241E+03 0.  0.
          5    1    3    3  501    0 -0.14947039711E+02  0.78395260890E+02  0.15485339270E+03  0.17427247102E+03  0.47000000000E+01 0. -1.
         -5    1    3    3    0  501  0.23865343880E+02 -0.43180829573E+02  0.75207139895E+02  0.90068543745E+02  0.47000000000E+01 0. -1.
          5    1    4    4  502    0  0.17593154594E+02  0.25004152035E+02 -0.41447275746E+02  0.51717437817E+02  0.47000000000E+01 0.  1.
         -5    1    4    4    0  502 -0.26511458763E+02 -0.60218583352E+02  0.42474145108E+02  0.78455581250E+02  0.47000000000E+01 0.  1.
<mgrwt>
<rscale>  0 0.31974980E+03</rscale>
<asrwt>0</asrwt>
<pdfrwt beam="1">  1       21 0.48123187E-01 0.31974980E+03</pdfrwt>
<pdfrwt beam="2">  1       21 0.12571280E-01 0.31974980E+03</pdfrwt>
<totfact> 0.21560292E+05</totfact>
</mgrwt>
</event>
<event>
 8    1  0.9974463E-006  0.3120659E+03  0.7546771E-02  0.1079360E+00
         21   -1    0    0  504  503  0.00000000000E+00  0.00000000000E+00  0.31857619610E+03  0.31857619610E+03  0.00000000000E+00 0.  1.
         21   -1    0    0  503  504 -0.00000000000E+00 -0.00000000000E+00 -0.76422174218E+02  0.76422174218E+02  0.00000000000E+00 0.  1.
         25    2    1    2    0    0  0.12633452690E+02  0.74332849499E+02  0.51352787227E+02  0.15474967828E+03  0.12500151011E+03 0.  0.
         25    2    1    2    0    0 -0.12633452690E+02 -0.74332849499E+02  0.19080123465E+03  0.24024869204E+03  0.12501738375E+03 0.  0.
          5    1    3    3  501    0  0.56058006034E+02  0.31960743335E+02  0.65719261341E+02  0.92223101587E+02  0.47000000000E+01 0.  1.
         -5    1    3    3    0  501 -0.43424553345E+02  0.42372106164E+02 -0.14366474114E+02  0.62526576689E+02  0.47000000000E+01 0.  1.
          5    1    4    4  502    0  0.61003460003E+01 -0.91497940505E+02  0.19358691667E+03  0.21425935602E+03  0.47000000000E+01 0.  1.
         -5    1    4    4    0  502 -0.18733798690E+02  0.17165091006E+02 -0.27856820101E+01  0.25989336022E+02  0.47000000000E+01 0.  1.
<mgrwt>
<rscale>  0 0.31206593E+03</rscale>
<asrwt>0</asrwt>
<pdfrwt beam="1">  1       21 0.49011722E-01 0.31206593E+03</pdfrwt>
<pdfrwt beam="2">  1       21 0.11757258E-01 0.31206593E+03</pdfrwt>
<totfact> 0.23458012E+05</totfact>
</mgrwt>
</event>
<event>
 8    1  0.9974463E-006  0.2930260E+03  0.7546771E-02  0.1088780E+00
         21   -1    0    0  504  503  0.00000000000E+00  0.00000000000E+00  0.92656699356E+03  0.92656699356E+03  0.00000000000E+00 0.  1.
         21   -1    0    0  503  504 -0.00000000000E+00 -0.00000000000E+00 -0.23167304061E+02  0.23167304061E+02  0.00000000000E+00 0.  1.
         25    2    1    2    0    0  0.57624663798E+02 -0.38705753682E+02  0.55527765525E+03  0.57339319391E+03  0.12501097214E+03 0.  0.
         25    2    1    2    0    0 -0.57624663798E+02  0.38705753682E+02  0.34812203425E+03  0.37634110371E+03  0.12499975347E+03 0.  0.
          5    1    3    3  501    0 -0.23887806630E+02 -0.45429741888E+02  0.12203955413E+03  0.13247728683E+03  0.47000000000E+01 0.  1.
         -5    1    3    3    0  501  0.81512470428E+02  0.67239882054E+01  0.43323810112E+03  0.44091590708E+03  0.47000000000E+01 0.  1.
          5    1    4    4  502    0 -0.94726876822E+02  0.44688818448E+02  0.26551081089E+03  0.28546164784E+03  0.47000000000E+01 0.  1.
         -5    1    4    4    0  502  0.37102213024E+02 -0.59830647656E+01  0.82611223361E+02  0.90879455877E+02  0.47000000000E+01 0.  1.
<mgrwt>
<rscale>  0 0.29302600E+03</rscale>
<asrwt>0</asrwt>
<pdfrwt beam="1">  1       21 0.14254874E+00 0.29302600E+03</pdfrwt>
<pdfrwt beam="2">  1       21 0.35642013E-02 0.29302600E+03</pdfrwt>
<totfact> 0.15643309E+05</totfact>
</mgrwt>
</event>
<event>
 8    1  0.9974463E-006  0.4516149E+03  0.7546771E-02  0.1027242E+00
         21   -1    0    0  504  503  0.00000000000E+00  0.00000000000E+00  0.81891410092E+02  0.81891410092E+02  0.00000000000E+00 0. -1.
         21   -1    0    0  503  504 -0.00000000000E+00 -0.00000000000E+00 -0.62264180859E+03  0.62264180859E+03  0.00000000000E+00 0. -1.
         25    2    1    2    0    0 -0.65681079844E+02 -0.77944191011E+02 -0.23837902689E+02  0.16304190017E+03  0.12500045777E+03 0.  0.
         25    2    1    2    0    0  0.65681079844E+02  0.77944191011E+02 -0.51691249581E+03  0.54149131851E+03  0.12500007416E+03 0.  0.
          5    1    3    3  501    0 -0.50527879119E+02 -0.11201467203E+03 -0.11613676795E+02  0.12352052788E+03  0.47000000000E+01 0.  1.
         -5    1    3    3    0  501 -0.15153200726E+02  0.34070481019E+02 -0.12224225894E+02  0.39521372291E+02  0.47000000000E+01 0.  1.
          5    1    4    4  502    0  0.69631971638E+02  0.10427535896E+03 -0.33782824252E+03  0.36037754287E+03  0.47000000000E+01 0. -1.
         -5    1    4    4    0  502 -0.39508917934E+01 -0.26331167952E+02 -0.17908425328E+03  0.18111377564E+03  0.47000000000E+01 0. -1.
<mgrwt>
<rscale>  0 0.45161495E+03</rscale>
<asrwt>0</asrwt>
<pdfrwt beam="1">  1       21 0.12598678E-01 0.45161495E+03</pdfrwt>
<pdfrwt beam="2">  1       21 0.95791048E-01 0.45161495E+03</pdfrwt>
<totfact> 0.44716215E+04</totfact>
</mgrwt>
</event>
<event>
 8    1  0.9974463E-006  0.3691337E+03  0.7546771E-02  0.1055025E+00
         21   -1    0    0  504  503  0.00000000000E+00  0.00000000000E+00  0.68019732973E+03  0.68019732973E+03  0.00000000000E+00 0.  1.
         21   -1    0    0  503  504 -0.00000000000E+00 -0.00000000000E+00 -0.50080931772E+02  0.50080931772E+02  0.00000000000E+00 0.  1.
         25    2    1    2    0    0  0.12762114565E+03 -0.35263926813E+02  0.37470152591E+03  0.41660315345E+03  0.12500501027E+03 0.  0.
         25    2    1    2    0    0 -0.12762114565E+03  0.35263926813E+02  0.25541487205E+03  0.31367510805E+03  0.12499846077E+03 0.  0.
          5    1    3    3  501    0  0.32266664480E+02  0.26733164782E+02  0.25408374773E+02  0.49228805029E+02  0.47000000000E+01 0.  1.
         -5    1    3    3    0  501  0.95354481173E+02 -0.61997091595E+02  0.34929315114E+03  0.36737434842E+03  0.47000000000E+01 0.  1.
          5    1    4    4  502    0 -0.20297170047E+02  0.50077175153E+02  0.26484746839E+02  0.60359178244E+02  0.47000000000E+01 0.  1.
         -5    1    4    4    0  502 -0.10732397561E+03 -0.14813248340E+02  0.22893012521E+03  0.25331592981E+03  0.47000000000E+01 0.  1.
<mgrwt>
<rscale>  0 0.36913367E+03</rscale>
<asrwt>0</asrwt>
<pdfrwt beam="1">  1       21 0.10464574E+00 0.36913367E+03</pdfrwt>
<pdfrwt beam="2">  1       21 0.77047593E-02 0.36913367E+03</pdfrwt>
<totfact> 0.88943073E+04</totfact>
</mgrwt>
</event>
<event>
 8    1  0.9974463E-006  0.2906637E+03  0.7546771E-02  0.1090003E+00
         21   -1    0    0  504  503  0.00000000000E+00  0.00000000000E+00  0.40288018018E+03  0.40288018018E+03  0.00000000000E+00 0.  1.
         21   -1    0    0  503  504 -0.00000000000E+00 -0.00000000000E+00 -0.52425874238E+02  0.52425874238E+02  0.00000000000E+00 0.  1.
         25    2    1    2    0    0  0.57449105358E+02  0.79176103947E+01  0.10283836377E+03  0.17193406658E+03  0.12499002331E+03 0.  0.
         25    2    1    2    0    0 -0.57449105358E+02 -0.79176103947E+01  0.24761594216E+03  0.28337198783E+03  0.12499176138E+03 0.  0.
          5    1    3    3  501    0  0.81808934563E+01 -0.14934283480E+02 -0.26345419710E+02  0.31719567785E+02  0.47000000000E+01 0. -1.
         -5    1    3    3    0  501  0.49268211902E+02  0.22851893875E+02  0.12918378348E+03  0.14021449880E+03  0.47000000000E+01 0. -1.
          5    1    4    4  502    0 -0.53906729791E+02  0.50814555634E+02  0.10119602822E+03  0.12550211436E+03  0.47000000000E+01 0.  1.
         -5    1    4    4    0  502 -0.35423755676E+01 -0.58732166029E+02  0.14641991395E+03  0.15786987348E+03  0.47000000000E+01 0.  1.
<mgrwt>
<rscale>  0 0.29066369E+03</rscale>
<asrwt>0</asrwt>
<pdfrwt beam="1">  1       21 0.61981564E-01 0.29066369E+03</pdfrwt>
<pdfrwt beam="2">  1       21 0.80655194E-02 0.29066369E+03</pdfrwt>
<totfact> 0.27891396E+05</totfact>
</mgrwt>
</event>
<event>
 8    1  0.9974463E-006  0.2607956E+03  0.7546771E-02  0.1106666E+00
         21   -1    0    0  504  503  0.00000000000E+00  0.00000000000E+00  0.40530838038E+03  0.40530838038E+03  0.00000000000E+00 0.  1.
         21   -1    0    0  503  504 -0.00000000000E+00 -0.00000000000E+00 -0.41952231427E+02  0.41952231427E+02  0.00000000000E+00 0.  1.
         25    2    1    2    0    0  0.97654146444E+01  0.33178268937E+02  0.15851985215E+03  0.20481369942E+03  0.12499578829E+03 0.  0.
         25    2    1    2    0    0 -0.97654146444E+01 -0.33178268937E+02  0.20483629680E+03  0.24244691238E+03  0.12500574381E+03 0.  0.
          5    1    3    3  501    0  0.97295367174E+01  0.56679873276E+02  0.16905697264E+03  0.17863264517E+03  0.47000000000E+01 0.  1.
         -5    1    3    3    0  501  0.35877927055E-01 -0.23501604339E+02 -0.10537120490E+02  0.26181054256E+02  0.47000000000E+01 0.  1.
          5    1    4    4  502    0 -0.63706153923E+02 -0.11419351923E+01  0.12866089892E+03  0.14365060033E+03  0.47000000000E+01 0. -1.
         -5    1    4    4    0  502  0.53940739279E+02 -0.32036333745E+02  0.76175397877E+02  0.98796312054E+02  0.47000000000E+01 0. -1.
<mgrwt>
<rscale>  0 0.26079564E+03</rscale>
<asrwt>0</asrwt>
<pdfrwt beam="1">  1       21 0.62355133E-01 0.26079564E+03</pdfrwt>
<pdfrwt beam="2">  1       21 0.64541897E-02 0.26079564E+03</pdfrwt>
<totfact> 0.40857363E+05</totfact>
</mgrwt>
</event>
<event>
 8    1  0.9974463E-006  0.5673078E+03  0.7546771E-02  0.9975654E-01
         21   -1    0    0  504  503  0.00000000000E+00  0.00000000000E+00  0.11714892446E+04  0.11714892446E+04  0.00000000000E+00 0. -1.
         21   -1    0    0  503  504 -0.00000000000E+00 -0.00000000000E+00 -0.68681408684E+02  0.68681408684E+02  0.00000000000E+00 0. -1.
         25    2    1    2    0    0 -0.13783768183E+03 -0.45498299068E+02  0.10087321932E+04  0.10267603559E+04  0.12500747641E+03 0.  0.
         25    2    1    2    0    0  0.13783768183E+03  0.45498299068E+02  0.94075642714E+02  0.21341029735E+03  0.12499762684E+03 0.  0.
          5    1    3    3  501    0 -0.31851735828E+02  0.31074313015E+02  0.47997163183E+03  0.48205290515E+03  0.47000000000E+01 0. -1.
         -5    1    3    3    0  501 -0.10598594600E+03 -0.76572612083E+02  0.52876056138E+03  0.54470745078E+03  0.47000000000E+01 0. -1.
          5    1    4    4  502    0  0.13049940578E+03  0.74534868821E+02  0.47213081421E+02  0.15759665808E+03  0.47000000000E+01 0.  1.
         -5    1    4    4    0  502  0.73382760447E+01 -0.29036569753E+02  0.46862561292E+02  0.55813639276E+02  0.47000000000E+01 0.  1.
<mgrwt>
<rscale>  0 0.56730779E+03</rscale>
<asrwt>0</asrwt>
<pdfrwt beam="1">  1       21 0.18022910E+00 0.56730779E+03</pdfrwt>
<pdfrwt beam="2">  1       21 0.10566371E-01 0.56730779E+03</pdfrwt>
<totfact> 0.11324569E+04</totfact>
</mgrwt>
</event>
<event>
 8    1  0.9974463E-006  0.3067085E+03  0.7546771E-02  0.1081934E+00
         21   -1    0    0  504  503  0.00000000000E+00  0.00000000000E+00  0.93075400050E+03  0.93075400050E+03  0.00000000000E+00 0.  1.
         21   -1    0    0  503  504 -0.00000000000E+00 -0.00000000000E+00 -0.25267182569E+02  0.25267182569E+02  0.00000000000E+00 0.  1.
         25    2    1    2    0    0 -0.23458531085E+02 -0.79077280182E+02  0.34989927560E+03  0.38060310882E+03  0.12500281782E+03 0.  0.
         25    2    1    2    0    0  0.23458531085E+02  0.79077280182E+02  0.55558754234E+03  0.57541807425E+03  0.12499969620E+03 0.  0.
          5    1    3    3  501    0 -0.42556772826E+01  0.30410979832E+02  0.13595140092E+03  0.13945541185E+03  0.47000000000E+01 0. -1.
         -5    1    3    3    0  501 -0.19202853802E+02 -0.10948826001E+03  0.21394787468E+03  0.24114769697E+03  0.47000000000E+01 0. -1.
          5    1    4    4  502    0 -0.38941896369E+02  0.39874310809E+02  0.39156682535E+03  0.39554152837E+03  0.47000000000E+01 0. -1.
         -5    1    4    4    0  502  0.62400427453E+02  0.39202969373E+02  0.16402071699E+03  0.17987654588E+03  0.47000000000E+01 0. -1.
<mgrwt>
<rscale>  0 0.30670853E+03</rscale>
<asrwt>0</asrwt>
<pdfrwt beam="1">  1       21 0.14319290E+00 0.30670853E+03</pdfrwt>
<pdfrwt beam="2">  1       21 0.38872596E-02 0.30670853E+03</pdfrwt>
<totfact> 0.13298985E+05</totfact>
</mgrwt>
</event>
<event>
 8    1  0.9974463E-006  0.3879964E+03  0.7546771E-02  0.1048017E+00
         21   -1    0    0  504  503  0.00000000000E+00  0.00000000000E+00  0.18497751453E+03  0.18497751453E+03  0.00000000000E+00 0. -1.
         21   -1    0    0  503  504 -0.00000000000E+00 -0.00000000000E+00 -0.20345874263E+03  0.20345874263E+03  0.00000000000E+00 0. -1.
         25    2    1    2    0    0 -0.89762162186E+02  0.10189242767E+03  0.50581158589E+02  0.19136770713E+03  0.12499533252E+03 0.  0.
         25    2    1    2    0    0  0.89762162186E+02 -0.10189242767E+03 -0.69062386694E+02  0.19706855002E+03  0.12500835002E+03 0.  0.
          5    1    3    3  501    0  0.24071432342E+02  0.57020857119E+02  0.15094987344E+02  0.63880831589E+02  0.47000000000E+01 0. -1.
         -5    1    3    3    0  501 -0.11383359453E+03  0.44871570552E+02  0.35486171244E+02  0.12748687555E+03  0.47000000000E+01 0. -1.
          5    1    4    4  502    0  0.55604195750E+02 -0.54471457594E+02 -0.10310291750E+03  0.12927206920E+03  0.47000000000E+01 0. -1.
         -5    1    4    4    0  502  0.34157966436E+02 -0.47420970076E+02  0.34040530811E+02  0.67796480822E+02  0.47000000000E+01 0. -1.
<mgrwt>
<rscale>  0 0.38799635E+03</rscale>
<asrwt>0</asrwt>
<pdfrwt beam="1">  1       21 0.28458079E-01 0.38799635E+03</pdfrwt>
<pdfrwt beam="2">  1       21 0.31301345E-01 0.38799635E+03</pdfrwt>
<totfact> 0.10955834E+05</totfact>
</mgrwt>
</event>
<event>
 8    1  0.9974463E-006  0.2913105E+03  0.7546771E-02  0.1089667E+00
         21   -1    0    0  504  503  0.00000000000E+00  0.00000000000E+00  0.19763332740E+03  0.19763332740E+03  0.00000000000E+00 0. -1.
         21   -1    0    0  503  504 -0.00000000000E+00 -0.00000000000E+00 -0.10734755839E+03  0.10734755839E+03  0.00000000000E+00 0. -1.
         25    2    1    2    0    0  0.28110505142E+02  0.30973005589E+02  0.11001779314E+03  0.17169531917E+03  0.12500336093E+03 0.  0.
         25    2    1    2    0    0 -0.28110505142E+02 -0.30973005589E+02 -0.19732024138E+02  0.13328556662E+03  0.12500464758E+03 0.  0.
          5    1    3    3  501    0  0.15866553177E+02  0.47784928468E+02  0.13182775998E+03  0.14119417552E+03  0.47000000000E+01 0.  1.
         -5    1    3    3    0  501  0.12243951965E+02 -0.16811922880E+02 -0.21809966842E+02  0.30501143655E+02  0.47000000000E+01 0.  1.
          5    1    4    4  502    0  0.13060420135E+02 -0.16515977583E+02 -0.66045921282E+02  0.69480254804E+02  0.47000000000E+01 0. -1.
         -5    1    4    4    0  502 -0.41170925277E+02 -0.14457028006E+02  0.46313897144E+02  0.63805311813E+02  0.47000000000E+01 0. -1.
<mgrwt>
<rscale>  0 0.29131052E+03</rscale>
<asrwt>0</asrwt>
<pdfrwt beam="1">  1       21 0.30405127E-01 0.29131052E+03</pdfrwt>
<pdfrwt beam="2">  1       21 0.16515009E-01 0.29131052E+03</pdfrwt>
<totfact> 0.33411968E+05</totfact>
</mgrwt>
</event>
<event>
 8    1  0.9974463E-006  0.5672073E+03  0.7546771E-02  0.9975878E-01
         21   -1    0    0  504  503  0.00000000000E+00  0.00000000000E+00  0.75930832982E+03  0.75930832982E+03  0.00000000000E+00 0. -1.
         21   -1    0    0  503  504 -0.00000000000E+00 -0.00000000000E+00 -0.10592671421E+03  0.10592671421E+03  0.00000000000E+00 0. -1.
         25    2    1    2    0    0  0.15147232423E+03 -0.37503714543E+02  0.63351507990E+03  0.66431650154E+03  0.12499865657E+03 0.  0.
         25    2    1    2    0    0 -0.15147232423E+03  0.37503714543E+02  0.19866535715E+02  0.20091854249E+03  0.12499275124E+03 0.  0.
          5    1    3    3  501    0  0.16255916918E+02  0.16450535241E+01  0.32189750974E+03  0.32234617697E+03  0.47000000000E+01 0.  1.
         -5    1    3    3    0  501  0.13521640731E+03 -0.39148768067E+02  0.31161757016E+03  0.34197032456E+03  0.47000000000E+01 0.  1.
          5    1    4    4  502    0 -0.12908556020E+03 -0.26182838584E+02  0.19603950551E+02  0.13324799348E+03  0.47000000000E+01 0.  1.
         -5    1    4    4    0  502 -0.22386764029E+02  0.63686553127E+02  0.26258516459E+00  0.67670549013E+02  0.47000000000E+01 0.  1.
<mgrwt>
<rscale>  0 0.56720732E+03</rscale>
<asrwt>0</asrwt>
<pdfrwt beam="1">  1       21 0.11681666E+00 0.56720732E+03</pdfrwt>
<pdfrwt beam="2">  1       21 0.16296418E-01 0.56720732E+03</pdfrwt>
<totfact> 0.16567683E+04</totfact>
</mgrwt>
</event>
<event>
 8    1  0.9974463E-006  0.2693776E+03  0.7546771E-02  0.1101636E+00
         21   -1    0    0  504  503  0.00000000000E+00  0.00000000000E+00  0.17122725044E+02  0.17122725044E+02  0.00000000000E+00 0. -1.
         21   -1    0    0  503  504 -0.00000000000E+00 -0.00000000000E+00 -0.10594735256E+04  0.10594735256E+04  0.00000000000E+00 0. -1.
         25    2    1    2    0    0  0.32270038051E+02  0.10574357209E+02 -0.66841947617E+03  0.68086685095E+03  0.12506758261E+03 0.  0.
         25    2    1    2    0    0 -0.32270038051E+02 -0.10574357209E+02 -0.37393132438E+03  0.39572939968E+03  0.12499580007E+03 0.  0.
          5    1    3    3  501    0  0.25906064002E+02 -0.20548608776E+02 -0.42166181350E+02  0.53790764303E+02  0.47000000000E+01 0.  1.
         -5    1    3    3    0  501  0.63639740490E+01  0.31122965985E+02 -0.62625329482E+03  0.62707608665E+03  0.47000000000E+01 0.  1.
          5    1    4    4  502    0  0.42673097686E+02  0.18781083368E+01 -0.67750659862E+02  0.80229436423E+02  0.47000000000E+01 0. -1.
         -5    1    4    4    0  502 -0.74943135737E+02 -0.12452465546E+02 -0.30618066452E+03  0.31549996326E+03  0.47000000000E+01 0. -1.
<mgrwt>
<rscale>  0 0.26937761E+03</rscale>
<asrwt>0</asrwt>
<pdfrwt beam="1">  1       21 0.26342647E-02 0.26937761E+03</pdfrwt>
<pdfrwt beam="2">  1       21 0.16299597E+00 0.26937761E+03</pdfrwt>
<totfact> 0.18209988E+05</totfact>
</mgrwt>
</event>
<event>
 8    1  0.9974463E-006  0.3289417E+03  0.7546771E-02  0.1071606E+00
         21   -1    0    0  504  503  0.00000000000E+00  0.00000000000E+00  0.28663554368E+03  0.28663554368E+03  0.00000000000E+00 0.  1.
         21   -1    0    0  503  504 -0.00000000000E+00 -0.00000000000E+00 -0.94373001952E+02  0.94373001952E+02  0.00000000000E+00 0.  1.
         25    2    1    2    0    0 -0.10051973335E+02  0.70763944463E+02  0.18820316247E+03  0.23696785145E+03  0.12499901701E+03 0.  0.
         25    2    1    2    0    0  0.10051973335E+02 -0.70763944463E+02  0.40593792620E+01  0.14404069419E+03  0.12499065972E+03 0.  0.
          5    1    3    3  501    0 -0.47283843562E+02  0.87071502082E+02  0.10617755545E+03  0.14530303376E+03  0.47000000000E+01 0.  1.
         -5    1    3    3    0  501  0.37231870228E+02 -0.16307557620E+02  0.82025607015E+02  0.91664817691E+02  0.47000000000E+01 0.  1.
          5    1    4    4  502    0 -0.38833593646E+02 -0.15580383694E+02  0.43296757540E+02  0.60394499460E+02  0.47000000000E+01 0. -1.
         -5    1    4    4    0  502  0.48885566981E+02 -0.55183560769E+02 -0.39237378278E+02  0.83646194727E+02  0.47000000000E+01 0. -1.
<mgrwt>
<rscale>  0 0.32894168E+03</rscale>
<asrwt>0</asrwt>
<pdfrwt beam="1">  1       21 0.44097775E-01 0.32894168E+03</pdfrwt>
<pdfrwt beam="2">  1       21 0.14518924E-01 0.32894168E+03</pdfrwt>
<totfact> 0.19846874E+05</totfact>
</mgrwt>
</event>
<event>
 8    1  0.9974463E-006  0.2755901E+03  0.7546771E-02  0.1098122E+00
         21   -1    0    0  504  503  0.00000000000E+00  0.00000000000E+00  0.13885008589E+03  0.13885008589E+03  0.00000000000E+00 0.  1.
         21   -1    0    0  503  504 -0.00000000000E+00 -0.00000000000E+00 -0.13674805149E+03  0.13674805149E+03  0.00000000000E+00 0.  1.
         25    2    1    2    0    0  0.29706040307E+02 -0.49148431023E+02  0.91935912600E+01  0.13785351767E+03  0.12498421145E+03 0.  0.
         25    2    1    2    0    0 -0.29706040307E+02  0.49148431023E+02 -0.70915568578E+01  0.13774461971E+03  0.12500109190E+03 0.  0.
          5    1    3    3  501    0  0.56108574826E+02 -0.63638110232E+02 -0.28275133806E+02  0.89551964996E+02  0.47000000000E+01 0. -1.
         -5    1    3    3    0  501 -0.26402534519E+02  0.14489679209E+02  0.37468725066E+02  0.48301552674E+02  0.47000000000E+01 0. -1.
          5    1    4    4  502    0 -0.47871922792E+02  0.77531075846E+02 -0.30772610924E+02  0.96290354120E+02  0.47000000000E+01 0.  1.
         -5    1    4    4    0  502  0.18165882484E+02 -0.28382644822E+02  0.23681054067E+02  0.41454265586E+02  0.47000000000E+01 0.  1.
<mgrwt>
<rscale>  0 0.27559012E+03</rscale>
<asrwt>0</asrwt>
<pdfrwt beam="1">  1       21 0.21361552E-01 0.27559012E+03</pdfrwt>
<pdfrwt beam="2">  1       21 0.21038162E-01 0.27559012E+03</pdfrwt>
<totfact> 0.42119174E+05</totfact>
</mgrwt>
</event>
<event>
 8    1  0.9974463E-006  0.2627454E+03  0.7546771E-02  0.1105505E+00
         21   -1    0    0  504  503  0.00000000000E+00  0.00000000000E+00  0.97750642776E+02  0.97750642776E+02  0.00000000000E+00 0.  1.
         21   -1    0    0  503  504 -0.00000000000E+00 -0.00000000000E+00 -0.17655931809E+03  0.17655931809E+03  0.00000000000E+00 0.  1.
         25    2    1    2    0    0  0.21812252958E+02  0.90579630824E+01 -0.73644099188E+02  0.14699129618E+03  0.12500066694E+03 0.  0.
         25    2    1    2    0    0 -0.21812252958E+02 -0.90579630824E+01 -0.51645761256E+01  0.12731866468E+03  0.12500219380E+03 0.  0.
          5    1    3    3  501    0  0.22239772829E+02  0.18831045677E+02  0.30405696672E+02  0.42377024045E+02  0.47000000000E+01 0. -1.
         -5    1    3    3    0  501 -0.42751987085E+00 -0.97730825951E+01 -0.10404979586E+03  0.10461427214E+03  0.47000000000E+01 0. -1.
          5    1    4    4  502    0 -0.15791165344E+02 -0.22556485288E+02  0.56878019504E+02  0.63366829131E+02  0.47000000000E+01 0. -1.
         -5    1    4    4    0  502 -0.60210876143E+01  0.13498522206E+02 -0.62042595630E+02  0.63951835550E+02  0.47000000000E+01 0. -1.
<mgrwt>
<rscale>  0 0.26274540E+03</rscale>
<asrwt>0</asrwt>
<pdfrwt beam="1">  1       21 0.15038561E-01 0.26274540E+03</pdfrwt>
<pdfrwt beam="2">  1       21 0.27162971E-01 0.26274540E+03</pdfrwt>
<totfact> 0.49765441E+05</totfact>
</mgrwt>
</event>
<event>
 8    1  0.9974463E-006  0.2563832E+03  0.7546771E-02  0.1109336E+00
         21   -1    0    0  504  503  0.00000000000E+00  0.00000000000E+00  0.25213843013E+02  0.25213843013E+02  0.00000000000E+00 0. -1.
         21   -1    0    0  503  504 -0.00000000000E+00 -0.00000000000E+00 -0.65174840758E+03  0.65174840758E+03  0.00000000000E+00 0. -1.
         25    2    1    2    0    0  0.77734354108E+01 -0.20645103747E+02 -0.26566584162E+03  0.29443054798E+03  0.12499744627E+03 0.  0.
         25    2    1    2    0    0 -0.77734354108E+01  0.20645103747E+02 -0.36086872295E+03  0.38253170261E+03  0.12497048329E+03 0.  0.
          5    1    3    3  501    0 -0.46128788289E+02 -0.46746318281E+02 -0.15737094543E+03  0.17058953030E+03  0.47000000000E+01 0.  1.
         -5    1    3    3    0  501  0.53902223700E+02  0.26101214534E+02 -0.10829489619E+03  0.12384101769E+03  0.47000000000E+01 0.  1.
          5    1    4    4  502    0 -0.65556314515E+02  0.41629073849E+01 -0.16723961111E+03  0.17973908227E+03  0.47000000000E+01 0. -1.
         -5    1    4    4    0  502  0.57782879104E+02  0.16482196362E+02 -0.19362911184E+03  0.20279262034E+03  0.47000000000E+01 0. -1.
<mgrwt>
<rscale>  0 0.25638317E+03</rscale>
<asrwt>0</asrwt>
<pdfrwt beam="1">  1       21 0.38790537E-02 0.25638317E+03</pdfrwt>
<pdfrwt beam="2">  1       21 0.10026896E+00 0.25638317E+03</pdfrwt>
<totfact> 0.33067441E+05</totfact>
</mgrwt>
</event>
<event>
 8    1  0.9974463E-006  0.2978142E+03  0.7546771E-02  0.1086338E+00
         21   -1    0    0  504  503  0.00000000000E+00  0.00000000000E+00  0.22693738264E+02  0.22693738264E+02  0.00000000000E+00 0. -1.
         21   -1    0    0  503  504 -0.00000000000E+00 -0.00000000000E+00 -0.97706793487E+03  0.97706793487E+03  0.00000000000E+00 0. -1.
         25    2    1    2    0    0  0.76309955652E+02 -0.13440647906E+02 -0.55553670226E+03  0.57467406102E+03  0.12500155401E+03 0.  0.
         25    2    1    2    0    0 -0.76309955652E+02  0.13440647906E+02 -0.39883749434E+03  0.42508761211E+03  0.12499708288E+03 0.  0.
          5    1    3    3  501    0  0.87815309925E+01  0.50078708787E+02 -0.25758936411E+03  0.26260114787E+03  0.47000000000E+01 0. -1.
         -5    1    3    3    0  501  0.67528424659E+02 -0.63519356693E+02 -0.29794733815E+03  0.31207291315E+03  0.47000000000E+01 0. -1.
          5    1    4    4  502    0 -0.20063642569E+00  0.26323870720E+02 -0.98661440767E+01  0.28502933597E+02  0.47000000000E+01 0.  1.
         -5    1    4    4    0  502 -0.76109319226E+02 -0.12883222814E+02 -0.38897135027E+03  0.39658467851E+03  0.47000000000E+01 0.  1.
<mgrwt>
<rscale>  0 0.29781420E+03</rscale>
<asrwt>0</asrwt>
<pdfrwt beam="1">  1       21 0.34913452E-02 0.29781420E+03</pdfrwt>
<pdfrwt beam="2">  1       21 0.15031811E+00 0.29781420E+03</pdfrwt>
<totfact> 0.14045588E+05</totfact>
</mgrwt>
</event>
<event>
 8    1  0.9974463E-006  0.5137804E+03  0.7546771E-02  0.1010243E+00
         21   -1    0    0  504  503  0.00000000000E+00  0.00000000000E+00  0.10641369612E+03  0.10641369612E+03  0.00000000000E+00 0. -1.
         21   -1    0    0  503  504 -0.00000000000E+00 -0.00000000000E+00 -0.62015104973E+03  0.62015104973E+03  0.00000000000E+00 0. -1.
         25    2    1    2    0    0  0.21424523660E+03 -0.66224113744E+02 -0.26932326412E+03  0.37208463755E+03  0.12500120902E+03 0.  0.
         25    2    1    2    0    0 -0.21424523660E+03  0.66224113744E+02 -0.24441408949E+03  0.35448010830E+03  0.12502497910E+03 0.  0.
          5    1    3    3  501    0  0.18174000952E+02  0.58563472499E+00 -0.10765288109E+03  0.10927886385E+03  0.47000000000E+01 0.  1.
         -5    1    3    3    0  501  0.19607123564E+03 -0.66809748469E+02 -0.16167038304E+03  0.26280577370E+03  0.47000000000E+01 0.  1.
          5    1    4    4  502    0 -0.99587162353E+02  0.83722818195E+02 -0.17868266522E+03  0.22108075005E+03  0.47000000000E+01 0. -1.
         -5    1    4    4    0  502 -0.11465807424E+03 -0.17498704451E+02 -0.65731424265E+02  0.13339935825E+03  0.47000000000E+01 0. -1.
<mgrwt>
<rscale>  0 0.51378036E+03</rscale>
<asrwt>0</asrwt>
<pdfrwt beam="1">  1       21 0.16371338E-01 0.51378036E+03</pdfrwt>
<pdfrwt beam="2">  1       21 0.95407854E-01 0.51378036E+03</pdfrwt>
<totfact> 0.27412268E+04</totfact>
</mgrwt>
</event>
<event>
 8    1  0.9974463E-006  0.2906382E+03  0.7546771E-02  0.1090016E+00
         21   -1    0    0  504  503  0.00000000000E+00  0.00000000000E+00  0.22663363386E+03  0.22663363386E+03  0.00000000000E+00 0. -1.
         21   -1    0    0  503  504 -0.00000000000E+00 -0.00000000000E+00 -0.93179616472E+02  0.93179616472E+02  0.00000000000E+00 0. -1.
         25    2    1    2    0    0 -0.13233601679E+02 -0.13710512017E+02 -0.12059778474E+02  0.12704659104E+03  0.12502916334E+03 0.  0.
         25    2    1    2    0    0  0.13233601679E+02  0.13710512017E+02  0.14551379586E+03  0.19276665929E+03  0.12498645445E+03 0.  0.
          5    1    3    3  501    0 -0.62473803150E+02 -0.32293024162E+02 -0.20801898525E+02  0.73488941153E+02  0.47000000000E+01 0.  1.
         -5    1    3    3    0  501  0.49240201471E+02  0.18582512144E+02  0.87421200508E+01  0.53557649888E+02  0.47000000000E+01 0.  1.
          5    1    4    4  502    0 -0.11484276922E+02  0.51015245627E+02  0.14835598593E+02  0.54558490525E+02  0.47000000000E+01 0. -1.
         -5    1    4    4    0  502  0.24717878601E+02 -0.37304733610E+02  0.13067819727E+03  0.13820816876E+03  0.47000000000E+01 0. -1.
<mgrwt>
<rscale>  0 0.29063816E+03</rscale>
<asrwt>0</asrwt>
<pdfrwt beam="1">  1       21 0.34866713E-01 0.29063816E+03</pdfrwt>
<pdfrwt beam="2">  1       21 0.14335326E-01 0.29063816E+03</pdfrwt>
<totfact> 0.33038945E+05</totfact>
</mgrwt>
</event>
<event>
 8    1  0.9974463E-006  0.2637228E+03  0.7546771E-02  0.1104927E+00
         21   -1    0    0  504  503  0.00000000000E+00  0.00000000000E+00  0.95079951310E+02  0.95079951310E+02  0.00000000000E+00 0. -1.
         21   -1    0    0  503  504 -0.00000000000E+00 -0.00000000000E+00 -0.18287169676E+03  0.18287169676E+03  0.00000000000E+00 0. -1.
         25    2    1    2    0    0 -0.31383515587E+01 -0.34054400190E+02 -0.69561050151E+02  0.14708331527E+03  0.12500084203E+03 0.  0.
         25    2    1    2    0    0  0.31383515587E+01  0.34054400190E+02 -0.18230695296E+02  0.13086833280E+03  0.12499844342E+03 0.  0.
          5    1    3    3  501    0 -0.11093661286E+02 -0.79480234938E+02 -0.28912380962E+02  0.85429461192E+02  0.47000000000E+01 0.  1.
         -5    1    3    3    0  501  0.79553097272E+01  0.45425834749E+02 -0.40648669188E+02  0.61653854074E+02  0.47000000000E+01 0.  1.
          5    1    4    4  502    0  0.24695757528E+02  0.32959707008E+02  0.46604959684E+02  0.62372549997E+02  0.47000000000E+01 0. -1.
         -5    1    4    4    0  502 -0.21557405969E+02  0.10946931818E+01 -0.64835654980E+02  0.68495782805E+02  0.47000000000E+01 0. -1.
<mgrwt>
<rscale>  0 0.26372282E+03</rscale>
<asrwt>0</asrwt>
<pdfrwt beam="1">  1       21 0.14627685E-01 0.26372282E+03</pdfrwt>
<pdfrwt beam="2">  1       21 0.28134107E-01 0.26372282E+03</pdfrwt>
<totfact> 0.48889905E+05</totfact>
</mgrwt>
</event>
<event>
 8    1  0.9974463E-006  0.2815787E+03  0.7546771E-02  0.1094830E+00
         21   -1    0    0  504  503  0.00000000000E+00  0.00000000000E+00  0.16887959971E+03  0.16887959971E+03  0.00000000000E+00 0.  1.
         21   -1    0    0  503  504 -0.00000000000E+00 -0.00000000000E+00 -0.11737140237E+03  0.11737140237E+03  0.00000000000E+00 0.  1.
         25    2    1    2    0    0 -0.61432485294E+02  0.19423264361E+02  0.18950422104E+02  0.14190658587E+03  0.12500858837E+03 0.  0.
         25    2    1    2    0    0  0.61432485294E+02 -0.19423264361E+02  0.32557775231E+02  0.14434441621E+03  0.12499635321E+03 0.  0.
          5    1    3    3  501    0 -0.97998359755E+02  0.25009860942E+02  0.24598164383E+02  0.10419372030E+03  0.47000000000E+01 0. -1.
         -5    1    3    3    0  501  0.36565874461E+02 -0.55865965813E+01 -0.56477422789E+01  0.37712865568E+02  0.47000000000E+01 0. -1.
          5    1    4    4  502    0 -0.23711189475E+02 -0.44097747512E+02  0.15464923254E+01  0.50312160363E+02  0.47000000000E+01 0. -1.
         -5    1    4    4    0  502  0.85143674769E+02  0.24674483151E+02  0.31011282905E+02  0.94032255846E+02  0.47000000000E+01 0. -1.
<mgrwt>
<rscale>  0 0.28157866E+03</rscale>
<asrwt>0</asrwt>
<pdfrwt beam="1">  1       21 0.25981477E-01 0.28157866E+03</pdfrwt>
<pdfrwt beam="2">  1       21 0.18057139E-01 0.28157866E+03</pdfrwt>
<totfact> 0.38543159E+05</totfact>
</mgrwt>
</event>
<event>
 8    1  0.9974463E-006  0.3466077E+03  0.7546771E-02  0.1064016E+00
         21   -1    0    0  504  503  0.00000000000E+00  0.00000000000E+00  0.21978720207E+02  0.21978720207E+02  0.00000000000E+00 0.  1.
         21   -1    0    0  503  504 -0.00000000000E+00 -0.00000000000E+00 -0.13665139146E+04  0.13665139146E+04  0.00000000000E+00 0.  1.
         25    2    1    2    0    0 -0.82641389254E+02  0.43748326058E+02 -0.97377553944E+03  0.98620811919E+03  0.12499655154E+03 0.  0.
         25    2    1    2    0    0  0.82641389254E+02 -0.43748326058E+02 -0.37075965498E+03  0.40228451564E+03  0.12500637789E+03 0.  0.
          5    1    3    3  501    0 -0.69233511780E+02 -0.17868018160E+02 -0.26177496738E+03  0.27140517455E+03  0.47000000000E+01 0. -1.
         -5    1    3    3    0  501 -0.13407877474E+02  0.61616344219E+02 -0.71200057206E+03  0.71480294464E+03  0.47000000000E+01 0. -1.
          5    1    4    4  502    0  0.48942377624E+02 -0.87517439156E+02 -0.25033978880E+03  0.26971606986E+03  0.47000000000E+01 0.  1.
         -5    1    4    4    0  502  0.33699011630E+02  0.43769113097E+02 -0.12041986618E+03  0.13256844578E+03  0.47000000000E+01 0.  1.
<mgrwt>
<rscale>  0 0.34660771E+03</rscale>
<asrwt>0</asrwt>
<pdfrwt beam="1">  1       21 0.33813415E-02 0.34660771E+03</pdfrwt>
<pdfrwt beam="2">  1       21 0.21023292E+00 0.34660771E+03</pdfrwt>
<totfact> 0.55514717E+04</totfact>
</mgrwt>
</event>
<event>
 8    1  0.9974463E-006  0.2649011E+03  0.7546771E-02  0.1104234E+00
         21   -1    0    0  504  503  0.00000000000E+00  0.00000000000E+00  0.53735986169E+02  0.53735986169E+02  0.00000000000E+00 0. -1.
         21   -1    0    0  503  504 -0.00000000000E+00 -0.00000000000E+00 -0.32646914955E+03  0.32646914955E+03  0.00000000000E+00 0. -1.
         25    2    1    2    0    0 -0.27070878117E+02  0.54642681973E+01 -0.87562345301E+02  0.15509503791E+03  0.12499846319E+03 0.  0.
         25    2    1    2    0    0  0.27070878117E+02 -0.54642681973E+01 -0.18517081808E+03  0.22511009781E+03  0.12499453427E+03 0.  0.
          5    1    3    3  501    0  0.46995018007E+02 -0.14084891504E+02 -0.47809678909E+02  0.68664192150E+02  0.47000000000E+01 0.  1.
         -5    1    3    3    0  501 -0.74065896124E+02  0.19549159702E+02 -0.39752666392E+02  0.86430845762E+02  0.47000000000E+01 0.  1.
          5    1    4    4  502    0  0.50964782715E+02 -0.41755506243E+02 -0.16347835129E+03  0.17631844123E+03  0.47000000000E+01 0. -1.
         -5    1    4    4    0  502 -0.23893904598E+02  0.36291238046E+02 -0.21692466792E+02  0.48791656575E+02  0.47000000000E+01 0. -1.
<mgrwt>
<rscale>  0 0.26490105E+03</rscale>
<asrwt>0</asrwt>
<pdfrwt beam="1">  1       21 0.82670749E-02 0.26490105E+03</pdfrwt>
<pdfrwt beam="2">  1       21 0.50226022E-01 0.26490105E+03</pdfrwt>
<totfact> 0.42115039E+05</totfact>
</mgrwt>
</event>
<event>
 8    1  0.9974463E-006  0.3093328E+03  0.7546771E-02  0.1080666E+00
         21   -1    0    0  504  503  0.00000000000E+00  0.00000000000E+00  0.35392815134E+02  0.35392815134E+02  0.00000000000E+00 0.  1.
         21   -1    0    0  503  504 -0.00000000000E+00 -0.00000000000E+00 -0.67589123910E+03  0.67589123910E+03  0.00000000000E+00 0.  1.
         25    2    1    2    0    0  0.59210916295E+02 -0.12851366552E+02 -0.16387390128E+03  0.21482957652E+03  0.12500400472E+03 0.  0.
         25    2    1    2    0    0 -0.59210916295E+02  0.12851366552E+02 -0.47662452269E+03  0.49645447772E+03  0.12500009034E+03 0.  0.
          5    1    3    3  501    0  0.42022464265E+02 -0.52706246471E+02 -0.15661887595E+03  0.17057373251E+03  0.47000000000E+01 0.  1.
         -5    1    3    3    0  501  0.17188452030E+02  0.39854879919E+02 -0.72550253345E+01  0.44255844011E+02  0.47000000000E+01 0.  1.
          5    1    4    4  502    0 -0.56606171912E+02 -0.17961357173E+02 -0.86220296724E+02  0.10479932546E+03  0.47000000000E+01 0. -1.
         -5    1    4    4    0  502 -0.26047443827E+01  0.30812723725E+02 -0.39040422596E+03  0.39165515225E+03  0.47000000000E+01 0. -1.
<mgrwt>
<rscale>  0 0.30933279E+03</rscale>
<asrwt>0</asrwt>
<pdfrwt beam="1">  1       21 0.54450484E-02 0.30933279E+03</pdfrwt>
<pdfrwt beam="2">  1       21 0.10398327E+00 0.30933279E+03</pdfrwt>
<totfact> 0.16779596E+05</totfact>
</mgrwt>
</event>
<event>
 8    1  0.9974463E-006  0.2795858E+03  0.7546771E-02  0.1095915E+00
         21   -1    0    0  504  503  0.00000000000E+00  0.00000000000E+00  0.14403218697E+03  0.14403218697E+03  0.00000000000E+00 0. -1.
         21   -1    0    0  503  504 -0.00000000000E+00 -0.00000000000E+00 -0.13567843411E+03  0.13567843411E+03  0.00000000000E+00 0. -1.
         25    2    1    2    0    0 -0.41858937531E+01 -0.43523002448E+02 -0.40622113820E+02  0.13851976856E+03  0.12500318676E+03 0.  0.
         25    2    1    2    0    0  0.41858937531E+01  0.43523002448E+02  0.48975866686E+02  0.14119085252E+03  0.12499779146E+03 0.  0.
          5    1    3    3  501    0  0.37271358388E+02  0.16890210454E+02 -0.49689934002E+02  0.64541559529E+02  0.47000000000E+01 0.  1.
         -5    1    3    3    0  501 -0.41457252141E+02 -0.60413212902E+02  0.90678201819E+01  0.73978209028E+02  0.47000000000E+01 0.  1.
          5    1    4    4  502    0 -0.12665567063E+02  0.83016122640E+02  0.50253289779E+02  0.97977427711E+02  0.47000000000E+01 0. -1.
         -5    1    4    4    0  502  0.16851460817E+02 -0.39493120192E+02 -0.12774230928E+01  0.43213424812E+02  0.47000000000E+01 0. -1.
<mgrwt>
<rscale>  0 0.27958585E+03</rscale>
<asrwt>0</asrwt>
<pdfrwt beam="1">  1       21 0.22158798E-01 0.27958585E+03</pdfrwt>
<pdfrwt beam="2">  1       21 0.20873605E-01 0.27958585E+03</pdfrwt>
<totfact> 0.39847788E+05</totfact>
</mgrwt>
</event>
<event>
 8    1  0.9974463E-006  0.3662576E+03  0.7546771E-02  0.1056133E+00
         21   -1    0    0  504  503  0.00000000000E+00  0.00000000000E+00  0.89971633784E+03  0.89971633784E+03  0.00000000000E+00 0. -1.
         21   -1    0    0  503  504 -0.00000000000E+00 -0.00000000000E+00 -0.37274142510E+02  0.37274142510E+02  0.00000000000E+00 0. -1.
         25    2    1    2    0    0  0.41656641022E+02  0.52433983812E+02  0.72765702177E+03  0.74134648343E+03  0.12500107503E+03 0.  0.
         25    2    1    2    0    0 -0.41656641022E+02 -0.52433983812E+02  0.13478517356E+03  0.19564399692E+03  0.12499972848E+03 0.  0.
          5    1    3    3  501    0  0.70940466640E+02  0.17325580419E+02  0.61981355997E+03  0.62411830983E+03  0.47000000000E+01 0.  1.
         -5    1    3    3    0  501 -0.29283825618E+02  0.35108403393E+02  0.10784346180E+03  0.11722817360E+03  0.47000000000E+01 0.  1.
          5    1    4    4  502    0  0.42672704662E+02 -0.17329449872E+02  0.68532811829E+02  0.82704932460E+02  0.47000000000E+01 0.  1.
         -5    1    4    4    0  502 -0.84329345684E+02 -0.35104533940E+02  0.66252361731E+02  0.11293906446E+03  0.47000000000E+01 0.  1.
<mgrwt>
<rscale>  0 0.36625759E+03</rscale>
<asrwt>0</asrwt>
<pdfrwt beam="1">  1       21 0.13841788E+00 0.36625759E+03</pdfrwt>
<pdfrwt beam="2">  1       21 0.57344842E-02 0.36625759E+03</pdfrwt>
<totfact> 0.73510352E+04</totfact>
</mgrwt>
</event>
<event>
 8    1  0.9974463E-006  0.3105400E+03  0.7546771E-02  0.1080087E+00
         21   -1    0    0  504  503  0.00000000000E+00  0.00000000000E+00  0.84782757377E+02  0.84782757377E+02  0.00000000000E+00 0.  1.
         21   -1    0    0  503  504 -0.00000000000E+00 -0.00000000000E+00 -0.28435943435E+03  0.28435943435E+03  0.00000000000E+00 0.  1.
         25    2    1    2    0    0 -0.47739362948E+02 -0.60231820038E+02 -0.16010774364E+03  0.21718971050E+03  0.12501984584E+03 0.  0.
         25    2    1    2    0    0  0.47739362948E+02  0.60231820038E+02 -0.39468933332E+02  0.15195248122E+03  0.12499936372E+03 0.  0.
          5    1    3    3  501    0 -0.35698779790E+02  0.22492341315E+02 -0.74854600552E+01  0.43109516450E+02  0.47000000000E+01 0.  1.
         -5    1    3    3    0  501 -0.12040583158E+02 -0.82724161354E+02 -0.15262228358E+03  0.17408019405E+03  0.47000000000E+01 0.  1.
          5    1    4    4  502    0 -0.35194384625E+02 -0.95492406019E+00 -0.33156625219E+02  0.48590208736E+02  0.47000000000E+01 0. -1.
         -5    1    4    4    0  502  0.82933747573E+02  0.61186744099E+02 -0.63123081128E+01  0.10336227249E+03  0.47000000000E+01 0. -1.
<mgrwt>
<rscale>  0 0.31054003E+03</rscale>
<asrwt>0</asrwt>
<pdfrwt beam="1">  1       21 0.13043501E-01 0.31054003E+03</pdfrwt>
<pdfrwt beam="2">  1       21 0.43747605E-01 0.31054003E+03</pdfrwt>
<totfact> 0.24639867E+05</totfact>
</mgrwt>
</event>
<event>
 8    1  0.9974463E-006  0.3820723E+03  0.7546771E-02  0.1050170E+00
         21   -1    0    0  504  503  0.00000000000E+00  0.00000000000E+00  0.13100472989E+03  0.13100472989E+03  0.00000000000E+00 0. -1.
         21   -1    0    0  503  504 -0.00000000000E+00 -0.00000000000E+00 -0.27857624077E+03  0.27857624077E+03  0.00000000000E+00 0. -1.
         25    2    1    2    0    0  0.11081833163E+03  0.29617170026E+01 -0.17308688434E+03  0.24056745800E+03  0.12499663165E+03 0.  0.
         25    2    1    2    0    0 -0.11081833163E+03 -0.29617170026E+01  0.25515373463E+02  0.16901351266E+03  0.12500023514E+03 0.  0.
          5    1    3    3  501    0  0.15216635204E+02  0.17672079482E+02  0.15622425626E+02  0.28460473689E+02  0.47000000000E+01 0. -1.
         -5    1    3    3    0  501  0.95601696422E+02 -0.14710362480E+02 -0.18870930997E+03  0.21210698431E+03  0.47000000000E+01 0. -1.
          5    1    4    4  502    0  0.18544360992E+02 -0.23105112113E+02  0.23309568049E+02  0.37989018058E+02  0.47000000000E+01 0. -1.
         -5    1    4    4    0  502 -0.12936269262E+03  0.20143395110E+02  0.22058054139E+01  0.13102449460E+03  0.47000000000E+01 0. -1.
<mgrwt>
<rscale>  0 0.38207227E+03</rscale>
<asrwt>0</asrwt>
<pdfrwt beam="1">  1       21 0.20154574E-01 0.38207227E+03</pdfrwt>
<pdfrwt beam="2">  1       21 0.42857883E-01 0.38207227E+03</pdfrwt>
<totfact> 0.11288238E+05</totfact>
</mgrwt>
</event>
<event>
 8    1  0.9974463E-006  0.3025108E+03  0.7546771E-02  0.1083992E+00
         21   -1    0    0  504  503  0.00000000000E+00  0.00000000000E+00  0.79203835308E+02  0.79203835308E+02  0.00000000000E+00 0.  1.
         21   -1    0    0  503  504 -0.00000000000E+00 -0.00000000000E+00 -0.28885208204E+03  0.28885208204E+03  0.00000000000E+00 0.  1.
         25    2    1    2    0    0  0.64064277608E+02 -0.32887637850E+02 -0.16015621456E+03  0.21554846821E+03  0.12500120278E+03 0.  0.
         25    2    1    2    0    0 -0.64064277608E+02  0.32887637850E+02 -0.49492032167E+02  0.15250744913E+03  0.12499292942E+03 0.  0.
          5    1    3    3  501    0  0.60062631392E+02  0.39099043693E+02 -0.74337462143E+02  0.10336538679E+03  0.47000000000E+01 0.  1.
         -5    1    3    3    0  501  0.40016462158E+01 -0.71986681542E+02 -0.85818752419E+02  0.11218308143E+03  0.47000000000E+01 0.  1.
          5    1    4    4  502    0  0.85818237963E+01 -0.34646053599E+02  0.92020911581E+01  0.37158649213E+02  0.47000000000E+01 0.  1.
         -5    1    4    4    0  502 -0.72646101404E+02  0.67533691449E+02 -0.58694123325E+02  0.11534879992E+03  0.47000000000E+01 0.  1.
<mgrwt>
<rscale>  0 0.30251078E+03</rscale>
<asrwt>0</asrwt>
<pdfrwt beam="1">  1       21 0.12185205E-01 0.30251078E+03</pdfrwt>
<pdfrwt beam="2">  1       21 0.44438782E-01 0.30251078E+03</pdfrwt>
<totfact> 0.27032377E+05</totfact>
</mgrwt>
</event>
<event>
 8    1  0.9974463E-006  0.2842569E+03  0.7546771E-02  0.1093386E+00
         21   -1    0    0  504  503  0.00000000000E+00  0.00000000000E+00  0.70453161449E+02  0.70453161449E+02  0.00000000000E+00 0.  1.
         21   -1    0    0  503  504 -0.00000000000E+00 -0.00000000000E+00 -0.28672229448E+03  0.28672229448E+03  0.00000000000E+00 0.  1.
         25    2    1    2    0    0  0.59835054050E+01  0.60489773947E+02 -0.14542969755E+03  0.20116923538E+03  0.12499779696E+03 0.  0.
         25    2    1    2    0    0 -0.59835054050E+01 -0.60489773947E+02 -0.70839435482E+02  0.15600622055E+03  0.12499960057E+03 0.  0.
          5    1    3    3  501    0 -0.13405752870E+02 -0.35148491102E+02 -0.62120264300E+02  0.72774637570E+02  0.47000000000E+01 0. -1.
         -5    1    3    3    0  501  0.19389258275E+02  0.95638265049E+02 -0.83309433249E+02  0.12839459781E+03  0.47000000000E+01 0. -1.
          5    1    4    4  502    0 -0.15169659260E+02 -0.97925034336E+02 -0.42456451801E+02  0.10790769765E+03  0.47000000000E+01 0. -1.
         -5    1    4    4    0  502  0.91861538551E+01  0.37435260389E+02 -0.28382983680E+02  0.48098522905E+02  0.47000000000E+01 0. -1.
<mgrwt>
<rscale>  0 0.28425687E+03</rscale>
<asrwt>0</asrwt>
<pdfrwt beam="1">  1       21 0.10838948E-01 0.28425687E+03</pdfrwt>
<pdfrwt beam="2">  1       21 0.44111122E-01 0.28425687E+03</pdfrwt>
<totfact> 0.34014441E+05</totfact>
</mgrwt>
</event>
<event>
 8    1  0.9974463E-006  0.3052668E+03  0.7546771E-02  0.1082637E+00
         21   -1    0    0  504  503  0.00000000000E+00  0.00000000000E+00  0.58194679190E+02  0.58194679190E+02  0.00000000000E+00 0. -1.
         21   -1    0    0  503  504 -0.00000000000E+00 -0.00000000000E+00 -0.40032785920E+03  0.40032785920E+03  0.00000000000E+00 0. -1.
         25    2    1    2    0    0  0.25698190762E+02 -0.58992648258E+02 -0.26033632628E+03  0.29587242590E+03  0.12499984027E+03 0.  0.
         25    2    1    2    0    0 -0.25698190762E+02  0.58992648258E+02 -0.81796853729E+02  0.16265011249E+03  0.12499521694E+03 0.  0.
          5    1    3    3  501    0  0.15390530244E+02  0.19540168796E+02 -0.17358816990E+01  0.25373015253E+02  0.47000000000E+01 0.  1.
         -5    1    3    3    0  501  0.10307660518E+02 -0.78532817055E+02 -0.25860044458E+03  0.27049941065E+03  0.47000000000E+01 0.  1.
          5    1    4    4  502    0 -0.38205213201E+02  0.54026841912E+01  0.22297001510E+02  0.44811534102E+02  0.47000000000E+01 0. -1.
         -5    1    4    4    0  502  0.12507022440E+02  0.53589964067E+02 -0.10409385524E+03  0.11783857839E+03  0.47000000000E+01 0. -1.
<mgrwt>
<rscale>  0 0.30526678E+03</rscale>
<asrwt>0</asrwt>
<pdfrwt beam="1">  1       21 0.89530274E-02 0.30526678E+03</pdfrwt>
<pdfrwt beam="2">  1       21 0.61588903E-01 0.30526678E+03</pdfrwt>
<totfact> 0.23450659E+05</totfact>
</mgrwt>
</event>
<event>
 8    1  0.9974463E-006  0.2778751E+03  0.7546771E-02  0.1096855E+00
         21   -1    0    0  504  503  0.00000000000E+00  0.00000000000E+00  0.22045535381E+02  0.22045535381E+02  0.00000000000E+00 0. -1.
         21   -1    0    0  503  504 -0.00000000000E+00 -0.00000000000E+00 -0.87562599044E+03  0.87562599044E+03  0.00000000000E+00 0. -1.
         25    2    1    2    0    0  0.14481722964E+02 -0.49160659420E+02 -0.32198313197E+03  0.34917670739E+03  0.12499897990E+03 0.  0.
         25    2    1    2    0    0 -0.14481722964E+02  0.49160659420E+02 -0.53159732308E+03  0.54849481842E+03  0.12499744475E+03 0.  0.
          5    1    3    3  501    0  0.29345957304E+02 -0.84511689674E+02 -0.16768702873E+03  0.19011691273E+03  0.47000000000E+01 0.  1.
         -5    1    3    3    0  501 -0.14864234340E+02  0.35351030254E+02 -0.15429610324E+03  0.15905979466E+03  0.47000000000E+01 0.  1.
          5    1    4    4  502    0 -0.41518575681E+02  0.12662946357E+02 -0.46891546315E+03  0.47094367382E+03  0.47000000000E+01 0. -1.
         -5    1    4    4    0  502  0.27036852717E+02  0.36497713063E+02 -0.62681859936E+02  0.77551144600E+02  0.47000000000E+01 0. -1.
<mgrwt>
<rscale>  0 0.27787511E+03</rscale>
<asrwt>0</asrwt>
<pdfrwt beam="1">  1       21 0.33916209E-02 0.27787511E+03</pdfrwt>
<pdfrwt beam="2">  1       21 0.13471169E+00 0.27787511E+03</pdfrwt>
<totfact> 0.19796274E+05</totfact>
</mgrwt>
</event>
<event>
 8    1  0.9974463E-006  0.1784668E+04  0.7546771E-02  0.8714496E-01
         21   -1    0    0  504  503  0.00000000000E+00  0.00000000000E+00  0.45007492370E+03  0.45007492370E+03  0.00000000000E+00 0. -1.
         21   -1    0    0  503  504 -0.00000000000E+00 -0.00000000000E+00 -0.17691717201E+04  0.17691717201E+04  0.00000000000E+00 0. -1.
         25    2    1    2    0    0  0.17554846199E+03  0.12385399590E+03 -0.17252537437E+04  0.17430672640E+04  0.12500372701E+03 0.  0.
         25    2    1    2    0    0 -0.17554846199E+03 -0.12385399590E+03  0.40615694737E+03  0.47617937977E+03  0.12500504396E+03 0.  0.
          5    1    3    3  501    0  0.12495216961E+03  0.14614703515E+03 -0.12802778613E+04  0.12946449292E+04  0.47000000000E+01 0. -1.
         -5    1    3    3    0  501  0.50596292380E+02 -0.22293039247E+02 -0.44497588246E+03  0.44842233483E+03  0.47000000000E+01 0. -1.
          5    1    4    4  502    0 -0.19192390898E+02 -0.73307990102E+02  0.19004012657E+03  0.20464542259E+03  0.47000000000E+01 0.  1.
         -5    1    4    4    0  502 -0.15635607109E+03 -0.50546005797E+02  0.21611682080E+03  0.27153395718E+03  0.47000000000E+01 0.  1.
<mgrwt>
<rscale>  0 0.17846678E+04</rscale>
<asrwt>0</asrwt>
<pdfrwt beam="1">  1       21 0.69242295E-01 0.17846678E+04</pdfrwt>
<pdfrwt beam="2">  1       21 0.27218027E+00 0.17846678E+04</pdfrwt>
<totfact> 0.50045111E+01</totfact>
</mgrwt>
</event>
<event>
 8    1  0.9974463E-006  0.3196730E+03  0.7546771E-02  0.1075800E+00
         21   -1    0    0  504  503  0.00000000000E+00  0.00000000000E+00  0.11628070209E+04  0.11628070209E+04  0.00000000000E+00 0.  1.
         21   -1    0    0  503  504 -0.00000000000E+00 -0.00000000000E+00 -0.21970719839E+02  0.21970719839E+02  0.00000000000E+00 0.  1.
         25    2    1    2    0    0 -0.22733262731E+02  0.86404527702E+02  0.73392009916E+03  0.74982269703E+03  0.12495127606E+03 0.  0.
         25    2    1    2    0    0  0.22733262731E+02 -0.86404527702E+02  0.40691620188E+03  0.43495504369E+03  0.12499020375E+03 0.  0.
          5    1    3    3  501    0 -0.55332340744E+02  0.36630375521E+02  0.16689270182E+03  0.17966278486E+03  0.47000000000E+01 0.  1.
         -5    1    3    3    0  501  0.32599078012E+02  0.49774152181E+02  0.56702739734E+03  0.57015991217E+03  0.47000000000E+01 0.  1.
          5    1    4    4  502    0 -0.40796491225E+02 -0.58137700563E+02  0.29205710914E+03  0.30060570674E+03  0.47000000000E+01 0. -1.
         -5    1    4    4    0  502  0.63529753956E+02 -0.28266827140E+02  0.11485909274E+03  0.13434933695E+03  0.47000000000E+01 0. -1.
<mgrwt>
<rscale>  0 0.31967300E+03</rscale>
<asrwt>0</asrwt>
<pdfrwt beam="1">  1       21 0.17889334E+00 0.31967300E+03</pdfrwt>
<pdfrwt beam="2">  1       21 0.33801117E-02 0.31967300E+03</pdfrwt>
<totfact> 0.90887481E+04</totfact>
</mgrwt>
</event>
<event>
 8    1  0.9974463E-006  0.5333194E+03  0.7546771E-02  0.1005430E+00
         21   -1    0    0  504  503  0.00000000000E+00  0.00000000000E+00  0.28566183031E+03  0.28566183031E+03  0.00000000000E+00 0. -1.
         21   -1    0    0  503  504 -0.00000000000E+00 -0.00000000000E+00 -0.24892162877E+03  0.24892162877E+03  0.00000000000E+00 0. -1.
         25    2    1    2    0    0 -0.58512153561E+02  0.21798551692E+03 -0.49164409365E+02  0.26264866411E+03  0.12500329560E+03 0.  0.
         25    2    1    2    0    0  0.58512153561E+02 -0.21798551692E+03  0.85904610906E+02  0.27193479496E+03  0.12501029092E+03 0.  0.
          5    1    3    3  501    0 -0.48314821943E+02  0.80821767374E+02 -0.77613435657E+02  0.12211640142E+03  0.47000000000E+01 0. -1.
         -5    1    3    3    0  501 -0.10197331618E+02  0.13716374954E+03  0.28449026292E+02  0.14053226269E+03  0.47000000000E+01 0. -1.
          5    1    4    4  502    0  0.70664639990E+02 -0.21697498063E+03  0.49899871607E+02  0.23363159194E+03  0.47000000000E+01 0. -1.
         -5    1    4    4    0  502 -0.12152486428E+02 -0.10105362870E+01  0.36004739299E+02  0.38303203025E+02  0.47000000000E+01 0. -1.
<mgrwt>
<rscale>  0 0.53331945E+03</rscale>
<asrwt>0</asrwt>
<pdfrwt beam="1">  1       21 0.43947974E-01 0.53331945E+03</pdfrwt>
<pdfrwt beam="2">  1       21 0.38295635E-01 0.53331945E+03</pdfrwt>
<totfact> 0.29285332E+04</totfact>
</mgrwt>
</event>
<event>
 8    1  0.9974463E-006  0.2674371E+03  0.7546771E-02  0.1102755E+00
         21   -1    0    0  504  503  0.00000000000E+00  0.00000000000E+00  0.12175204960E+03  0.12175204960E+03  0.00000000000E+00 0. -1.
         21   -1    0    0  503  504 -0.00000000000E+00 -0.00000000000E+00 -0.14686114356E+03  0.14686114356E+03  0.00000000000E+00 0. -1.
         25    2    1    2    0    0 -0.98995688148E+01 -0.31522541108E+02  0.21729106042E+02  0.13110271697E+03  0.12499638509E+03 0.  0.
         25    2    1    2    0    0  0.98995688148E+01  0.31522541108E+02 -0.46838199997E+02  0.13751047619E+03  0.12499456798E+03 0.  0.
          5    1    3    3  501    0 -0.27398441914E+02  0.14433236330E+02  0.60618682915E+02  0.68232746161E+02  0.47000000000E+01 0. -1.
         -5    1    3    3    0  501  0.17498873099E+02 -0.45955777438E+02 -0.38889576874E+02  0.62869970805E+02  0.47000000000E+01 0. -1.
          5    1    4    4  502    0  0.66258416816E+02  0.18445924900E+02 -0.12484443312E+02  0.70059840630E+02  0.47000000000E+01 0.  1.
         -5    1    4    4    0  502 -0.56358848001E+02  0.13076616208E+02 -0.34353756686E+02  0.67450635563E+02  0.47000000000E+01 0.  1.
<mgrwt>
<rscale>  0 0.26743706E+03</rscale>
<asrwt>0</asrwt>
<pdfrwt beam="1">  1       21 0.18731085E-01 0.26743706E+03</pdfrwt>
<pdfrwt beam="2">  1       21 0.22594022E-01 0.26743706E+03</pdfrwt>
<totfact> 0.47177692E+05</totfact>
</mgrwt>
</event>
<event>
 8    1  0.9974463E-006  0.3607678E+03  0.7546771E-02  0.1058280E+00
         21   -1    0    0  504  503  0.00000000000E+00  0.00000000000E+00  0.45825563535E+03  0.45825563535E+03  0.00000000000E+00 0.  1.
         21   -1    0    0  503  504 -0.00000000000E+00 -0.00000000000E+00 -0.71004801063E+02  0.71004801063E+02  0.00000000000E+00 0.  1.
         25    2    1    2    0    0  0.39811790345E+02  0.11113310869E+03  0.27367638316E+03  0.32320243430E+03  0.12500201735E+03 0.  0.
         25    2    1    2    0    0 -0.39811790345E+02 -0.11113310869E+03  0.11357445112E+03  0.20605800211E+03  0.12500079115E+03 0.  0.
          5    1    3    3  501    0  0.33674908165E+01  0.13026055804E+03  0.20246649191E+03  0.24081927523E+03  0.47000000000E+01 0. -1.
         -5    1    3    3    0  501  0.36444299529E+02 -0.19127449352E+02  0.71209891251E+02  0.82383159073E+02  0.47000000000E+01 0. -1.
          5    1    4    4  502    0  0.66620622599E+01 -0.11775888185E+03  0.10525298842E+03  0.15815125324E+03  0.47000000000E+01 0.  1.
         -5    1    4    4    0  502 -0.46473852605E+02  0.66257731651E+01  0.83214626976E+01  0.47906748871E+02  0.47000000000E+01 0.  1.
<mgrwt>
<rscale>  0 0.36076779E+03</rscale>
<asrwt>0</asrwt>
<pdfrwt beam="1">  1       21 0.70500865E-01 0.36076779E+03</pdfrwt>
<pdfrwt beam="2">  1       21 0.10923816E-01 0.36076779E+03</pdfrwt>
<totfact> 0.12040321E+05</totfact>
</mgrwt>
</event>
<event>
 8    1  0.9974463E-006  0.2811086E+03  0.7546771E-02  0.1095085E+00
         21   -1    0    0  504  503  0.00000000000E+00  0.00000000000E+00  0.37745977649E+02  0.37745977649E+02  0.00000000000E+00 0.  1.
         21   -1    0    0  503  504 -0.00000000000E+00 -0.00000000000E+00 -0.52338044764E+03  0.52338044764E+03  0.00000000000E+00 0.  1.
         25    2    1    2    0    0 -0.34001730140E+02 -0.34605630472E+02 -0.15867215069E+03  0.20774032600E+03  0.12500209730E+03 0.  0.
         25    2    1    2    0    0  0.34001730140E+02  0.34605630472E+02 -0.32696231931E+03  0.35338609929E+03  0.12499483835E+03 0.  0.
          5    1    3    3  501    0 -0.20755425197E+02 -0.65895221468E+02 -0.31592501718E+02  0.76112706247E+02  0.47000000000E+01 0.  1.
         -5    1    3    3    0  501 -0.13246304943E+02  0.31289590996E+02 -0.12707964897E+03  0.13162761975E+03  0.47000000000E+01 0.  1.
          5    1    4    4  502    0 -0.29477121010E+02  0.58673536557E+02 -0.17039896333E+03  0.18267288047E+03  0.47000000000E+01 0. -1.
         -5    1    4    4    0  502  0.63478851150E+02 -0.24067906085E+02 -0.15656335598E+03  0.17071321883E+03  0.47000000000E+01 0. -1.
<mgrwt>
<rscale>  0 0.28110857E+03</rscale>
<asrwt>0</asrwt>
<pdfrwt beam="1">  1       21 0.58070736E-02 0.28110857E+03</pdfrwt>
<pdfrwt beam="2">  1       21 0.80520068E-01 0.28110857E+03</pdfrwt>
<totfact> 0.27604274E+05</totfact>
</mgrwt>
</event>
<event>
 8    1  0.9974463E-006  0.5070976E+03  0.7546771E-02  0.1011943E+00
         21   -1    0    0  504  503  0.00000000000E+00  0.00000000000E+00  0.30532125232E+03  0.30532125232E+03  0.00000000000E+00 0.  1.
         21   -1    0    0  503  504 -0.00000000000E+00 -0.00000000000E+00 -0.21055529196E+03  0.21055529196E+03  0.00000000000E+00 0.  1.
         25    2    1    2    0    0  0.14554983500E+02  0.15646305936E+03  0.20487997451E+03  0.28687046525E+03  0.12500529345E+03 0.  0.
         25    2    1    2    0    0 -0.14554983500E+02 -0.15646305936E+03 -0.11011401415E+03  0.22900607902E+03  0.12500460643E+03 0.  0.
          5    1    3    3  501    0 -0.26432727346E+02  0.11056628731E+03  0.58336953216E+02  0.12786275093E+03  0.47000000000E+01 0.  1.
         -5    1    3    3    0  501  0.40987710846E+02  0.45896772048E+02  0.14654302129E+03  0.15900771432E+03  0.47000000000E+01 0.  1.
          5    1    4    4  502    0 -0.36660053170E+02 -0.51577412437E+01 -0.54860604876E+02  0.66350115000E+02  0.47000000000E+01 0.  1.
         -5    1    4    4    0  502  0.22105069670E+02 -0.15130531812E+03 -0.55253409277E+02  0.16265596402E+03  0.47000000000E+01 0.  1.
<mgrwt>
<rscale>  0 0.50709765E+03</rscale>
<asrwt>0</asrwt>
<pdfrwt beam="1">  1       21 0.46972501E-01 0.50709765E+03</pdfrwt>
<pdfrwt beam="2">  1       21 0.32393122E-01 0.50709765E+03</pdfrwt>
<totfact> 0.35961057E+04</totfact>
</mgrwt>
</event>
<event>
 8    1  0.9974463E-006  0.3235299E+03  0.7546771E-02  0.1074036E+00
         21   -1    0    0  504  503  0.00000000000E+00  0.00000000000E+00  0.68959191521E+03  0.68959191521E+03  0.00000000000E+00 0.  1.
         21   -1    0    0  503  504 -0.00000000000E+00 -0.00000000000E+00 -0.37946942172E+02  0.37946942172E+02  0.00000000000E+00 0.  1.
         25    2    1    2    0    0  0.72159752161E+02 -0.17879323628E+02  0.48508647425E+03  0.50641938848E+03  0.12500003792E+03 0.  0.
         25    2    1    2    0    0 -0.72159752161E+02  0.17879323628E+02  0.16655849879E+03  0.22111946891E+03  0.12500154385E+03 0.  0.
          5    1    3    3  501    0  0.61705887699E+02 -0.36317488537E+02  0.47833002231E+03  0.48368199966E+03  0.47000000000E+01 0.  1.
         -5    1    3    3    0  501  0.10453864462E+02  0.18438164909E+02  0.67564519360E+01  0.22737388816E+02  0.47000000000E+01 0.  1.
          5    1    4    4  502    0 -0.10277496906E+03  0.28711080093E+02  0.15059476262E+03  0.18462906844E+03  0.47000000000E+01 0.  1.
         -5    1    4    4    0  502  0.30615216896E+02 -0.10831756465E+02  0.15963736173E+02  0.36490400468E+02  0.47000000000E+01 0.  1.
<mgrwt>
<rscale>  0 0.32352993E+03</rscale>
<asrwt>0</asrwt>
<pdfrwt beam="1">  1       21 0.10609105E+00 0.32352993E+03</pdfrwt>
<pdfrwt beam="2">  1       21 0.58379916E-02 0.32352993E+03</pdfrwt>
<totfact> 0.14118522E+05</totfact>
</mgrwt>
</event>
<event>
 8    1  0.9974463E-006  0.2738579E+03  0.7546771E-02  0.1099092E+00
         21   -1    0    0  504  503  0.00000000000E+00  0.00000000000E+00  0.59924103748E+03  0.59924103748E+03  0.00000000000E+00 0. -1.
         21   -1    0    0  503  504 -0.00000000000E+00 -0.00000000000E+00 -0.31288796585E+02  0.31288796585E+02  0.00000000000E+00 0. -1.
         25    2    1    2    0    0 -0.24546051692E+02 -0.41473200486E+02  0.34924597552E+03  0.37405576254E+03  0.12498970780E+03 0.  0.
         25    2    1    2    0    0  0.24546051692E+02  0.41473200486E+02  0.21870626537E+03  0.25647407152E+03  0.12499593529E+03 0.  0.
          5    1    3    3  501    0 -0.10057242462E+02  0.33116715244E+02  0.30582055412E+02  0.46424315479E+02  0.47000000000E+01 0.  1.
         -5    1    3    3    0  501 -0.14488809230E+02 -0.74589915730E+02  0.31866392011E+03  0.32763144706E+03  0.47000000000E+01 0.  1.
          5    1    4    4  502    0  0.49257001614E+01 -0.28638782400E+02  0.16040475830E+03  0.16308347208E+03  0.47000000000E+01 0. -1.
         -5    1    4    4    0  502  0.19620351531E+02  0.70111982886E+02  0.58301507069E+02  0.93390599446E+02  0.47000000000E+01 0. -1.
<mgrwt>
<rscale>  0 0.27385785E+03</rscale>
<asrwt>0</asrwt>
<pdfrwt beam="1">  1       21 0.92190920E-01 0.27385785E+03</pdfrwt>
<pdfrwt beam="2">  1       21 0.48136615E-02 0.27385785E+03</pdfrwt>
<totfact> 0.27869062E+05</totfact>
</mgrwt>
</event>
<event>
 8    1  0.9974463E-006  0.2713455E+03  0.7546771E-02  0.1100512E+00
         21   -1    0    0  504  503  0.00000000000E+00  0.00000000000E+00  0.16186731571E+02  0.16186731571E+02  0.00000000000E+00 0. -1.
         21   -1    0    0  503  504 -0.00000000000E+00 -0.00000000000E+00 -0.11371719342E+04  0.11371719342E+04  0.00000000000E+00 0. -1.
         25    2    1    2    0    0 -0.16186344709E+02  0.41752017658E+02 -0.67896573517E+03  0.69182817475E+03  0.12500610029E+03 0.  0.
         25    2    1    2    0    0  0.16186344709E+02 -0.41752017658E+02 -0.44201946744E+03  0.46153049100E+03  0.12499582311E+03 0.  0.
          5    1    3    3  501    0  0.68178041511E+01 -0.18120403140E+02 -0.51950887077E+03  0.51989074648E+03  0.47000000000E+01 0.  1.
         -5    1    3    3    0  501 -0.23004148860E+02  0.59872420798E+02 -0.15945686440E+03  0.17193742827E+03  0.47000000000E+01 0.  1.
          5    1    4    4  502    0 -0.22678814646E+02 -0.50219179920E+02 -0.79721830824E+02  0.97025537749E+02  0.47000000000E+01 0.  1.
         -5    1    4    4    0  502  0.38865159355E+02  0.84671622613E+01 -0.36229763662E+03  0.36450495325E+03  0.47000000000E+01 0.  1.
<mgrwt>
<rscale>  0 0.27134551E+03</rscale>
<asrwt>0</asrwt>
<pdfrwt beam="1">  1       21 0.24902660E-02 0.27134551E+03</pdfrwt>
<pdfrwt beam="2">  1       21 0.17494955E+00 0.27134551E+03</pdfrwt>
<totfact> 0.16397952E+05</totfact>
</mgrwt>
</event>
<event>
 8    1  0.9974463E-006  0.2676314E+03  0.7546771E-02  0.1102643E+00
         21   -1    0    0  504  503  0.00000000000E+00  0.00000000000E+00  0.46341755124E+03  0.46341755124E+03  0.00000000000E+00 0.  1.
         21   -1    0    0  503  504 -0.00000000000E+00 -0.00000000000E+00 -0.38640400551E+02  0.38640400551E+02  0.00000000000E+00 0.  1.
         25    2    1    2    0    0  0.38663701378E+02 -0.18618189705E+02  0.17314661912E+03  0.21783159013E+03  0.12501732342E+03 0.  0.
         25    2    1    2    0    0 -0.38663701378E+02  0.18618189705E+02  0.25163053156E+03  0.28422636166E+03  0.12500072581E+03 0.  0.
          5    1    3    3  501    0  0.75929511586E+02  0.19320885699E+02  0.95776473672E+02  0.12382976324E+03  0.47000000000E+01 0. -1.
         -5    1    3    3    0  501 -0.37265810208E+02 -0.37939075404E+02  0.77370145451E+02  0.94001826898E+02  0.47000000000E+01 0. -1.
          5    1    4    4  502    0  0.45016106991E+02  0.12593573137E+02  0.72870370248E+02  0.86701954033E+02  0.47000000000E+01 0. -1.
         -5    1    4    4    0  502 -0.83679808368E+02  0.60246165675E+01  0.17876016131E+03  0.19752440762E+03  0.47000000000E+01 0. -1.
<mgrwt>
<rscale>  0 0.26763139E+03</rscale>
<asrwt>0</asrwt>
<pdfrwt beam="1">  1       21 0.71295004E-01 0.26763139E+03</pdfrwt>
<pdfrwt beam="2">  1       21 0.59446773E-02 0.26763139E+03</pdfrwt>
<totfact> 0.35000990E+05</totfact>
</mgrwt>
</event>
<event>
 8    1  0.9974463E-006  0.2559484E+03  0.7546771E-02  0.1109602E+00
         21   -1    0    0  504  503  0.00000000000E+00  0.00000000000E+00  0.61772426545E+03  0.61772426545E+03  0.00000000000E+00 0.  1.
         21   -1    0    0  503  504 -0.00000000000E+00 -0.00000000000E+00 -0.26512466848E+02  0.26512466848E+02  0.00000000000E+00 0.  1.
         25    2    1    2    0    0  0.12392419353E+02 -0.15769880822E+01  0.35704680307E+03  0.37850261554E+03  0.12500300572E+03 0.  0.
         25    2    1    2    0    0 -0.12392419353E+02  0.15769880822E+01  0.23416499554E+03  0.26573411676E+03  0.12500126690E+03 0.  0.
          5    1    3    3  501    0 -0.16619790265E+02 -0.28016619639E+01 -0.25697078803E+01  0.17685025779E+02  0.47000000000E+01 0.  1.
         -5    1    3    3    0  501  0.29012209618E+02  0.12246738817E+01  0.35961651095E+03  0.36081758976E+03  0.47000000000E+01 0.  1.
          5    1    4    4  502    0 -0.22362411818E+02 -0.55729088573E+02  0.16256814920E+03  0.17336753418E+03  0.47000000000E+01 0.  1.
         -5    1    4    4    0  502  0.99699924652E+01  0.57306076655E+02  0.71596846341E+02  0.92366582579E+02  0.47000000000E+01 0.  1.
<mgrwt>
<rscale>  0 0.25594839E+03</rscale>
<asrwt>0</asrwt>
<pdfrwt beam="1">  1       21 0.95034491E-01 0.25594839E+03</pdfrwt>
<pdfrwt beam="2">  1       21 0.40788415E-02 0.25594839E+03</pdfrwt>
<totfact> 0.34512560E+05</totfact>
</mgrwt>
</event>
<event>
 8    1  0.9974463E-006  0.3742167E+03  0.7546771E-02  0.1053092E+00
         21   -1    0    0  504  503  0.00000000000E+00  0.00000000000E+00  0.77645224669E+03  0.77645224669E+03  0.00000000000E+00 0. -1.
         21   -1    0    0  503  504 -0.00000000000E+00 -0.00000000000E+00 -0.45089111668E+02  0.45089111668E+02  0.00000000000E+00 0. -1.
         25    2    1    2    0    0 -0.68878047616E-01 -0.15025177774E+02  0.61794327430E+02  0.14024003343E+03  0.12499186919E+03 0.  0.
         25    2    1    2    0    0  0.68878047616E-01  0.15025177774E+02  0.66956880759E+03  0.68130132493E+03  0.12499338597E+03 0.  0.
          5    1    3    3  501    0  0.31069262658E+01 -0.44678499393E+02  0.88907354965E+02  0.99661572663E+02  0.47000000000E+01 0. -1.
         -5    1    3    3    0  501 -0.31758043134E+01  0.29653321619E+02 -0.27113027535E+02  0.40578460767E+02  0.47000000000E+01 0. -1.
          5    1    4    4  502    0 -0.90966512364E+01  0.31821774093E+02  0.65717381955E+03  0.65802347486E+03  0.47000000000E+01 0.  1.
         -5    1    4    4    0  502  0.91655292840E+01 -0.16796596319E+02  0.12394988039E+02  0.23277850061E+02  0.47000000000E+01 0.  1.
<mgrwt>
<rscale>  0 0.37421674E+03</rscale>
<asrwt>0</asrwt>
<pdfrwt beam="1">  1       21 0.11945418E+00 0.37421674E+03</pdfrwt>
<pdfrwt beam="2">  1       21 0.69367870E-02 0.37421674E+03</pdfrwt>
<totfact> 0.76956795E+04</totfact>
</mgrwt>
</event>
<event>
 8    1  0.9974463E-006  0.2824055E+03  0.7546771E-02  0.1094382E+00
         21   -1    0    0  504  503  0.00000000000E+00  0.00000000000E+00  0.10303080950E+03  0.10303080950E+03  0.00000000000E+00 0.  1.
         21   -1    0    0  503  504 -0.00000000000E+00 -0.00000000000E+00 -0.19351709464E+03  0.19351709464E+03  0.00000000000E+00 0.  1.
         25    2    1    2    0    0  0.97346491338E+01  0.63918434064E+02 -0.33055746878E+02  0.14455998703E+03  0.12499831136E+03 0.  0.
         25    2    1    2    0    0 -0.97346491338E+01 -0.63918434064E+02 -0.57430538269E+02  0.15198791711E+03  0.12498692177E+03 0.  0.
          5    1    3    3  501    0  0.44924008832E+02 -0.20084543796E+02 -0.90283518603E+01  0.50250936373E+02  0.47000000000E+01 0. -1.
         -5    1    3    3    0  501 -0.35189359698E+02  0.84002977860E+02 -0.24027395018E+02  0.94309050662E+02  0.47000000000E+01 0. -1.
          5    1    4    4  502    0 -0.52465068110E+02 -0.65078432073E+02 -0.45774761045E+01  0.83850038642E+02  0.47000000000E+01 0. -1.
         -5    1    4    4    0  502  0.42730418976E+02  0.11599980086E+01 -0.52853062164E+02  0.68137878463E+02  0.47000000000E+01 0. -1.
<mgrwt>
<rscale>  0 0.28240554E+03</rscale>
<asrwt>0</asrwt>
<pdfrwt beam="1">  1       21 0.15850894E-01 0.28240554E+03</pdfrwt>
<pdfrwt beam="2">  1       21 0.29771860E-01 0.28240554E+03</pdfrwt>
<totfact> 0.37634046E+05</totfact>
</mgrwt>
</event>
<event>
 8    1  0.9974463E-006  0.2969744E+03  0.7546771E-02  0.1086763E+00
         21   -1    0    0  504  503  0.00000000000E+00  0.00000000000E+00  0.58711600475E+02  0.58711600475E+02  0.00000000000E+00 0.  1.
         21   -1    0    0  503  504 -0.00000000000E+00 -0.00000000000E+00 -0.37553829110E+03  0.37553829110E+03  0.00000000000E+00 0.  1.
         25    2    1    2    0    0 -0.70652985453E+02 -0.35397454882E+02 -0.13887558508E+03  0.20286994600E+03  0.12499985077E+03 0.  0.
         25    2    1    2    0    0  0.70652985453E+02  0.35397454882E+02 -0.17795110554E+03  0.23137994557E+03  0.12500103633E+03 0.  0.
          5    1    3    3  501    0 -0.70386805189E+01  0.35488867145E+02 -0.26455305339E+01  0.36579933658E+02  0.47000000000E+01 0.  1.
         -5    1    3    3    0  501 -0.63614304934E+02 -0.70886322027E+02 -0.13623005455E+03  0.16629001234E+03  0.47000000000E+01 0.  1.
          5    1    4    4  502    0  0.63807999788E+02  0.89518677963E+01 -0.19035021635E+03  0.20101465529E+03  0.47000000000E+01 0. -1.
         -5    1    4    4    0  502  0.68449856654E+01  0.26445587086E+02  0.12399110813E+02  0.30365290284E+02  0.47000000000E+01 0. -1.
<mgrwt>
<rscale>  0 0.29697444E+03</rscale>
<asrwt>0</asrwt>
<pdfrwt beam="1">  1       21 0.90325541E-02 0.29697444E+03</pdfrwt>
<pdfrwt beam="2">  1       21 0.57775120E-01 0.29697444E+03</pdfrwt>
<totfact> 0.26566765E+05</totfact>
</mgrwt>
</event>
<event>
 8    1  0.9974463E-006  0.3587735E+03  0.7546771E-02  0.1059071E+00
         21   -1    0    0  504  503  0.00000000000E+00  0.00000000000E+00  0.56972797187E+02  0.56972797187E+02  0.00000000000E+00 0.  1.
         21   -1    0    0  503  504 -0.00000000000E+00 -0.00000000000E+00 -0.56482403161E+03  0.56482403161E+03  0.00000000000E+00 0.  1.
         25    2    1    2    0    0 -0.38145017977E+02  0.11136217178E+03 -0.16389912652E+03  0.23737000026E+03  0.12500007060E+03 0.  0.
         25    2    1    2    0    0  0.38145017977E+02 -0.11136217178E+03 -0.34395210790E+03  0.38442682853E+03  0.12499743304E+03 0.  0.
          5    1    3    3  501    0 -0.12172108276E-01  0.87691499952E+02 -0.17047624081E+03  0.19176558084E+03  0.47000000000E+01 0. -1.
         -5    1    3    3    0  501 -0.38132845868E+02  0.23670671828E+02  0.65771142918E+01  0.45604419426E+02  0.47000000000E+01 0. -1.
          5    1    4    4  502    0 -0.42701066028E+02 -0.49917835373E+02 -0.95729740818E+02  0.11619571681E+03  0.47000000000E+01 0. -1.
         -5    1    4    4    0  502  0.80846084005E+02 -0.61444336407E+02 -0.24822236708E+03  0.26823111172E+03  0.47000000000E+01 0. -1.
<mgrwt>
<rscale>  0 0.35877349E+03</rscale>
<asrwt>0</asrwt>
<pdfrwt beam="1">  1       21 0.87650455E-02 0.35877349E+03</pdfrwt>
<pdfrwt beam="2">  1       21 0.86896007E-01 0.35877349E+03</pdfrwt>
<totfact> 0.11067043E+05</totfact>
</mgrwt>
</event>
<event>
 8    1  0.9974463E-006  0.2569935E+03  0.7546771E-02  0.1108963E+00
         21   -1    0    0  504  503  0.00000000000E+00  0.00000000000E+00  0.10778858588E+04  0.10778858588E+04  0.00000000000E+00 0. -1.
         21   -1    0    0  503  504 -0.00000000000E+00 -0.00000000000E+00 -0.15318336743E+02  0.15318336743E+02  0.00000000000E+00 0. -1.
         25    2    1    2    0    0 -0.27819584977E+02 -0.10506815888E+02  0.53454676934E+03  0.54977307882E+03  0.12500346836E+03 0.  0.
         25    2    1    2    0    0  0.27819584977E+02  0.10506815888E+02  0.52802075268E+03  0.54343111668E+03  0.12500856302E+03 0.  0.
          5    1    3    3  501    0 -0.35969576909E+02 -0.32694135416E+02  0.74397969511E+02  0.88993622362E+02  0.47000000000E+01 0.  1.
         -5    1    3    3    0  501  0.81499919320E+01  0.22187319528E+02  0.46014879982E+03  0.46077945646E+03  0.47000000000E+01 0.  1.
          5    1    4    4  502    0  0.24432518888E+02  0.66803950204E+02  0.26765917844E+03  0.27698960548E+03  0.47000000000E+01 0. -1.
         -5    1    4    4    0  502  0.33870660888E+01 -0.56297134316E+02  0.26036157424E+03  0.26644151120E+03  0.47000000000E+01 0. -1.
<mgrwt>
<rscale>  0 0.25699353E+03</rscale>
<asrwt>0</asrwt>
<pdfrwt beam="1">  1       21 0.16582853E+00 0.25699353E+03</pdfrwt>
<pdfrwt beam="2">  1       21 0.23566680E-02 0.25699353E+03</pdfrwt>
<totfact> 0.20964370E+05</totfact>
</mgrwt>
</event>
<event>
 8    1  0.9974463E-006  0.2506902E+03  0.7546771E-02  0.1112869E+00
         21   -1    0    0  504  503  0.00000000000E+00  0.00000000000E+00  0.22514444203E+03  0.22514444203E+03  0.00000000000E+00 0. -1.
         21   -1    0    0  503  504 -0.00000000000E+00 -0.00000000000E+00 -0.69783595837E+02  0.69783595837E+02  0.00000000000E+00 0. -1.
         25    2    1    2    0    0  0.12065970023E+00  0.68709067751E+01  0.70310490615E+02  0.14358554937E+03  0.12500408385E+03 0.  0.
         25    2    1    2    0    0 -0.12065970023E+00 -0.68709067751E+01  0.85050355579E+02  0.15134248850E+03  0.12499504759E+03 0.  0.
          5    1    3    3  501    0  0.23800812817E+02 -0.28686274591E+02 -0.20730691027E+02  0.42909586238E+02  0.47000000000E+01 0.  1.
         -5    1    3    3    0  501 -0.23680153117E+02  0.35557181366E+02  0.91041181642E+02  0.10067596314E+03  0.47000000000E+01 0.  1.
          5    1    4    4  502    0  0.12014471105E+02  0.22108520617E+02 -0.25612167107E+02  0.36210596567E+02  0.47000000000E+01 0.  1.
         -5    1    4    4    0  502 -0.12135130806E+02 -0.28979427392E+02  0.11066252269E+03  0.11513189193E+03  0.47000000000E+01 0.  1.
<mgrwt>
<rscale>  0 0.25069016E+03</rscale>
<asrwt>0</asrwt>
<pdfrwt beam="1">  1       21 0.34637606E-01 0.25069016E+03</pdfrwt>
<pdfrwt beam="2">  1       21 0.10735938E-01 0.25069016E+03</pdfrwt>
<totfact> 0.56872610E+05</totfact>
</mgrwt>
</event>
<event>
 8    1  0.9974463E-006  0.2958283E+03  0.7546771E-02  0.1087345E+00
         21   -1    0    0  504  503  0.00000000000E+00  0.00000000000E+00  0.18835449599E+04  0.18835449599E+04  0.00000000000E+00 0. -1.
         21   -1    0    0  503  504 -0.00000000000E+00 -0.00000000000E+00 -0.11615645629E+02  0.11615645629E+02  0.00000000000E+00 0. -1.
         25    2    1    2    0    0 -0.57793286316E+02  0.42677784274E+01  0.59125697665E+03  0.60709769613E+03  0.12499808928E+03 0.  0.
         25    2    1    2    0    0  0.57793286316E+02 -0.42677784274E+01  0.12806723376E+04  0.12880629094E+04  0.12500457737E+03 0.  0.
          5    1    3    3  501    0  0.29612907836E+02  0.33947004783E+02  0.20283484515E+03  0.20783018994E+03  0.47000000000E+01 0.  1.
         -5    1    3    3    0  501 -0.87406194152E+02 -0.29679226356E+02  0.38842213151E+03  0.39926750619E+03  0.47000000000E+01 0.  1.
          5    1    4    4  502    0  0.25619683025E+02 -0.49649338012E+02  0.26543817639E+03  0.27129493252E+03  0.47000000000E+01 0. -1.
         -5    1    4    4    0  502  0.32173603291E+02  0.45381559585E+02  0.10152341612E+04  0.10167679769E+04  0.47000000000E+01 0. -1.
<mgrwt>
<rscale>  0 0.29582827E+03</rscale>
<asrwt>0</asrwt>
<pdfrwt beam="1">  1       21 0.28977591E+00 0.29582827E+03</pdfrwt>
<pdfrwt beam="2">  1       21 0.17870239E-02 0.29582827E+03</pdfrwt>
<totfact> 0.53731417E+04</totfact>
</mgrwt>
</event>
<event>
 8    1  0.9974463E-006  0.2941236E+03  0.7546771E-02  0.1088216E+00
         21   -1    0    0  504  503  0.00000000000E+00  0.00000000000E+00  0.11037466702E+03  0.11037466702E+03  0.00000000000E+00 0. -1.
         21   -1    0    0  503  504 -0.00000000000E+00 -0.00000000000E+00 -0.19594329049E+03  0.19594329049E+03  0.00000000000E+00 0. -1.
         25    2    1    2    0    0 -0.51655620764E+02 -0.30163667306E+02  0.85109753547E+01  0.13883674215E+03  0.12500021715E+03 0.  0.
         25    2    1    2    0    0  0.51655620764E+02  0.30163667306E+02 -0.94079598824E+02  0.16748121535E+03  0.12498334528E+03 0.  0.
          5    1    3    3  501    0 -0.26745306687E+02  0.34858801142E+02 -0.35195446853E+02  0.56491211051E+02  0.47000000000E+01 0. -1.
         -5    1    3    3    0  501 -0.24910314077E+02 -0.65022468448E+02  0.43706422208E+02  0.82345531103E+02  0.47000000000E+01 0. -1.
          5    1    4    4  502    0 -0.21195077921E+02  0.43154356093E+02 -0.79109203047E+00  0.48314031135E+02  0.47000000000E+01 0.  1.
         -5    1    4    4    0  502  0.72850698685E+02 -0.12990688787E+02 -0.93288506794E+02  0.11916718422E+03  0.47000000000E+01 0.  1.
<mgrwt>
<rscale>  0 0.29412362E+03</rscale>
<asrwt>0</asrwt>
<pdfrwt beam="1">  1       21 0.16980718E-01 0.29412362E+03</pdfrwt>
<pdfrwt beam="2">  1       21 0.30145121E-01 0.29412362E+03</pdfrwt>
<totfact> 0.32256193E+05</totfact>
</mgrwt>
</event>
<event>
 8    1  0.9974463E-006  0.2696989E+03  0.7546771E-02  0.1101452E+00
         21   -1    0    0  504  503  0.00000000000E+00  0.00000000000E+00  0.16554410350E+03  0.16554410350E+03  0.00000000000E+00 0. -1.
         21   -1    0    0  503  504 -0.00000000000E+00 -0.00000000000E+00 -0.10984612394E+03  0.10984612394E+03  0.00000000000E+00 0. -1.
         25    2    1    2    0    0  0.46014692331E+02 -0.19022761569E+02  0.37012292245E+02  0.13954665310E+03  0.12499656493E+03 0.  0.
         25    2    1    2    0    0 -0.46014692331E+02  0.19022761569E+02  0.18685687322E+02  0.13584357434E+03  0.12500041764E+03 0.  0.
          5    1    3    3  501    0 -0.35980558509E+02  0.11481120493E+02 -0.11032694842E+02  0.39626090822E+02  0.47000000000E+01 0. -1.
         -5    1    3    3    0  501  0.81995250839E+02 -0.30503882062E+02  0.48044987088E+02  0.99920562275E+02  0.47000000000E+01 0. -1.
          5    1    4    4  502    0 -0.15496267804E+02  0.40091726864E+02  0.63914576105E+02  0.77166339277E+02  0.47000000000E+01 0.  1.
         -5    1    4    4    0  502 -0.30518424527E+02 -0.21068965295E+02 -0.45228888783E+02  0.58677235064E+02  0.47000000000E+01 0.  1.
<mgrwt>
<rscale>  0 0.26969893E+03</rscale>
<asrwt>0</asrwt>
<pdfrwt beam="1">  1       21 0.25468323E-01 0.26969893E+03</pdfrwt>
<pdfrwt beam="2">  1       21 0.16899404E-01 0.26969893E+03</pdfrwt>
<totfact> 0.45404911E+05</totfact>
</mgrwt>
</event>
<event>
 8    1  0.9974463E-006  0.4291166E+03  0.7546771E-02  0.1034139E+00
         21   -1    0    0  504  503  0.00000000000E+00  0.00000000000E+00  0.22760580676E+03  0.22760580676E+03  0.00000000000E+00 0. -1.
         21   -1    0    0  503  504 -0.00000000000E+00 -0.00000000000E+00 -0.20225870013E+03  0.20225870013E+03  0.00000000000E+00 0. -1.
         25    2    1    2    0    0  0.16022303994E+03 -0.37813189856E+01  0.81523244390E+02  0.21899130831E+03  0.12500173134E+03 0.  0.
         25    2    1    2    0    0 -0.16022303994E+03  0.37813189856E+01 -0.56176137763E+02  0.21087319858E+03  0.12500410603E+03 0.  0.
          5    1    3    3  501    0  0.73593762238E+02 -0.46844224060E+02 -0.71740982228E+01  0.87658318792E+02  0.47000000000E+01 0. -1.
         -5    1    3    3    0  501  0.86629277704E+02  0.43062905074E+02  0.88697342613E+02  0.13133298952E+03  0.47000000000E+01 0. -1.
          5    1    4    4  502    0 -0.13451649691E+03  0.15464964498E+02 -0.92926187277E+02  0.16429004641E+03  0.47000000000E+01 0. -1.
         -5    1    4    4    0  502 -0.25706543033E+02 -0.11683645512E+02  0.36750049513E+02  0.46583152173E+02  0.47000000000E+01 0. -1.
<mgrwt>
<rscale>  0 0.42911656E+03</rscale>
<asrwt>0</asrwt>
<pdfrwt beam="1">  1       21 0.35016278E-01 0.42911656E+03</pdfrwt>
<pdfrwt beam="2">  1       21 0.31116723E-01 0.42911656E+03</pdfrwt>
<totfact> 0.72674736E+04</totfact>
</mgrwt>
</event>
<event>
 8    1  0.9974463E-006  0.2623161E+03  0.7546771E-02  0.1105760E+00
         21   -1    0    0  504  503  0.00000000000E+00  0.00000000000E+00  0.22532611574E+02  0.22532611574E+02  0.00000000000E+00 0.  1.
         21   -1    0    0  503  504 -0.00000000000E+00 -0.00000000000E+00 -0.76344613893E+03  0.76344613893E+03  0.00000000000E+00 0.  1.
         25    2    1    2    0    0 -0.26934272410E+02 -0.10819965322E+00 -0.28335075664E+03  0.31088247104E+03  0.12503916496E+03 0.  0.
         25    2    1    2    0    0  0.26934272410E+02  0.10819965322E+00 -0.45756277072E+03  0.47509627946E+03  0.12500927516E+03 0.  0.
          5    1    3    3  501    0  0.24187363205E+02  0.89240398898E+01 -0.24442615120E+03  0.24582697252E+03  0.47000000000E+01 0.  1.
         -5    1    3    3    0  501 -0.51121635615E+02 -0.90322395431E+01 -0.38924605432E+02  0.65055498516E+02  0.47000000000E+01 0.  1.
          5    1    4    4  502    0 -0.31554958403E+02  0.28553178123E+01 -0.31229670816E+02  0.44735339262E+02  0.47000000000E+01 0.  1.
         -5    1    4    4    0  502  0.58489230813E+02 -0.27471181591E+01 -0.42633309990E+03  0.43036094020E+03  0.47000000000E+01 0.  1.
<mgrwt>
<rscale>  0 0.26231611E+03</rscale>
<asrwt>0</asrwt>
<pdfrwt beam="1">  1       21 0.34665556E-02 0.26231611E+03</pdfrwt>
<pdfrwt beam="2">  1       21 0.11745325E+00 0.26231611E+03</pdfrwt>
<totfact> 0.27127690E+05</totfact>
</mgrwt>
</event>
<event>
 8    1  0.9974463E-006  0.3318747E+03  0.7546771E-02  0.1070310E+00
         21   -1    0    0  504  503  0.00000000000E+00  0.00000000000E+00  0.28866457718E+02  0.28866457718E+02  0.00000000000E+00 0.  1.
         21   -1    0    0  503  504 -0.00000000000E+00 -0.00000000000E+00 -0.95388262283E+03  0.95388262283E+03  0.00000000000E+00 0.  1.
         25    2    1    2    0    0  0.12436506461E+02 -0.76513042379E+02 -0.68996304352E+03  0.70546755620E+03  0.12500623617E+03 0.  0.
         25    2    1    2    0    0 -0.12436506461E+02  0.76513042379E+02 -0.23505312159E+03  0.27728152434E+03  0.12500464562E+03 0.  0.
          5    1    3    3  501    0  0.32845650638E+02 -0.28256869734E+01 -0.45054748829E+02  0.56025366261E+02  0.47000000000E+01 0. -1.
         -5    1    3    3    0  501 -0.20409144177E+02 -0.73687355406E+02 -0.64490829469E+03  0.64944218994E+03  0.47000000000E+01 0. -1.
          5    1    4    4  502    0  0.19901891397E+02 -0.25388934518E+02 -0.98729537015E+02  0.10397256733E+03  0.47000000000E+01 0. -1.
         -5    1    4    4    0  502 -0.32338397858E+02  0.10190197690E+03 -0.13632358457E+03  0.17330895702E+03  0.47000000000E+01 0. -1.
<mgrwt>
<rscale>  0 0.33187475E+03</rscale>
<asrwt>0</asrwt>
<pdfrwt beam="1">  1       21 0.44409931E-02 0.33187475E+03</pdfrwt>
<pdfrwt beam="2">  1       21 0.14675119E+00 0.33187475E+03</pdfrwt>
<totfact> 0.98628440E+04</totfact>
</mgrwt>
</event>
<event>
 8    1  0.9974463E-006  0.2874331E+03  0.7546771E-02  0.1091697E+00
         21   -1    0    0  504  503  0.00000000000E+00  0.00000000000E+00  0.21663238771E+02  0.21663238771E+02  0.00000000000E+00 0. -1.
         21   -1    0    0  503  504 -0.00000000000E+00 -0.00000000000E+00 -0.95343301362E+03  0.95343301362E+03  0.00000000000E+00 0. -1.
         25    2    1    2    0    0  0.11999896432E+02 -0.31580648701E+01 -0.22890927424E+03  0.26110284152E+03  0.12498506763E+03 0.  0.
         25    2    1    2    0    0 -0.11999896432E+02  0.31580648701E+01 -0.70286050061E+03  0.71399341086E+03  0.12497894445E+03 0.  0.
          5    1    3    3  501    0 -0.49038267244E+02 -0.15506681849E+02 -0.15988358346E+03  0.16801803205E+03  0.47000000000E+01 0.  1.
         -5    1    3    3    0  501  0.61038163676E+02  0.12348616979E+02 -0.69025690782E+02  0.93084809471E+02  0.47000000000E+01 0.  1.
          5    1    4    4  502    0  0.40168481135E+02  0.39864779349E+02 -0.23409036448E+03  0.24087983778E+03  0.47000000000E+01 0. -1.
         -5    1    4    4    0  502 -0.52168377568E+02 -0.36706714479E+02 -0.46877013613E+03  0.47311357308E+03  0.47000000000E+01 0. -1.
<mgrwt>
<rscale>  0 0.28743310E+03</rscale>
<asrwt>0</asrwt>
<pdfrwt beam="1">  1       21 0.33328064E-02 0.28743310E+03</pdfrwt>
<pdfrwt beam="2">  1       21 0.14668198E+00 0.28743310E+03</pdfrwt>
<totfact> 0.16262191E+05</totfact>
</mgrwt>
</event>
<event>
 8    1  0.9974463E-006  0.5122526E+03  0.7546771E-02  0.1010629E+00
         21   -1    0    0  504  503  0.00000000000E+00  0.00000000000E+00  0.94213080275E+02  0.94213080275E+02  0.00000000000E+00 0.  1.
         21   -1    0    0  503  504 -0.00000000000E+00 -0.00000000000E+00 -0.69630108088E+03  0.69630108088E+03  0.00000000000E+00 0.  1.
         25    2    1    2    0    0 -0.20097777775E+03 -0.15356960727E+02 -0.15185152882E+03  0.28162509401E+03  0.12500361346E+03 0.  0.
         25    2    1    2    0    0  0.20097777775E+03  0.15356960727E+02 -0.45023647178E+03  0.50888906714E+03  0.12500919462E+03 0.  0.
          5    1    3    3  501    0 -0.18801496372E+03 -0.62000171279E+01 -0.74277739218E+02  0.20230506503E+03  0.47000000000E+01 0. -1.
         -5    1    3    3    0  501 -0.12962814029E+02 -0.91569435995E+01 -0.77573789599E+02  0.79320028974E+02  0.47000000000E+01 0. -1.
          5    1    4    4  502    0  0.18599587985E+03  0.50476079442E+02 -0.41086209017E+03  0.45384143602E+03  0.47000000000E+01 0. -1.
         -5    1    4    4    0  502  0.14981897901E+02 -0.35119118714E+02 -0.39374381617E+02  0.55047631118E+02  0.47000000000E+01 0. -1.
<mgrwt>
<rscale>  0 0.51225255E+03</rscale>
<asrwt>0</asrwt>
<pdfrwt beam="1">  1       21 0.14494320E-01 0.51225255E+03</pdfrwt>
<pdfrwt beam="2">  1       21 0.10712324E+00 0.51225255E+03</pdfrwt>
<totfact> 0.25922054E+04</totfact>
</mgrwt>
</event>
<event>
 8    1  0.9974463E-006  0.3404782E+03  0.7546771E-02  0.1066592E+00
         21   -1    0    0  504  503  0.00000000000E+00  0.00000000000E+00  0.10106417595E+03  0.10106417595E+03  0.00000000000E+00 0. -1.
         21   -1    0    0  503  504 -0.00000000000E+00 -0.00000000000E+00 -0.28676185568E+03  0.28676185568E+03  0.00000000000E+00 0. -1.
         25    2    1    2    0    0 -0.79925439726E+02 -0.63999679889E+02 -0.15392380473E+03  0.22314928281E+03  0.12497611698E+03 0.  0.
         25    2    1    2    0    0  0.79925439726E+02  0.63999679889E+02 -0.31773875009E+02  0.16467674883E+03  0.12499927012E+03 0.  0.
          5    1    3    3  501    0  0.11920493326E+02 -0.12315919743E+02  0.15489385749E+02  0.23575222398E+02  0.47000000000E+01 0.  1.
         -5    1    3    3    0  501 -0.91845933052E+02 -0.51683760146E+02 -0.16941319047E+03  0.19957406041E+03  0.47000000000E+01 0.  1.
          5    1    4    4  502    0 -0.27211115523E+02  0.17232469990E+02  0.18386065275E+02  0.37383689308E+02  0.47000000000E+01 0.  1.
         -5    1    4    4    0  502  0.10713655525E+03  0.46767209899E+02 -0.50159940284E+02  0.12729305952E+03  0.47000000000E+01 0.  1.
<mgrwt>
<rscale>  0 0.34047820E+03</rscale>
<asrwt>0</asrwt>
<pdfrwt beam="1">  1       21 0.15548335E-01 0.34047820E+03</pdfrwt>
<pdfrwt beam="2">  1       21 0.44117208E-01 0.34047820E+03</pdfrwt>
<totfact> 0.17434160E+05</totfact>
</mgrwt>
</event>
<event>
 8    1  0.9974463E-006  0.2753150E+03  0.7546771E-02  0.1098276E+00
         21   -1    0    0  504  503  0.00000000000E+00  0.00000000000E+00  0.60894873190E+02  0.60894873190E+02  0.00000000000E+00 0.  1.
         21   -1    0    0  503  504 -0.00000000000E+00 -0.00000000000E+00 -0.31118533318E+03  0.31118533318E+03  0.00000000000E+00 0.  1.
         25    2    1    2    0    0 -0.33674030979E+02 -0.34853792271E+02 -0.82932833259E+02  0.15764672306E+03  0.12500362899E+03 0.  0.
         25    2    1    2    0    0  0.33674030979E+02  0.34853792271E+02 -0.16735762674E+03  0.21443348332E+03  0.12499766535E+03 0.  0.
          5    1    3    3  501    0  0.92781318335E+01 -0.45391209376E+02 -0.99761116380E+02  0.11009457734E+03  0.47000000000E+01 0. -1.
         -5    1    3    3    0  501 -0.42952162812E+02  0.10537417105E+02  0.16828283121E+02  0.47552145717E+02  0.47000000000E+01 0. -1.
          5    1    4    4  502    0  0.32735255275E+01 -0.39217411423E+02 -0.15232244236E+02  0.42459776171E+02  0.47000000000E+01 0. -1.
         -5    1    4    4    0  502  0.30400505451E+02  0.74071203693E+02 -0.15212538250E+03  0.17197370714E+03  0.47000000000E+01 0. -1.
<mgrwt>
<rscale>  0 0.27531503E+03</rscale>
<asrwt>0</asrwt>
<pdfrwt beam="1">  1       21 0.93684421E-02 0.27531503E+03</pdfrwt>
<pdfrwt beam="2">  1       21 0.47874666E-01 0.27531503E+03</pdfrwt>
<totfact> 0.37270955E+05</totfact>
</mgrwt>
</event>
<event>
 8    1  0.9974463E-006  0.3761821E+03  0.7546771E-02  0.1052354E+00
         21   -1    0    0  504  503  0.00000000000E+00  0.00000000000E+00  0.21605964978E+02  0.21605964978E+02  0.00000000000E+00 0.  1.
         21   -1    0    0  503  504 -0.00000000000E+00 -0.00000000000E+00 -0.16374296213E+04  0.16374296213E+04  0.00000000000E+00 0.  1.
         25    2    1    2    0    0 -0.12418073996E+03  0.63893091338E+02 -0.87782442799E+03  0.89760953215E+03  0.12499585002E+03 0.  0.
         25    2    1    2    0    0  0.12418073996E+03 -0.63893091338E+02 -0.73799922831E+03  0.76142605411E+03  0.12499436626E+03 0.  0.
          5    1    3    3  501    0 -0.14466648133E+03  0.73630087692E+02 -0.71945163589E+03  0.73755171142E+03  0.47000000000E+01 0.  1.
         -5    1    3    3    0  501  0.20485741370E+02 -0.97369963546E+01 -0.15837279211E+03  0.16005782073E+03  0.47000000000E+01 0.  1.
          5    1    4    4  502    0  0.23393536450E+02 -0.80705115382E+02 -0.37209343713E+03  0.38149205647E+03  0.47000000000E+01 0. -1.
         -5    1    4    4    0  502  0.10078720351E+03  0.16812024045E+02 -0.36590579118E+03  0.37993399764E+03  0.47000000000E+01 0. -1.
<mgrwt>
<rscale>  0 0.37618212E+03</rscale>
<asrwt>0</asrwt>
<pdfrwt beam="1">  1       21 0.33239946E-02 0.37618212E+03</pdfrwt>
<pdfrwt beam="2">  1       21 0.25191225E+00 0.37618212E+03</pdfrwt>
<totfact> 0.31045875E+04</totfact>
</mgrwt>
</event>
<event>
 8    1  0.9974463E-006  0.3025015E+03  0.7546771E-02  0.1083997E+00
         21   -1    0    0  504  503  0.00000000000E+00  0.00000000000E+00  0.78938853171E+02  0.78938853171E+02  0.00000000000E+00 0.  1.
         21   -1    0    0  503  504 -0.00000000000E+00 -0.00000000000E+00 -0.28980384754E+03  0.28980384754E+03  0.00000000000E+00 0.  1.
         25    2    1    2    0    0 -0.70261389670E+02 -0.47952000515E+02 -0.99337550773E+02  0.18091265714E+03  0.12500153314E+03 0.  0.
         25    2    1    2    0    0  0.70261389670E+02  0.47952000515E+02 -0.11152744360E+03  0.18783004357E+03  0.12492276559E+03 0.  0.
          5    1    3    3  501    0  0.77632323397E+00 -0.27172287355E+02  0.24283201019E+02  0.36751867022E+02  0.47000000000E+01 0.  1.
         -5    1    3    3    0  501 -0.71037712904E+02 -0.20779713160E+02 -0.12362075179E+03  0.14416079012E+03  0.47000000000E+01 0.  1.
          5    1    4    4  502    0 -0.65007844079E+01 -0.31083393937E+02 -0.55550282502E+02  0.64158876725E+02  0.47000000000E+01 0. -1.
         -5    1    4    4    0  502  0.76762174078E+02  0.79035394452E+02 -0.55977161095E+02  0.12367116685E+03  0.47000000000E+01 0. -1.
<mgrwt>
<rscale>  0 0.30250146E+03</rscale>
<asrwt>0</asrwt>
<pdfrwt beam="1">  1       21 0.12144439E-01 0.30250146E+03</pdfrwt>
<pdfrwt beam="2">  1       21 0.44585206E-01 0.30250146E+03</pdfrwt>
<totfact> 0.27011978E+05</totfact>
</mgrwt>
</event>
<event>
 8    1  0.9974463E-006  0.3347308E+03  0.7546771E-02  0.1069063E+00
         21   -1    0    0  504  503  0.00000000000E+00  0.00000000000E+00  0.77407549134E+02  0.77407549134E+02  0.00000000000E+00 0.  1.
         21   -1    0    0  503  504 -0.00000000000E+00 -0.00000000000E+00 -0.36186619994E+03  0.36186619994E+03  0.00000000000E+00 0.  1.
         25    2    1    2    0    0 -0.87476385203E+01  0.76724635937E+02 -0.37059686878E+02  0.15153338947E+03  0.12500302714E+03 0.  0.
         25    2    1    2    0    0  0.87476385203E+01 -0.76724635937E+02 -0.24739896393E+03  0.28774035961E+03  0.12500030502E+03 0.  0.
          5    1    3    3  501    0 -0.14391433811E+02  0.94973673480E+02  0.13654845194E+02  0.97137309097E+02  0.47000000000E+01 0.  1.
         -5    1    3    3    0  501  0.56437952910E+01 -0.18249037542E+02 -0.50714532072E+02  0.54396080372E+02  0.47000000000E+01 0.  1.
          5    1    4    4  502    0  0.17949354813E+01 -0.10922182113E+03 -0.15707876751E+03  0.19138562435E+03  0.47000000000E+01 0. -1.
         -5    1    4    4    0  502  0.69527030390E+01  0.32497185197E+02 -0.90320196422E+02  0.96354735259E+02  0.47000000000E+01 0. -1.
<mgrwt>
<rscale>  0 0.33473079E+03</rscale>
<asrwt>0</asrwt>
<pdfrwt beam="1">  1       21 0.11908854E-01 0.33473079E+03</pdfrwt>
<pdfrwt beam="2">  1       21 0.55671724E-01 0.33473079E+03</pdfrwt>
<totfact> 0.17399687E+05</totfact>
</mgrwt>
</event>
<event>
 8    1  0.9974463E-006  0.3308232E+03  0.7546771E-02  0.1070773E+00
         21   -1    0    0  504  503  0.00000000000E+00  0.00000000000E+00  0.10007884575E+03  0.10007884575E+03  0.00000000000E+00 0.  1.
         21   -1    0    0  503  504 -0.00000000000E+00 -0.00000000000E+00 -0.27339443896E+03  0.27339443896E+03  0.00000000000E+00 0.  1.
         25    2    1    2    0    0 -0.54220844499E+02  0.81222007105E+02 -0.13960331960E+03  0.21130770675E+03  0.12499978269E+03 0.  0.
         25    2    1    2    0    0  0.54220844499E+02 -0.81222007105E+02 -0.33712273614E+02  0.16216557796E+03  0.12499697143E+03 0.  0.
          5    1    3    3  501    0 -0.58013659575E+02  0.37651002553E+02 -0.47738643888E+01  0.69484260604E+02  0.47000000000E+01 0.  1.
         -5    1    3    3    0  501  0.37928150761E+01  0.43571004552E+02 -0.13482945521E+03  0.14182344614E+03  0.47000000000E+01 0.  1.
          5    1    4    4  502    0 -0.12911753170E+02  0.20055464001E+02 -0.32468621326E+02  0.40561513495E+02  0.47000000000E+01 0.  1.
         -5    1    4    4    0  502  0.67132597669E+02 -0.10127747111E+03 -0.12436522882E+01  0.12160406447E+03  0.47000000000E+01 0.  1.
<mgrwt>
<rscale>  0 0.33082321E+03</rscale>
<asrwt>0</asrwt>
<pdfrwt beam="1">  1       21 0.15396746E-01 0.33082321E+03</pdfrwt>
<pdfrwt beam="2">  1       21 0.42060683E-01 0.33082321E+03</pdfrwt>
<totfact> 0.19634280E+05</totfact>
</mgrwt>
</event>
<event>
 8    1  0.9974463E-006  0.2705360E+03  0.7546771E-02  0.1100973E+00
         21   -1    0    0  504  503  0.00000000000E+00  0.00000000000E+00  0.32712110541E+03  0.32712110541E+03  0.00000000000E+00 0. -1.
         21   -1    0    0  503  504 -0.00000000000E+00 -0.00000000000E+00 -0.55934742373E+02  0.55934742373E+02  0.00000000000E+00 0. -1.
         25    2    1    2    0    0  0.49040634480E+02 -0.68800429029E+01  0.15659477036E+03  0.20639555919E+03  0.12499954372E+03 0.  0.
         25    2    1    2    0    0 -0.49040634480E+02  0.68800429029E+01  0.11459159268E+03  0.17666028859E+03  0.12500122252E+03 0.  0.
          5    1    3    3  501    0 -0.40464590534E+02 -0.17037773361E+02  0.55109084633E+02  0.70617066048E+02  0.47000000000E+01 0. -1.
         -5    1    3    3    0  501  0.89505225014E+02  0.10157730458E+02  0.10148568573E+03  0.13577849314E+03  0.47000000000E+01 0. -1.
          5    1    4    4  502    0  0.22377049613E+02  0.22817034726E+02  0.95608373944E+02  0.10091779125E+03  0.47000000000E+01 0. -1.
         -5    1    4    4    0  502 -0.71417684093E+02 -0.15936991823E+02  0.18983218734E+02  0.75742497338E+02  0.47000000000E+01 0. -1.
<mgrwt>
<rscale>  0 0.27053602E+03</rscale>
<asrwt>0</asrwt>
<pdfrwt beam="1">  1       21 0.50326323E-01 0.27053602E+03</pdfrwt>
<pdfrwt beam="2">  1       21 0.86053452E-02 0.27053602E+03</pdfrwt>
<totfact> 0.39039406E+05</totfact>
</mgrwt>
</event>
<event>
 8    1  0.9974463E-006  0.3327143E+03  0.7546771E-02  0.1069942E+00
         21   -1    0    0  504  503  0.00000000000E+00  0.00000000000E+00  0.18004554097E+03  0.18004554097E+03  0.00000000000E+00 0. -1.
         21   -1    0    0  503  504 -0.00000000000E+00 -0.00000000000E+00 -0.15370945679E+03  0.15370945679E+03  0.00000000000E+00 0. -1.
         25    2    1    2    0    0 -0.42300108383E+02 -0.91298481514E+02 -0.30845323271E+02  0.16340093730E+03  0.12499488168E+03 0.  0.
         25    2    1    2    0    0  0.42300108383E+02  0.91298481514E+02  0.57181407452E+02  0.17035406046E+03  0.12500432257E+03 0.  0.
          5    1    3    3  501    0  0.56195045039E+00 -0.71768389219E+02 -0.71194682022E+02  0.10120173036E+03  0.47000000000E+01 0. -1.
         -5    1    3    3    0  501 -0.42862058834E+02 -0.19530092295E+02  0.40349358751E+02  0.62199206941E+02  0.47000000000E+01 0. -1.
          5    1    4    4  502    0 -0.36158088415E+02  0.53289884268E+02 -0.24662014986E+01  0.64617267607E+02  0.47000000000E+01 0.  1.
         -5    1    4    4    0  502  0.78458196798E+02  0.38008597246E+02  0.59647608951E+02  0.10573679285E+03  0.47000000000E+01 0.  1.
<mgrwt>
<rscale>  0 0.33271431E+03</rscale>
<asrwt>0</asrwt>
<pdfrwt beam="1">  1       21 0.27699314E-01 0.33271431E+03</pdfrwt>
<pdfrwt beam="2">  1       21 0.23647609E-01 0.33271431E+03</pdfrwt>
<totfact> 0.20217455E+05</totfact>
</mgrwt>
</event>
<event>
 8    1  0.9974463E-006  0.3203624E+03  0.7546771E-02  0.1075483E+00
         21   -1    0    0  504  503  0.00000000000E+00  0.00000000000E+00  0.49426304475E+03  0.49426304475E+03  0.00000000000E+00 0. -1.
         21   -1    0    0  503  504 -0.00000000000E+00 -0.00000000000E+00 -0.51911662559E+02  0.51911662559E+02  0.00000000000E+00 0. -1.
         25    2    1    2    0    0 -0.66603650514E+02 -0.35235304035E+02  0.10860134583E+03  0.18190647600E+03  0.12497256011E+03 0.  0.
         25    2    1    2    0    0  0.66603650514E+02  0.35235304035E+02  0.33375003636E+03  0.36426823131E+03  0.12499873865E+03 0.  0.
          5    1    3    3  501    0  0.92244732122E+01 -0.54464103604E+02  0.82320312416E+02  0.99247938637E+02  0.47000000000E+01 0.  1.
         -5    1    3    3    0  501 -0.75828123726E+02  0.19228799570E+02  0.26281033418E+02  0.82658537359E+02  0.47000000000E+01 0.  1.
          5    1    4    4  502    0  0.11182943727E+02  0.29563111941E+02  0.29385023984E+03  0.29558262681E+03  0.47000000000E+01 0. -1.
         -5    1    4    4    0  502  0.55420706787E+02  0.56721920936E+01  0.39899796518E+02  0.68685604505E+02  0.47000000000E+01 0. -1.
<mgrwt>
<rscale>  0 0.32036240E+03</rscale>
<asrwt>0</asrwt>
<pdfrwt beam="1">  1       21 0.76040465E-01 0.32036240E+03</pdfrwt>
<pdfrwt beam="2">  1       21 0.79864100E-02 0.32036240E+03</pdfrwt>
<totfact> 0.17894564E+05</totfact>
</mgrwt>
</event>
<event>
 8    1  0.9974463E-006  0.3307821E+03  0.7546771E-02  0.1070791E+00
         21   -1    0    0  504  503  0.00000000000E+00  0.00000000000E+00  0.96307102829E+02  0.96307102829E+02  0.00000000000E+00 0. -1.
         21   -1    0    0  503  504 -0.00000000000E+00 -0.00000000000E+00 -0.28403101533E+03  0.28403101533E+03  0.00000000000E+00 0. -1.
         25    2    1    2    0    0  0.75662193853E+01  0.10530326344E+03 -0.12162492520E+03  0.20387438375E+03  0.12500446773E+03 0.  0.
         25    2    1    2    0    0 -0.75662193853E+01 -0.10530326344E+03 -0.66098987292E+02  0.17646373440E+03  0.12499739386E+03 0.  0.
          5    1    3    3  501    0 -0.29961859025E+02  0.11197615004E+03 -0.11771028662E+03  0.16526999955E+03  0.47000000000E+01 0.  1.
         -5    1    3    3    0  501  0.37528078411E+02 -0.66728866028E+01 -0.39146385876E+01  0.38604384208E+02  0.47000000000E+01 0.  1.
          5    1    4    4  502    0  0.52087401431E+02 -0.77834454792E+02 -0.57662411550E+02  0.11008334772E+03  0.47000000000E+01 0.  1.
         -5    1    4    4    0  502 -0.59653620816E+02 -0.27468808647E+02 -0.84365757425E+01  0.66380386676E+02  0.47000000000E+01 0.  1.
<mgrwt>
<rscale>  0 0.33078213E+03</rscale>
<asrwt>0</asrwt>
<pdfrwt beam="1">  1       21 0.14816477E-01 0.33078213E+03</pdfrwt>
<pdfrwt beam="2">  1       21 0.43697079E-01 0.33078213E+03</pdfrwt>
<totfact> 0.19477616E+05</totfact>
</mgrwt>
</event>
<event>
 8    1  0.9974463E-006  0.2705420E+03  0.7546771E-02  0.1100970E+00
         21   -1    0    0  504  503  0.00000000000E+00  0.00000000000E+00  0.39211876488E+02  0.39211876488E+02  0.00000000000E+00 0.  1.
         21   -1    0    0  503  504 -0.00000000000E+00 -0.00000000000E+00 -0.46665045574E+03  0.46665045574E+03  0.00000000000E+00 0.  1.
         25    2    1    2    0    0 -0.51516402328E+01  0.51469844681E+02 -0.21041073277E+03  0.25014907489E+03  0.12500479548E+03 0.  0.
         25    2    1    2    0    0  0.51516402328E+01 -0.51469844681E+02 -0.21702784648E+03  0.25571325734E+03  0.12494998809E+03 0.  0.
          5    1    3    3  501    0  0.16355940804E+02 -0.38769097167E+02 -0.69345955859E+02  0.81249684853E+02  0.47000000000E+01 0.  1.
         -5    1    3    3    0  501 -0.21507581037E+02  0.90238941848E+02 -0.14106477691E+03  0.16889939003E+03  0.47000000000E+01 0.  1.
          5    1    4    4  502    0  0.21623178021E+02 -0.74050766403E+02 -0.64764642750E+02  0.10083465071E+03  0.47000000000E+01 0. -1.
         -5    1    4    4    0  502 -0.16471537788E+02  0.22580921722E+02 -0.15226320373E+03  0.15487860664E+03  0.47000000000E+01 0. -1.
<mgrwt>
<rscale>  0 0.27054197E+03</rscale>
<asrwt>0</asrwt>
<pdfrwt beam="1">  1       21 0.60325965E-02 0.27054197E+03</pdfrwt>
<pdfrwt beam="2">  1       21 0.71792376E-01 0.27054197E+03</pdfrwt>
<totfact> 0.33579599E+05</totfact>
</mgrwt>
</event>
<event>
 8    1  0.9974463E-006  0.2944303E+03  0.7546771E-02  0.1088058E+00
         21   -1    0    0  504  503  0.00000000000E+00  0.00000000000E+00  0.27145671612E+03  0.27145671612E+03  0.00000000000E+00 0. -1.
         21   -1    0    0  503  504 -0.00000000000E+00 -0.00000000000E+00 -0.79837026882E+02  0.79837026882E+02  0.00000000000E+00 0. -1.
         25    2    1    2    0    0  0.65743263243E+02 -0.37980706258E+02  0.75755319832E+02  0.16471143777E+03  0.12500511406E+03 0.  0.
         25    2    1    2    0    0 -0.65743263243E+02  0.37980706258E+02  0.11586436941E+03  0.18658230523E+03  0.12499477516E+03 0.  0.
          5    1    3    3  501    0  0.86667420389E+02 -0.62891613104E+02  0.35872798600E+02  0.11302895397E+03  0.47000000000E+01 0.  1.
         -5    1    3    3    0  501 -0.20924157146E+02  0.24910906846E+02  0.39882521232E+02  0.51682483803E+02  0.47000000000E+01 0.  1.
          5    1    4    4  502    0 -0.89748480271E+02  0.16030261801E+02  0.12277751485E+03  0.15299727827E+03  0.47000000000E+01 0. -1.
         -5    1    4    4    0  502  0.24005217028E+02  0.21950444456E+02 -0.69131454422E+01  0.33585026966E+02  0.47000000000E+01 0. -1.
<mgrwt>
<rscale>  0 0.29443028E+03</rscale>
<asrwt>0</asrwt>
<pdfrwt beam="1">  1       21 0.41762571E-01 0.29443028E+03</pdfrwt>
<pdfrwt beam="2">  1       21 0.12282620E-01 0.29443028E+03</pdfrwt>
<totfact> 0.30337132E+05</totfact>
</mgrwt>
</event>
<event>
 8    1  0.9974463E-006  0.2678250E+03  0.7546771E-02  0.1102531E+00
         21   -1    0    0  504  503  0.00000000000E+00  0.00000000000E+00  0.84580377042E+01  0.84580377042E+01  0.00000000000E+00 0.  1.
         21   -1    0    0  503  504 -0.00000000000E+00 -0.00000000000E+00 -0.21201801233E+04  0.21201801233E+04  0.00000000000E+00 0.  1.
         25    2    1    2    0    0 -0.16471633885E+02  0.19845579772E+02 -0.13779617286E+04  0.13838603422E+04  0.12500303791E+03 0.  0.
         25    2    1    2    0    0  0.16471633885E+02 -0.19845579772E+02 -0.73376035700E+03  0.74477781880E+03  0.12499830445E+03 0.  0.
          5    1    3    3  501    0 -0.64060359387E+02  0.38542968691E+02 -0.91457215069E+03  0.91763478514E+03  0.47000000000E+01 0.  1.
         -5    1    3    3    0  501  0.47588725502E+02 -0.18697388920E+02 -0.46338957790E+03  0.46622555706E+03  0.47000000000E+01 0.  1.
          5    1    4    4  502    0  0.12651337634E+02  0.13032575144E+02 -0.12059482829E+02  0.22303037572E+02  0.47000000000E+01 0.  1.
         -5    1    4    4    0  502  0.38202962508E+01 -0.32878154915E+02 -0.72170087417E+03  0.72247478123E+03  0.47000000000E+01 0.  1.
<mgrwt>
<rscale>  0 0.26782504E+03</rscale>
<asrwt>0</asrwt>
<pdfrwt beam="1">  1       21 0.13012357E-02 0.26782504E+03</pdfrwt>
<pdfrwt beam="2">  1       21 0.32618179E+00 0.26782504E+03</pdfrwt>
<totfact> 0.55877091E+04</totfact>
</mgrwt>
</event>
<event>
 8    1  0.9974463E-006  0.3360822E+03  0.7546771E-02  0.1068477E+00
         21   -1    0    0  504  503  0.00000000000E+00  0.00000000000E+00  0.22375554284E+03  0.22375554284E+03  0.00000000000E+00 0. -1.
         21   -1    0    0  503  504 -0.00000000000E+00 -0.00000000000E+00 -0.12619939913E+03  0.12619939913E+03  0.00000000000E+00 0. -1.
         25    2    1    2    0    0 -0.81822826157E+02  0.16681504534E+02  0.12699269349E+03  0.19677669962E+03  0.12498271017E+03 0.  0.
         25    2    1    2    0    0  0.81822826157E+02 -0.16681504534E+02 -0.29436549784E+02  0.15317824235E+03  0.12499526388E+03 0.  0.
          5    1    3    3  501    0 -0.11431484568E+03  0.12896085032E+02  0.11150482975E+03  0.16027978665E+03  0.47000000000E+01 0.  1.
         -5    1    3    3    0  501  0.32492019520E+02  0.37854195018E+01  0.15487863737E+02  0.36496912971E+02  0.47000000000E+01 0.  1.
          5    1    4    4  502    0  0.84133179350E+01 -0.19977354954E+02  0.43943347276E+02  0.49223839747E+02  0.47000000000E+01 0.  1.
         -5    1    4    4    0  502  0.73409508222E+02  0.32958504202E+01 -0.73379897060E+02  0.10395440260E+03  0.47000000000E+01 0.  1.
<mgrwt>
<rscale>  0 0.33608222E+03</rscale>
<asrwt>0</asrwt>
<pdfrwt beam="1">  1       21 0.34423930E-01 0.33608222E+03</pdfrwt>
<pdfrwt beam="2">  1       21 0.19415292E-01 0.33608222E+03</pdfrwt>
<totfact> 0.19121257E+05</totfact>
</mgrwt>
</event>
<event>
 8    1  0.9974463E-006  0.2671723E+03  0.7546771E-02  0.1102909E+00
         21   -1    0    0  504  503  0.00000000000E+00  0.00000000000E+00  0.10204006355E+03  0.10204006355E+03  0.00000000000E+00 0. -1.
         21   -1    0    0  503  504 -0.00000000000E+00 -0.00000000000E+00 -0.17488484328E+03  0.17488484328E+03  0.00000000000E+00 0. -1.
         25    2    1    2    0    0 -0.13955091317E+01  0.46974366246E+02 -0.39949684129E+02  0.13939137769E+03  0.12500176152E+03 0.  0.
         25    2    1    2    0    0  0.13955091317E+01 -0.46974366246E+02 -0.32895095601E+02  0.13753352914E+03  0.12499938317E+03 0.  0.
          5    1    3    3  501    0  0.69810297225E+01  0.85189381217E+02 -0.34393171395E+01  0.85673125019E+02  0.47000000000E+01 0.  1.
         -5    1    3    3    0  501 -0.83765388541E+01 -0.38215014971E+02 -0.36510366990E+02  0.53718252672E+02  0.47000000000E+01 0.  1.
          5    1    4    4  502    0  0.26262998026E+02 -0.79102966690E+01 -0.71714635162E+02  0.76924617355E+02  0.47000000000E+01 0. -1.
         -5    1    4    4    0  502 -0.24867488895E+02 -0.39064069577E+02  0.38819539561E+02  0.60608911784E+02  0.47000000000E+01 0. -1.
<mgrwt>
<rscale>  0 0.26717231E+03</rscale>
<asrwt>0</asrwt>
<pdfrwt beam="1">  1       21 0.15698471E-01 0.26717231E+03</pdfrwt>
<pdfrwt beam="2">  1       21 0.26905360E-01 0.26717231E+03</pdfrwt>
<totfact> 0.46810549E+05</totfact>
</mgrwt>
</event>
<event>
 8    1  0.9974463E-006  0.2993872E+03  0.7546771E-02  0.1085547E+00
         21   -1    0    0  504  503  0.00000000000E+00  0.00000000000E+00  0.11882148928E+03  0.11882148928E+03  0.00000000000E+00 0.  1.
         21   -1    0    0  503  504 -0.00000000000E+00 -0.00000000000E+00 -0.18858688163E+03  0.18858688163E+03  0.00000000000E+00 0.  1.
         25    2    1    2    0    0  0.39047205816E+02 -0.50411817022E+02 -0.88409455324E+02  0.16584263139E+03  0.12498604329E+03 0.  0.
         25    2    1    2    0    0 -0.39047205816E+02  0.50411817022E+02  0.18644062975E+02  0.14156573952E+03  0.12500888746E+03 0.  0.
          5    1    3    3  501    0  0.20120596136E+02  0.21252244142E+02 -0.86619852442E+02  0.91550997302E+02  0.47000000000E+01 0.  1.
         -5    1    3    3    0  501  0.18926609680E+02 -0.71664061164E+02 -0.17896028818E+01  0.74291634085E+02  0.47000000000E+01 0.  1.
          5    1    4    4  502    0 -0.19627135906E+02  0.68214032694E+02  0.59490242030E+02  0.92733799755E+02  0.47000000000E+01 0. -1.
         -5    1    4    4    0  502 -0.19420069909E+02 -0.17802215672E+02 -0.40846179055E+02  0.48831939768E+02  0.47000000000E+01 0. -1.
<mgrwt>
<rscale>  0 0.29938720E+03</rscale>
<asrwt>0</asrwt>
<pdfrwt beam="1">  1       21 0.18280229E-01 0.29938720E+03</pdfrwt>
<pdfrwt beam="2">  1       21 0.29013366E-01 0.29938720E+03</pdfrwt>
<totfact> 0.30279836E+05</totfact>
</mgrwt>
</event>
<event>
 8    1  0.9974463E-006  0.2545528E+03  0.7546771E-02  0.1110461E+00
         21   -1    0    0  504  503  0.00000000000E+00  0.00000000000E+00  0.62954535202E+02  0.62954535202E+02  0.00000000000E+00 0. -1.
         21   -1    0    0  503  504 -0.00000000000E+00 -0.00000000000E+00 -0.25731712257E+03  0.25731712257E+03  0.00000000000E+00 0. -1.
         25    2    1    2    0    0  0.39559969173E+01  0.19835200397E+02 -0.80900748260E+02  0.15026280270E+03  0.12499957488E+03 0.  0.
         25    2    1    2    0    0 -0.39559969173E+01 -0.19835200397E+02 -0.11346183911E+03  0.17000885507E+03  0.12498134574E+03 0.  0.
          5    1    3    3  501    0  0.14675772065E+02  0.67745458186E+02 -0.20813059535E+02  0.72526538851E+02  0.47000000000E+01 0. -1.
         -5    1    3    3    0  501 -0.10719775147E+02 -0.47910257789E+02 -0.60087688725E+02  0.77736263847E+02  0.47000000000E+01 0. -1.
          5    1    4    4  502    0 -0.49424218641E+00 -0.72624410815E+02 -0.56560756790E+02  0.92172439103E+02  0.47000000000E+01 0. -1.
         -5    1    4    4    0  502 -0.34617547309E+01  0.52789210418E+02 -0.56901082316E+02  0.77836415970E+02  0.47000000000E+01 0. -1.
<mgrwt>
<rscale>  0 0.25455278E+03</rscale>
<asrwt>0</asrwt>
<pdfrwt beam="1">  1       21 0.96853131E-02 0.25455278E+03</pdfrwt>
<pdfrwt beam="2">  1       21 0.39587250E-01 0.25455278E+03</pdfrwt>
<totfact> 0.52179379E+05</totfact>
</mgrwt>
</event>
<event>
 8    1  0.9974463E-006  0.3220418E+03  0.7546771E-02  0.1074713E+00
         21   -1    0    0  504  503  0.00000000000E+00  0.00000000000E+00  0.57343839671E+02  0.57343839671E+02  0.00000000000E+00 0.  1.
         21   -1    0    0  503  504 -0.00000000000E+00 -0.00000000000E+00 -0.45214505741E+03  0.45214505741E+03  0.00000000000E+00 0.  1.
         25    2    1    2    0    0 -0.89168357918E+02  0.24539377952E+02 -0.13121594232E+03  0.20345993867E+03  0.12500058400E+03 0.  0.
         25    2    1    2    0    0  0.89168357918E+02 -0.24539377952E+02 -0.26358527542E+03  0.30602895841E+03  0.12499339520E+03 0.  0.
          5    1    3    3  501    0 -0.91894984938E+01  0.34148200821E+02 -0.11598083808E+03  0.12134327877E+03  0.47000000000E+01 0. -1.
         -5    1    3    3    0  501 -0.79978859424E+02 -0.96088228690E+01 -0.15235104242E+02  0.82116659899E+02  0.47000000000E+01 0. -1.
          5    1    4    4  502    0 -0.82160421538E+01 -0.52880953444E+02 -0.99297243873E+02  0.11289787964E+03  0.47000000000E+01 0. -1.
         -5    1    4    4    0  502  0.97384400072E+02  0.28341575492E+02 -0.16428803154E+03  0.19313107877E+03  0.47000000000E+01 0. -1.
<mgrwt>
<rscale>  0 0.32204182E+03</rscale>
<asrwt>0</asrwt>
<pdfrwt beam="1">  1       21 0.88221292E-02 0.32204182E+03</pdfrwt>
<pdfrwt beam="2">  1       21 0.69560778E-01 0.32204182E+03</pdfrwt>
<totfact> 0.18334356E+05</totfact>
</mgrwt>
</event>
<event>
 8    1  0.9974463E-006  0.2937884E+03  0.7546771E-02  0.1088388E+00
         21   -1    0    0  504  503  0.00000000000E+00  0.00000000000E+00  0.21950378166E+02  0.21950378166E+02  0.00000000000E+00 0. -1.
         21   -1    0    0  503  504 -0.00000000000E+00 -0.00000000000E+00 -0.98303124229E+03  0.98303124229E+03  0.00000000000E+00 0. -1.
         25    2    1    2    0    0 -0.49769520840E+02  0.58873031691E+02 -0.46956048643E+03  0.49199064240E+03  0.12499881094E+03 0.  0.
         25    2    1    2    0    0  0.49769520840E+02 -0.58873031691E+02 -0.49152037770E+03  0.51299097805E+03  0.12499769120E+03 0.  0.
          5    1    3    3  501    0 -0.68065392027E+02  0.72455508863E+02 -0.22137836179E+03  0.24272034819E+03  0.47000000000E+01 0. -1.
         -5    1    3    3    0  501  0.18295871187E+02 -0.13582477172E+02 -0.24818212464E+03  0.24927029422E+03  0.47000000000E+01 0. -1.
          5    1    4    4  502    0  0.88278875528E+02 -0.24330109218E+02 -0.25936659869E+03  0.27509677678E+03  0.47000000000E+01 0.  1.
         -5    1    4    4    0  502 -0.38509354688E+02 -0.34542922473E+02 -0.23215377901E+03  0.23789420127E+03  0.47000000000E+01 0.  1.
<mgrwt>
<rscale>  0 0.29378841E+03</rscale>
<asrwt>0</asrwt>
<pdfrwt beam="1">  1       21 0.33769808E-02 0.29378841E+03</pdfrwt>
<pdfrwt beam="2">  1       21 0.15123560E+00 0.29378841E+03</pdfrwt>
<totfact> 0.14632037E+05</totfact>
</mgrwt>
</event>
<event>
 8    1  0.9974463E-006  0.2948187E+03  0.7546771E-02  0.1087860E+00
         21   -1    0    0  504  503  0.00000000000E+00  0.00000000000E+00  0.63305344635E+03  0.63305344635E+03  0.00000000000E+00 0. -1.
         21   -1    0    0  503  504 -0.00000000000E+00 -0.00000000000E+00 -0.34324924258E+02  0.34324924258E+02  0.00000000000E+00 0. -1.
         25    2    1    2    0    0 -0.16886185115E+02  0.64814344369E+02  0.39042311487E+03  0.41538099299E+03  0.12500047294E+03 0.  0.
         25    2    1    2    0    0  0.16886185115E+02 -0.64814344369E+02  0.20830540722E+03  0.25199737761E+03  0.12500197262E+03 0.  0.
          5    1    3    3  501    0 -0.18063820770E+02 -0.36173240644E+02  0.11048068514E+03  0.11774071831E+03  0.47000000000E+01 0.  1.
         -5    1    3    3    0  501  0.11776356550E+01  0.10098758501E+03  0.27994242973E+03  0.29764027469E+03  0.47000000000E+01 0.  1.
          5    1    4    4  502    0  0.26661710059E+02 -0.61923837120E+02  0.31029062394E+02  0.74365994245E+02  0.47000000000E+01 0. -1.
         -5    1    4    4    0  502 -0.97755249436E+01 -0.28905072485E+01  0.17727634483E+03  0.17763138336E+03  0.47000000000E+01 0. -1.
<mgrwt>
<rscale>  0 0.29481867E+03</rscale>
<asrwt>0</asrwt>
<pdfrwt beam="1">  1       21 0.97392830E-01 0.29481867E+03</pdfrwt>
<pdfrwt beam="2">  1       21 0.52807580E-02 0.29481867E+03</pdfrwt>
<totfact> 0.20783011E+05</totfact>
</mgrwt>
</event>
<event>
 8    1  0.9974463E-006  0.3946288E+03  0.7546771E-02  0.1045656E+00
         21   -1    0    0  504  503  0.00000000000E+00  0.00000000000E+00  0.96471597665E+02  0.96471597665E+02  0.00000000000E+00 0.  1.
         21   -1    0    0  503  504 -0.00000000000E+00 -0.00000000000E+00 -0.40356918495E+03  0.40356918495E+03  0.00000000000E+00 0.  1.
         25    2    1    2    0    0  0.14954597783E+03 -0.27834144921E+02 -0.13712168665E+03  0.23993264591E+03  0.12500631390E+03 0.  0.
         25    2    1    2    0    0 -0.14954597783E+03  0.27834144921E+02 -0.16997590064E+03  0.26010813671E+03  0.12500278747E+03 0.  0.
          5    1    3    3  501    0 -0.66605031242E+01 -0.11579149911E+02  0.15426208118E+02  0.20940317844E+02  0.47000000000E+01 0.  1.
         -5    1    3    3    0  501  0.15620648095E+03 -0.16254995009E+02 -0.15254789476E+03  0.21899232806E+03  0.47000000000E+01 0.  1.
          5    1    4    4  502    0 -0.12594655926E+03  0.22746202306E+02 -0.18949114394E+03  0.22871141016E+03  0.47000000000E+01 0.  1.
         -5    1    4    4    0  502 -0.23599418566E+02  0.50879426145E+01  0.19515243296E+02  0.31396726543E+02  0.47000000000E+01 0.  1.
<mgrwt>
<rscale>  0 0.39462876E+03</rscale>
<asrwt>0</asrwt>
<pdfrwt beam="1">  1       21 0.14841784E-01 0.39462876E+03</pdfrwt>
<pdfrwt beam="2">  1       21 0.62087568E-01 0.39462876E+03</pdfrwt>
<totfact> 0.90583245E+04</totfact>
</mgrwt>
</event>
<event>
 8    1  0.9974463E-006  0.6113411E+03  0.7546771E-02  0.9882152E-01
         21   -1    0    0  504  503  0.00000000000E+00  0.00000000000E+00  0.64214647168E+03  0.64214647168E+03  0.00000000000E+00 0.  1.
         21   -1    0    0  503  504 -0.00000000000E+00 -0.00000000000E+00 -0.14550338545E+03  0.14550338545E+03  0.00000000000E+00 0.  1.
         25    2    1    2    0    0 -0.74369957100E+02  0.23332389938E+03  0.76233066527E+02  0.28531469043E+03  0.12498823785E+03 0.  0.
         25    2    1    2    0    0  0.74369957100E+02 -0.23332389938E+03  0.42041001970E+03  0.50233516670E+03  0.12500041000E+03 0.  0.
          5    1    3    3  501    0 -0.75700102899E+02  0.21344117347E+03  0.22282459720E+02  0.22760983749E+03  0.47000000000E+01 0.  1.
         -5    1    3    3    0  501  0.13301457989E+01  0.19882725905E+02  0.53950606807E+02  0.57704852934E+02  0.47000000000E+01 0.  1.
          5    1    4    4  502    0  0.81506779010E+02 -0.15960730614E+03  0.19436171064E+03  0.26441711699E+03  0.47000000000E+01 0.  1.
         -5    1    4    4    0  502 -0.71368219108E+01 -0.73716593238E+02  0.22604830906E+03  0.23791804971E+03  0.47000000000E+01 0.  1.
<mgrwt>
<rscale>  0 0.61134110E+03</rscale>
<asrwt>0</asrwt>
<pdfrwt beam="1">  1       21 0.98791763E-01 0.61134110E+03</pdfrwt>
<pdfrwt beam="2">  1       21 0.22385137E-01 0.61134110E+03</pdfrwt>
<totfact> 0.13598423E+04</totfact>
</mgrwt>
</event>
<event>
 8    1  0.9974463E-006  0.3735941E+03  0.7546771E-02  0.1053327E+00
         21   -1    0    0  504  503  0.00000000000E+00  0.00000000000E+00  0.82965001053E+03  0.82965001053E+03  0.00000000000E+00 0. -1.
         21   -1    0    0  503  504 -0.00000000000E+00 -0.00000000000E+00 -0.42057667140E+02  0.42057667140E+02  0.00000000000E+00 0. -1.
         25    2    1    2    0    0  0.13303882121E+03  0.38010093536E+02  0.36850699296E+03  0.41299698839E+03  0.12500005360E+03 0.  0.
         25    2    1    2    0    0 -0.13303882121E+03 -0.38010093536E+02  0.41908535044E+03  0.45871068929E+03  0.12505546912E+03 0.  0.
          5    1    3    3  501    0  0.50279487100E+02  0.24227434762E+02  0.29825484231E+03  0.30346834494E+03  0.47000000000E+01 0.  1.
         -5    1    3    3    0  501  0.82759334110E+02  0.13782658774E+02  0.70252150648E+02  0.10952864345E+03  0.47000000000E+01 0.  1.
          5    1    4    4  502    0 -0.13544388500E+03 -0.91050673606E+01  0.40286579896E+03  0.42514808033E+03  0.47000000000E+01 0. -1.
         -5    1    4    4    0  502  0.24050637922E+01 -0.28905026176E+02  0.16219551480E+02  0.33562608961E+02  0.47000000000E+01 0. -1.
<mgrwt>
<rscale>  0 0.37359413E+03</rscale>
<asrwt>0</asrwt>
<pdfrwt beam="1">  1       21 0.12763845E+00 0.37359413E+03</pdfrwt>
<pdfrwt beam="2">  1       21 0.64704110E-02 0.37359413E+03</pdfrwt>
<totfact> 0.73408142E+04</totfact>
</mgrwt>
</event>
<event>
 8    1  0.9974463E-006  0.2965103E+03  0.7546771E-02  0.1086998E+00
         21   -1    0    0  504  503  0.00000000000E+00  0.00000000000E+00  0.88484170178E+03  0.88484170178E+03  0.00000000000E+00 0.  1.
         21   -1    0    0  503  504 -0.00000000000E+00 -0.00000000000E+00 -0.24840132693E+02  0.24840132693E+02  0.00000000000E+00 0.  1.
         25    2    1    2    0    0 -0.21023623396E+02 -0.54916624809E+02  0.59510634667E+03  0.61092895267E+03  0.12499917177E+03 0.  0.
         25    2    1    2    0    0  0.21023623396E+02  0.54916624809E+02  0.26489522241E+03  0.29875288180E+03  0.12500390836E+03 0.  0.
          5    1    3    3  501    0  0.35663767256E+02  0.80325788966E+01  0.70970273007E+02  0.79970596279E+02  0.47000000000E+01 0. -1.
         -5    1    3    3    0  501 -0.56687390652E+02 -0.62949203705E+02  0.52413607367E+03  0.53095835639E+03  0.47000000000E+01 0. -1.
          5    1    4    4  502    0 -0.25040106164E+02  0.72064760593E+02  0.95577627033E+02  0.12238263531E+03  0.47000000000E+01 0. -1.
         -5    1    4    4    0  502  0.46063729559E+02 -0.17148135784E+02  0.16931759538E+03  0.17637024649E+03  0.47000000000E+01 0. -1.
<mgrwt>
<rscale>  0 0.29651027E+03</rscale>
<asrwt>0</asrwt>
<pdfrwt beam="1">  1       21 0.13612947E+00 0.29651027E+03</pdfrwt>
<pdfrwt beam="2">  1       21 0.38215596E-02 0.29651027E+03</pdfrwt>
<totfact> 0.15677117E+05</totfact>
</mgrwt>
</event>
<event>
 8    1  0.9974463E-006  0.2529901E+03  0.7546771E-02  0.1111430E+00
         21   -1    0    0  504  503  0.00000000000E+00  0.00000000000E+00  0.16561654308E+03  0.16561654308E+03  0.00000000000E+00 0.  1.
         21   -1    0    0  503  504 -0.00000000000E+00 -0.00000000000E+00 -0.96614710374E+02  0.96614710374E+02  0.00000000000E+00 0.  1.
         25    2    1    2    0    0 -0.65914918343E+01  0.18264395046E+02  0.32897945834E+02  0.13068321701E+03  0.12497516744E+03 0.  0.
         25    2    1    2    0    0  0.65914918343E+01 -0.18264395046E+02  0.36103886868E+02  0.13154803644E+03  0.12499743739E+03 0.  0.
          5    1    3    3  501    0 -0.63600055195E+02  0.32934121662E+01  0.32275127199E+02  0.71551292233E+02  0.47000000000E+01 0. -1.
         -5    1    3    3    0  501  0.57008563360E+02  0.14970982880E+02  0.62281863520E+00  0.59131924777E+02  0.47000000000E+01 0. -1.
          5    1    4    4  502    0 -0.11811914137E+02  0.51949081925E+02  0.19613131949E+02  0.56964843310E+02  0.47000000000E+01 0.  1.
         -5    1    4    4    0  502  0.18403405971E+02 -0.70213476971E+02  0.16490754919E+02  0.74583193131E+02  0.47000000000E+01 0.  1.
<mgrwt>
<rscale>  0 0.25299007E+03</rscale>
<asrwt>0</asrwt>
<pdfrwt beam="1">  1       21 0.25479468E-01 0.25299007E+03</pdfrwt>
<pdfrwt beam="2">  1       21 0.14863802E-01 0.25299007E+03</pdfrwt>
<totfact> 0.57629689E+05</totfact>
</mgrwt>
</event>
<event>
 8    1  0.9974463E-006  0.3526817E+03  0.7546771E-02  0.1061520E+00
         21   -1    0    0  504  503  0.00000000000E+00  0.00000000000E+00  0.47227035224E+02  0.47227035224E+02  0.00000000000E+00 0. -1.
         21   -1    0    0  503  504 -0.00000000000E+00 -0.00000000000E+00 -0.65843836683E+03  0.65843836683E+03  0.00000000000E+00 0. -1.
         25    2    1    2    0    0 -0.11692216742E+02  0.70888424032E+02 -0.10245231980E+03  0.17687034832E+03  0.12499906276E+03 0.  0.
         25    2    1    2    0    0  0.11692216742E+02 -0.70888424032E+02 -0.50875901181E+03  0.52879505373E+03  0.12500640046E+03 0.  0.
          5    1    3    3  501    0  0.17216200646E+02  0.32003509255E+02 -0.11973201146E+03  0.12521368431E+03  0.47000000000E+01 0. -1.
         -5    1    3    3    0  501 -0.28908417388E+02  0.38884914777E+02  0.17279691667E+02  0.51656664015E+02  0.47000000000E+01 0. -1.
          5    1    4    4  502    0  0.57048876775E+02  0.40918092694E+00 -0.16059030217E+03  0.17048776180E+03  0.47000000000E+01 0. -1.
         -5    1    4    4    0  502 -0.45356660033E+02 -0.71297604959E+02 -0.34816870964E+03  0.35830729193E+03  0.47000000000E+01 0. -1.
<mgrwt>
<rscale>  0 0.35268168E+03</rscale>
<asrwt>0</asrwt>
<pdfrwt beam="1">  1       21 0.72656979E-02 0.35268168E+03</pdfrwt>
<pdfrwt beam="2">  1       21 0.10129821E+00 0.35268168E+03</pdfrwt>
<totfact> 0.10717108E+05</totfact>
</mgrwt>
</event>
<event>
 8    1  0.9974463E-006  0.3034201E+03  0.7546771E-02  0.1083543E+00
         21   -1    0    0  504  503  0.00000000000E+00  0.00000000000E+00  0.25365571739E+02  0.25365571739E+02  0.00000000000E+00 0.  1.
         21   -1    0    0  503  504 -0.00000000000E+00 -0.00000000000E+00 -0.90736932787E+03  0.90736932787E+03  0.00000000000E+00 0.  1.
         25    2    1    2    0    0 -0.14002365989E+02 -0.65317851804E+02 -0.27465152379E+03  0.30906546040E+03  0.12500204509E+03 0.  0.
         25    2    1    2    0    0  0.14002365989E+02  0.65317851804E+02 -0.60735223234E+03  0.62366943921E+03  0.12499738898E+03 0.  0.
          5    1    3    3  501    0  0.48485189792E+02 -0.59039688792E+02 -0.17733869692E+03  0.19315175875E+03  0.47000000000E+01 0. -1.
         -5    1    3    3    0  501 -0.62487555781E+02 -0.62781630117E+01 -0.97312826869E+02  0.11591370166E+03  0.47000000000E+01 0. -1.
          5    1    4    4  502    0  0.31876823011E+02  0.89714607255E+02 -0.55416832590E+03  0.56230727012E+03  0.47000000000E+01 0.  1.
         -5    1    4    4    0  502 -0.17874457022E+02 -0.24396755452E+02 -0.53183906444E+02  0.61362169087E+02  0.47000000000E+01 0.  1.
<mgrwt>
<rscale>  0 0.30342012E+03</rscale>
<asrwt>0</asrwt>
<pdfrwt beam="1">  1       21 0.39023954E-02 0.30342012E+03</pdfrwt>
<pdfrwt beam="2">  1       21 0.13959529E+00 0.30342012E+03</pdfrwt>
<totfact> 0.14141912E+05</totfact>
</mgrwt>
</event>
<event>
 8    1  0.9974463E-006  0.4173067E+03  0.7546771E-02  0.1037946E+00
         21   -1    0    0  504  503  0.00000000000E+00  0.00000000000E+00  0.29375532863E+03  0.29375532863E+03  0.00000000000E+00 0. -1.
         21   -1    0    0  503  504 -0.00000000000E+00 -0.00000000000E+00 -0.14820573221E+03  0.14820573221E+03  0.00000000000E+00 0. -1.
         25    2    1    2    0    0 -0.54750533314E+02 -0.49551775258E+02 -0.85939691243E+02  0.16871238840E+03  0.12500096055E+03 0.  0.
         25    2    1    2    0    0  0.54750533314E+02  0.49551775258E+02  0.23148928767E+03  0.27324867244E+03  0.12499818941E+03 0.  0.
          5    1    3    3  501    0 -0.49258713704E+02  0.17918601400E+02  0.75782756402E+01  0.53169703907E+02  0.47000000000E+01 0. -1.
         -5    1    3    3    0  501 -0.54918196100E+01 -0.67470376658E+02 -0.93517966883E+02  0.11554268449E+03  0.47000000000E+01 0. -1.
          5    1    4    4  502    0 -0.24093576040E+02 -0.26084771878E+02  0.57887140785E+02  0.68072952033E+02  0.47000000000E+01 0.  1.
         -5    1    4    4    0  502  0.78844109354E+02  0.75636547136E+02  0.17360214688E+03  0.20517572041E+03  0.47000000000E+01 0.  1.
<mgrwt>
<rscale>  0 0.41730671E+03</rscale>
<asrwt>0</asrwt>
<pdfrwt beam="1">  1       21 0.45193127E-01 0.41730671E+03</pdfrwt>
<pdfrwt beam="2">  1       21 0.22800882E-01 0.41730671E+03</pdfrwt>
<totfact> 0.79250441E+04</totfact>
</mgrwt>
</event>
<event>
 8    1  0.9974463E-006  0.2688266E+03  0.7546771E-02  0.1101953E+00
         21   -1    0    0  504  503  0.00000000000E+00  0.00000000000E+00  0.11808390079E+03  0.11808390079E+03  0.00000000000E+00 0.  1.
         21   -1    0    0  503  504 -0.00000000000E+00 -0.00000000000E+00 -0.15300078704E+03  0.15300078704E+03  0.00000000000E+00 0.  1.
         25    2    1    2    0    0 -0.39467325322E+02  0.97981496595E+01  0.10780320987E+02  0.13191933682E+03  0.12503128649E+03 0.  0.
         25    2    1    2    0    0  0.39467325322E+02 -0.97981496595E+01 -0.45697207232E+02  0.13916535102E+03  0.12500034668E+03 0.  0.
          5    1    3    3  501    0 -0.63136605408E+02 -0.38095069139E+02  0.22070598818E+02  0.77114632641E+02  0.47000000000E+01 0.  1.
         -5    1    3    3    0  501  0.23669280086E+02  0.47893218798E+02 -0.11290277831E+02  0.54804704179E+02  0.47000000000E+01 0.  1.
          5    1    4    4  502    0  0.55841496790E+02 -0.12185302822E+02  0.27764970538E+02  0.63716072992E+02  0.47000000000E+01 0. -1.
         -5    1    4    4    0  502 -0.16374171468E+02  0.23871531622E+01 -0.73462177770E+02  0.75449278023E+02  0.47000000000E+01 0. -1.
<mgrwt>
<rscale>  0 0.26882656E+03</rscale>
<asrwt>0</asrwt>
<pdfrwt beam="1">  1       21 0.18166754E-01 0.26882656E+03</pdfrwt>
<pdfrwt beam="2">  1       21 0.23538583E-01 0.26882656E+03</pdfrwt>
<totfact> 0.46184335E+05</totfact>
</mgrwt>
</event>
<event>
 8    1  0.9974463E-006  0.5936276E+03  0.7546771E-02  0.9918716E-01
         21   -1    0    0  504  503  0.00000000000E+00  0.00000000000E+00  0.26520261903E+03  0.26520261903E+03  0.00000000000E+00 0. -1.
         21   -1    0    0  503  504 -0.00000000000E+00 -0.00000000000E+00 -0.33219294667E+03  0.33219294667E+03  0.00000000000E+00 0. -1.
         25    2    1    2    0    0 -0.55897069866E+02  0.26334140385E+03 -0.32855323633E+02  0.29862618767E+03  0.12499980108E+03 0.  0.
         25    2    1    2    0    0  0.55897069866E+02 -0.26334140385E+03 -0.34135004014E+02  0.29876937803E+03  0.12499906140E+03 0.  0.
          5    1    3    3  501    0 -0.31859394075E+02  0.33774497840E+02 -0.48399787843E+02  0.67233675776E+02  0.47000000000E+01 0.  1.
         -5    1    3    3    0  501 -0.24037675792E+02  0.22956690601E+03  0.15544464211E+02  0.23139251189E+03  0.47000000000E+01 0.  1.
          5    1    4    4  502    0 -0.23240007975E+02 -0.92639554699E+02 -0.53481605119E+02  0.10956530998E+03  0.47000000000E+01 0.  1.
         -5    1    4    4    0  502  0.79137077841E+02 -0.17070184915E+03  0.19346601105E+02  0.18920406805E+03  0.47000000000E+01 0.  1.
<mgrwt>
<rscale>  0 0.59362763E+03</rscale>
<asrwt>0</asrwt>
<pdfrwt beam="1">  1       21 0.40800403E-01 0.59362763E+03</pdfrwt>
<pdfrwt beam="2">  1       21 0.51106607E-01 0.59362763E+03</pdfrwt>
<totfact> 0.18431336E+04</totfact>
</mgrwt>
</event>
<event>
 8    1  0.9974463E-006  0.3470053E+03  0.7546771E-02  0.1063851E+00
         21   -1    0    0  504  503  0.00000000000E+00  0.00000000000E+00  0.63075451286E+02  0.63075451286E+02  0.00000000000E+00 0.  1.
         21   -1    0    0  503  504 -0.00000000000E+00 -0.00000000000E+00 -0.47725652408E+03  0.47725652408E+03  0.00000000000E+00 0.  1.
         25    2    1    2    0    0 -0.10980967840E+03  0.16755838228E+02 -0.13508047883E+03  0.21496806824E+03  0.12500244404E+03 0.  0.
         25    2    1    2    0    0  0.10980967840E+03 -0.16755838228E+02 -0.27910059397E+03  0.32536390713E+03  0.12500242766E+03 0.  0.
          5    1    3    3  501    0 -0.12384645138E+03  0.21858354264E+02 -0.14828231968E+03  0.19448770527E+03  0.47000000000E+01 0.  1.
         -5    1    3    3    0  501  0.14036772972E+02 -0.51025160366E+01  0.13201840857E+02  0.20480362970E+02  0.47000000000E+01 0.  1.
          5    1    4    4  502    0  0.91563324068E+02 -0.16153176388E+02 -0.72739478427E+02  0.11814351080E+03  0.47000000000E+01 0. -1.
         -5    1    4    4    0  502  0.18246354337E+02 -0.60266183964E+00 -0.20636111554E+03  0.20722039633E+03  0.47000000000E+01 0. -1.
<mgrwt>
<rscale>  0 0.34700531E+03</rscale>
<asrwt>0</asrwt>
<pdfrwt beam="1">  1       21 0.97039160E-02 0.34700531E+03</pdfrwt>
<pdfrwt beam="2">  1       21 0.73424077E-01 0.34700531E+03</pdfrwt>
<totfact> 0.13631170E+05</totfact>
</mgrwt>
</event>
<event>
 8    1  0.9974463E-006  0.3962719E+03  0.7546771E-02  0.1045078E+00
         21   -1    0    0  504  503  0.00000000000E+00  0.00000000000E+00  0.75643716926E+02  0.75643716926E+02  0.00000000000E+00 0.  1.
         21   -1    0    0  503  504 -0.00000000000E+00 -0.00000000000E+00 -0.51898355448E+03  0.51898355448E+03  0.00000000000E+00 0.  1.
         25    2    1    2    0    0  0.25371645916E+02 -0.13899563619E+02 -0.44822889794E+03  0.46623097355E+03  0.12500102985E+03 0.  0.
         25    2    1    2    0    0 -0.25371645916E+02  0.13899563619E+02  0.48890603861E+01  0.12839629786E+03  0.12499915242E+03 0.  0.
          5    1    3    3  501    0  0.63115380007E+02 -0.39069471149E+02 -0.35157423383E+03  0.35935568266E+03  0.47000000000E+01 0.  1.
         -5    1    3    3    0  501 -0.37743734091E+02  0.25169907529E+02 -0.96654664116E+02  0.10687529089E+03  0.47000000000E+01 0.  1.
          5    1    4    4  502    0 -0.20187652607E+01 -0.50706734889E+02  0.24855215190E+02  0.56702029050E+02  0.47000000000E+01 0.  1.
         -5    1    4    4    0  502 -0.23352880656E+02  0.64606298508E+02 -0.19966154804E+02  0.71694268805E+02  0.47000000000E+01 0.  1.
<mgrwt>
<rscale>  0 0.39627185E+03</rscale>
<asrwt>0</asrwt>
<pdfrwt beam="1">  1       21 0.11637495E-01 0.39627185E+03</pdfrwt>
<pdfrwt beam="2">  1       21 0.79843620E-01 0.39627185E+03</pdfrwt>
<totfact> 0.80289660E+04</totfact>
</mgrwt>
</event>
<event>
 8    1  0.9974463E-006  0.2866455E+03  0.7546771E-02  0.1092114E+00
         21   -1    0    0  504  503  0.00000000000E+00  0.00000000000E+00  0.72195195318E+02  0.72195195318E+02  0.00000000000E+00 0. -1.
         21   -1    0    0  503  504 -0.00000000000E+00 -0.00000000000E+00 -0.28452591777E+03  0.28452591777E+03  0.00000000000E+00 0. -1.
         25    2    1    2    0    0 -0.25895299659E+01 -0.69944329863E+02 -0.10090205542E+03  0.17523074285E+03  0.12500269399E+03 0.  0.
         25    2    1    2    0    0  0.25895299659E+01  0.69944329863E+02 -0.11142866703E+03  0.18149037024E+03  0.12499396669E+03 0.  0.
          5    1    3    3  501    0  0.24954276069E+02  0.29676078728E+02 -0.19932954934E+02  0.43849723319E+02  0.47000000000E+01 0. -1.
         -5    1    3    3    0  501 -0.27543806035E+02 -0.99620408591E+02 -0.80969100487E+02  0.13138101953E+03  0.47000000000E+01 0. -1.
          5    1    4    4  502    0 -0.18155748151E+02  0.28589004936E+02  0.21684169998E+02  0.40487721876E+02  0.47000000000E+01 0.  1.
         -5    1    4    4    0  502  0.20745278117E+02  0.41355324927E+02 -0.13311283703E+03  0.14100264837E+03  0.47000000000E+01 0.  1.
<mgrwt>
<rscale>  0 0.28664545E+03</rscale>
<asrwt>0</asrwt>
<pdfrwt beam="1">  1       21 0.11106953E-01 0.28664545E+03</pdfrwt>
<pdfrwt beam="2">  1       21 0.43773219E-01 0.28664545E+03</pdfrwt>
<totfact> 0.33062408E+05</totfact>
</mgrwt>
</event>
<event>
 8    1  0.9974463E-006  0.3731702E+03  0.7546771E-02  0.1053487E+00
         21   -1    0    0  504  503  0.00000000000E+00  0.00000000000E+00  0.76430575892E+02  0.76430575892E+02  0.00000000000E+00 0.  1.
         21   -1    0    0  503  504 -0.00000000000E+00 -0.00000000000E+00 -0.45549840179E+03  0.45549840179E+03  0.00000000000E+00 0.  1.
         25    2    1    2    0    0  0.11885458866E+03  0.53495494565E+02 -0.25640669171E+03  0.31362102812E+03  0.12500230616E+03 0.  0.
         25    2    1    2    0    0 -0.11885458866E+03 -0.53495494565E+02 -0.12266113419E+03  0.21830794956E+03  0.12499770325E+03 0.  0.
          5    1    3    3  501    0  0.12085472202E+03  0.28782850574E+02 -0.11297822630E+03  0.16798954116E+03  0.47000000000E+01 0. -1.
         -5    1    3    3    0  501 -0.20001333607E+01  0.24712643992E+02 -0.14342846541E+03  0.14563148696E+03  0.47000000000E+01 0. -1.
          5    1    4    4  502    0 -0.10959228584E+03 -0.79577232617E+02 -0.13154419317E+03  0.18886230387E+03  0.47000000000E+01 0.  1.
         -5    1    4    4    0  502 -0.92623028171E+01  0.26081738052E+02  0.88830589803E+01  0.29445645690E+02  0.47000000000E+01 0.  1.
<mgrwt>
<rscale>  0 0.37317023E+03</rscale>
<asrwt>0</asrwt>
<pdfrwt beam="1">  1       21 0.11758550E-01 0.37317023E+03</pdfrwt>
<pdfrwt beam="2">  1       21 0.70076677E-01 0.37317023E+03</pdfrwt>
<totfact> 0.10654069E+05</totfact>
</mgrwt>
</event>
<event>
 8    1  0.9974463E-006  0.2920514E+03  0.7546771E-02  0.1089283E+00
         21   -1    0    0  504  503  0.00000000000E+00  0.00000000000E+00  0.68283119321E+02  0.68283119321E+02  0.00000000000E+00 0. -1.
         21   -1    0    0  503  504 -0.00000000000E+00 -0.00000000000E+00 -0.31228080112E+03  0.31228080112E+03  0.00000000000E+00 0. -1.
         25    2    1    2    0    0  0.47316871130E+02  0.48541000224E+02 -0.78726899521E+02  0.16253562186E+03  0.12499915468E+03 0.  0.
         25    2    1    2    0    0 -0.47316871130E+02 -0.48541000224E+02 -0.16527078228E+03  0.21802829858E+03  0.12500716983E+03 0.  0.
          5    1    3    3  501    0 -0.75723347586E+01 -0.35751533455E+02 -0.38428430133E+01  0.37045510396E+02  0.47000000000E+01 0.  1.
         -5    1    3    3    0  501  0.54889205889E+02  0.84292533679E+02 -0.74884056508E+02  0.12549011147E+03  0.47000000000E+01 0.  1.
          5    1    4    4  502    0 -0.84795434798E+02 -0.53490295527E+02 -0.14020386874E+03  0.17242590376E+03  0.47000000000E+01 0. -1.
         -5    1    4    4    0  502  0.37478563667E+02  0.49492953024E+01 -0.25066913534E+02  0.45602394813E+02  0.47000000000E+01 0. -1.
<mgrwt>
<rscale>  0 0.29205141E+03</rscale>
<asrwt>0</asrwt>
<pdfrwt beam="1">  1       21 0.10505095E-01 0.29205141E+03</pdfrwt>
<pdfrwt beam="2">  1       21 0.48043200E-01 0.29205141E+03</pdfrwt>
<totfact> 0.30071835E+05</totfact>
</mgrwt>
</event>
<event>
 8    1  0.9974463E-006  0.2885223E+03  0.7546771E-02  0.1091123E+00
         21   -1    0    0  504  503  0.00000000000E+00  0.00000000000E+00  0.28938615651E+02  0.28938615651E+02  0.00000000000E+00 0.  1.
         21   -1    0    0  503  504 -0.00000000000E+00 -0.00000000000E+00 -0.71915238306E+03  0.71915238306E+03  0.00000000000E+00 0.  1.
         25    2    1    2    0    0 -0.16869771901E+02 -0.61425415167E+02 -0.25784543359E+03  0.29354171113E+03  0.12499919088E+03 0.  0.
         25    2    1    2    0    0  0.16869771901E+02  0.61425415167E+02 -0.43236833383E+03  0.45454928758E+03  0.12496002526E+03 0.  0.
          5    1    3    3  501    0 -0.19815024960E+02 -0.58556799039E+02 -0.27152041834E+03  0.27850845859E+03  0.47000000000E+01 0. -1.
         -5    1    3    3    0  501  0.29452530593E+01 -0.28686161286E+01  0.13674984755E+02  0.15033252546E+02  0.47000000000E+01 0. -1.
          5    1    4    4  502    0  0.51576375867E+01  0.15629873196E+02  0.23198524413E+01  0.17273270592E+02  0.47000000000E+01 0. -1.
         -5    1    4    4    0  502  0.11712134314E+02  0.45795541971E+02 -0.43468818627E+03  0.43727601699E+03  0.47000000000E+01 0. -1.
<mgrwt>
<rscale>  0 0.28852227E+03</rscale>
<asrwt>0</asrwt>
<pdfrwt beam="1">  1       21 0.44520943E-02 0.28852227E+03</pdfrwt>
<pdfrwt beam="2">  1       21 0.11063884E+00 0.28852227E+03</pdfrwt>
<totfact> 0.20457047E+05</totfact>
</mgrwt>
</event>
<event>
 8    1  0.9974463E-006  0.2882816E+03  0.7546771E-02  0.1091250E+00
         21   -1    0    0  504  503  0.00000000000E+00  0.00000000000E+00  0.17666064216E+03  0.17666064216E+03  0.00000000000E+00 0. -1.
         21   -1    0    0  503  504 -0.00000000000E+00 -0.00000000000E+00 -0.11760721095E+03  0.11760721095E+03  0.00000000000E+00 0. -1.
         25    2    1    2    0    0  0.52578696602E+02  0.48752826405E+02  0.30912040842E+02  0.14741044205E+03  0.12503170293E+03 0.  0.
         25    2    1    2    0    0 -0.52578696602E+02 -0.48752826405E+02  0.28141390369E+02  0.14685741106E+03  0.12503521069E+03 0.  0.
          5    1    3    3  501    0 -0.23778980832E+02  0.25326725043E+02  0.53780852242E+02  0.64197764749E+02  0.47000000000E+01 0. -1.
         -5    1    3    3    0  501  0.76357677434E+02  0.23426101362E+02 -0.22868811401E+02  0.83212677298E+02  0.47000000000E+01 0. -1.
          5    1    4    4  502    0  0.11199245477E+02 -0.71572738600E+02  0.30905677571E+02  0.78900766258E+02  0.47000000000E+01 0.  1.
         -5    1    4    4    0  502 -0.63777942079E+02  0.22819912194E+02 -0.27642872019E+01  0.67956644798E+02  0.47000000000E+01 0.  1.
<mgrwt>
<rscale>  0 0.28828157E+03</rscale>
<asrwt>0</asrwt>
<pdfrwt beam="1">  1       21 0.27178561E-01 0.28828157E+03</pdfrwt>
<pdfrwt beam="2">  1       21 0.18093417E-01 0.28828157E+03</pdfrwt>
<totfact> 0.35143254E+05</totfact>
</mgrwt>
</event>
<event>
 8    1  0.9974463E-006  0.4472594E+03  0.7546771E-02  0.1028542E+00
         21   -1    0    0  504  503  0.00000000000E+00  0.00000000000E+00  0.64206129859E+02  0.64206129859E+02  0.00000000000E+00 0. -1.
         21   -1    0    0  503  504 -0.00000000000E+00 -0.00000000000E+00 -0.77890153197E+03  0.77890153197E+03  0.00000000000E+00 0. -1.
         25    2    1    2    0    0  0.16081465537E+03 -0.86192282419E+02 -0.29498708065E+03  0.36869141720E+03  0.12500208173E+03 0.  0.
         25    2    1    2    0    0 -0.16081465537E+03  0.86192282419E+02 -0.41970832145E+03  0.47441624462E+03  0.12500094052E+03 0.  0.
          5    1    3    3  501    0  0.98790744937E+01  0.14646293579E+02  0.41587036231E+01  0.18748195761E+02  0.47000000000E+01 0.  1.
         -5    1    3    3    0  501  0.15093558088E+03 -0.10083857600E+03 -0.29914578428E+03  0.34994322144E+03  0.47000000000E+01 0.  1.
          5    1    4    4  502    0 -0.17302345908E+03  0.60322181973E+02 -0.30271422686E+03  0.35388398689E+03  0.47000000000E+01 0. -1.
         -5    1    4    4    0  502  0.12208803707E+02  0.25870100446E+02 -0.11699409459E+03  0.12053225774E+03  0.47000000000E+01 0. -1.
<mgrwt>
<rscale>  0 0.44725945E+03</rscale>
<asrwt>0</asrwt>
<pdfrwt beam="1">  1       21 0.98778664E-02 0.44725945E+03</pdfrwt>
<pdfrwt beam="2">  1       21 0.11983100E+00 0.44725945E+03</pdfrwt>
<totfact> 0.40039053E+04</totfact>
</mgrwt>
</event>
<event>
 8    1  0.9974463E-006  0.3008625E+03  0.7546771E-02  0.1084810E+00
         21   -1    0    0  504  503  0.00000000000E+00  0.00000000000E+00  0.88040737514E+01  0.88040737514E+01  0.00000000000E+00 0.  1.
         21   -1    0    0  503  504 -0.00000000000E+00 -0.00000000000E+00 -0.25703512048E+04  0.25703512048E+04  0.00000000000E+00 0.  1.
         25    2    1    2    0    0  0.78326773243E+02  0.22952895126E+02 -0.14394718134E+04  0.14471923740E+04  0.12499898857E+03 0.  0.
         25    2    1    2    0    0 -0.78326773243E+02 -0.22952895126E+02 -0.11220753177E+04  0.11319629045E+04  0.12500031953E+03 0.  0.
          5    1    3    3  501    0  0.39962936800E+02  0.14969036711E+02 -0.12573110371E+03  0.13285898095E+03  0.47000000000E+01 0. -1.
         -5    1    3    3    0  501  0.38363836442E+02  0.79838584156E+01 -0.13137407097E+04  0.13143333931E+04  0.47000000000E+01 0. -1.
          5    1    4    4  502    0 -0.79006186792E+02 -0.60273999516E+02 -0.57074120765E+03  0.57934665674E+03  0.47000000000E+01 0. -1.
         -5    1    4    4    0  502  0.67941354983E+00  0.37321104389E+02 -0.55133411003E+03  0.55261624778E+03  0.47000000000E+01 0. -1.
<mgrwt>
<rscale>  0 0.30086250E+03</rscale>
<asrwt>0</asrwt>
<pdfrwt beam="1">  1       21 0.13544718E-02 0.30086250E+03</pdfrwt>
<pdfrwt beam="2">  1       21 0.39543896E+00 0.30086250E+03</pdfrwt>
<totfact> 0.19391321E+04</totfact>
</mgrwt>
</event>
<event>
 8    1  0.9974463E-006  0.4584459E+03  0.7546771E-02  0.1025233E+00
         21   -1    0    0  504  503  0.00000000000E+00  0.00000000000E+00  0.39650846157E+02  0.39650846157E+02  0.00000000000E+00 0.  1.
         21   -1    0    0  503  504 -0.00000000000E+00 -0.00000000000E+00 -0.13251457709E+04  0.13251457709E+04  0.00000000000E+00 0.  1.
         25    2    1    2    0    0 -0.61995645026E+02 -0.13779946588E+03 -0.28942288700E+03  0.34960335381E+03  0.12499897868E+03 0.  0.
         25    2    1    2    0    0  0.61995645026E+02  0.13779946588E+03 -0.99607203778E+03  0.10151932633E+04  0.12500281832E+03 0.  0.
          5    1    3    3  501    0 -0.50897540092E+02  0.86061899801E+00 -0.43945363304E+02  0.67413538762E+02  0.47000000000E+01 0.  1.
         -5    1    3    3    0  501 -0.11098104935E+02 -0.13866008488E+03 -0.24547752370E+03  0.28218981504E+03  0.47000000000E+01 0.  1.
          5    1    4    4  502    0  0.44524382499E+01  0.13178159927E+03 -0.56330774372E+03  0.57855329767E+03  0.47000000000E+01 0. -1.
         -5    1    4    4    0  502  0.57543206776E+02  0.60178666166E+01 -0.43276429406E+03  0.43663996562E+03  0.47000000000E+01 0. -1.
<mgrwt>
<rscale>  0 0.45844586E+03</rscale>
<asrwt>0</asrwt>
<pdfrwt beam="1">  1       21 0.61001305E-02 0.45844586E+03</pdfrwt>
<pdfrwt beam="2">  1       21 0.20386857E+00 0.45844586E+03</pdfrwt>
<totfact> 0.21382073E+04</totfact>
</mgrwt>
</event>
<event>
 8    1  0.9974463E-006  0.3250155E+03  0.7546771E-02  0.1073364E+00
         21   -1    0    0  504  503  0.00000000000E+00  0.00000000000E+00  0.19000043690E+03  0.19000043690E+03  0.00000000000E+00 0.  1.
         21   -1    0    0  503  504 -0.00000000000E+00 -0.00000000000E+00 -0.13899317645E+03  0.13899317645E+03  0.00000000000E+00 0.  1.
         25    2    1    2    0    0  0.40116939592E+02  0.41006591261E+02  0.11312120193E+03  0.17808237187E+03  0.12500406184E+03 0.  0.
         25    2    1    2    0    0 -0.40116939592E+02 -0.41006591261E+02 -0.62113941485E+02  0.15091124147E+03  0.12500060682E+03 0.  0.
          5    1    3    3  501    0  0.37146152685E+02 -0.22938094227E+02  0.10446134774E+03  0.11331485338E+03  0.47000000000E+01 0. -1.
         -5    1    3    3    0  501  0.29707869066E+01  0.63944685487E+02  0.86598541994E+01  0.64767518492E+02  0.47000000000E+01 0. -1.
          5    1    4    4  502    0 -0.41723225685E+01 -0.64179798043E+02 -0.81327427698E+02  0.10379159527E+03  0.47000000000E+01 0.  1.
         -5    1    4    4    0  502 -0.35944617023E+02  0.23173206782E+02  0.19213486213E+02  0.47119646199E+02  0.47000000000E+01 0.  1.
<mgrwt>
<rscale>  0 0.32501547E+03</rscale>
<asrwt>0</asrwt>
<pdfrwt beam="1">  1       21 0.29230837E-01 0.32501547E+03</pdfrwt>
<pdfrwt beam="2">  1       21 0.21383566E-01 0.32501547E+03</pdfrwt>
<totfact> 0.22086527E+05</totfact>
</mgrwt>
</event>
<event>
 8    1  0.9974463E-006  0.2829652E+03  0.7546771E-02  0.1094080E+00
         21   -1    0    0  504  503  0.00000000000E+00  0.00000000000E+00  0.13604465356E+02  0.13604465356E+02  0.00000000000E+00 0.  1.
         21   -1    0    0  503  504 -0.00000000000E+00 -0.00000000000E+00 -0.14713790700E+04  0.14713790700E+04  0.00000000000E+00 0.  1.
         25    2    1    2    0    0  0.11979323294E+02 -0.64387827977E+02 -0.67468518577E+03  0.68928534273E+03  0.12499954886E+03 0.  0.
         25    2    1    2    0    0 -0.11979323294E+02  0.64387827977E+02 -0.78308941889E+03  0.79569819265E+03  0.12496911310E+03 0.  0.
          5    1    3    3  501    0 -0.38092571162E+02 -0.65271993317E+02 -0.23904768816E+03  0.25075359281E+03  0.47000000000E+01 0.  1.
         -5    1    3    3    0  501  0.50071894456E+02  0.88416533982E+00 -0.43563749761E+03  0.43853174992E+03  0.47000000000E+01 0.  1.
          5    1    4    4  502    0  0.31468028600E+02  0.47331217489E+02 -0.68057065164E+03  0.68295606216E+03  0.47000000000E+01 0.  1.
         -5    1    4    4    0  502 -0.43447351894E+02  0.17056610488E+02 -0.10251876725E+03  0.11274213049E+03  0.47000000000E+01 0.  1.
<mgrwt>
<rscale>  0 0.28296520E+03</rscale>
<asrwt>0</asrwt>
<pdfrwt beam="1">  1       21 0.20929954E-02 0.28296520E+03</pdfrwt>
<pdfrwt beam="2">  1       21 0.22636594E+00 0.28296520E+03</pdfrwt>
<totfact> 0.10011318E+05</totfact>
</mgrwt>
</event>
<event>
 8    1  0.9974463E-006  0.3232865E+03  0.7546771E-02  0.1074147E+00
         21   -1    0    0  504  503  0.00000000000E+00  0.00000000000E+00  0.25290736696E+03  0.25290736696E+03  0.00000000000E+00 0. -1.
         21   -1    0    0  503  504 -0.00000000000E+00 -0.00000000000E+00 -0.10331267315E+03  0.10331267315E+03  0.00000000000E+00 0. -1.
         25    2    1    2    0    0 -0.27104166359E+02  0.46092917257E+01  0.18357923198E+03  0.22377860076E+03  0.12497858353E+03 0.  0.
         25    2    1    2    0    0  0.27104166359E+02 -0.46092917257E+01 -0.33984538160E+02  0.13244143935E+03  0.12501961694E+03 0.  0.
          5    1    3    3  501    0 -0.50930052962E+02 -0.16275461831E+02  0.20294881350E+02  0.57382341897E+02  0.47000000000E+01 0.  1.
         -5    1    3    3    0  501  0.23825886604E+02  0.20884753556E+02  0.16328435063E+03  0.16639625886E+03  0.47000000000E+01 0.  1.
          5    1    4    4  502    0 -0.40461159710E+02  0.17691089784E+02 -0.41448236850E+02  0.60746410929E+02  0.47000000000E+01 0. -1.
         -5    1    4    4    0  502  0.67565326068E+02 -0.22300381510E+02  0.74636986894E+01  0.71695028421E+02  0.47000000000E+01 0. -1.
<mgrwt>
<rscale>  0 0.32328647E+03</rscale>
<asrwt>0</asrwt>
<pdfrwt beam="1">  1       21 0.38908826E-01 0.32328647E+03</pdfrwt>
<pdfrwt beam="2">  1       21 0.15894257E-01 0.32328647E+03</pdfrwt>
<totfact> 0.21750216E+05</totfact>
</mgrwt>
</event>
<event>
 8    1  0.9974463E-006  0.4543539E+03  0.7546771E-02  0.1026432E+00
         21   -1    0    0  504  503  0.00000000000E+00  0.00000000000E+00  0.71398357391E+02  0.71398357391E+02  0.00000000000E+00 0. -1.
         21   -1    0    0  503  504 -0.00000000000E+00 -0.00000000000E+00 -0.72283684163E+03  0.72283684163E+03  0.00000000000E+00 0. -1.
         25    2    1    2    0    0 -0.73416829250E+02 -0.34400730181E+02 -0.62550211699E+03  0.64300033269E+03  0.12499235345E+03 0.  0.
         25    2    1    2    0    0  0.73416829250E+02  0.34400730181E+02 -0.25936367247E+02  0.15123486634E+03  0.12500339434E+03 0.  0.
          5    1    3    3  501    0 -0.21624401133E+02 -0.72114620867E+02 -0.22322303769E+03  0.23562416647E+03  0.47000000000E+01 0.  1.
         -5    1    3    3    0  501 -0.51792428117E+02  0.37713890686E+02 -0.40227907930E+03  0.40737616622E+03  0.47000000000E+01 0.  1.
          5    1    4    4  502    0  0.54086683314E+02  0.11694273779E+02 -0.75183968729E+02  0.93471089139E+02  0.47000000000E+01 0. -1.
         -5    1    4    4    0  502  0.19330145936E+02  0.22706456402E+02  0.49247601482E+02  0.57763777196E+02  0.47000000000E+01 0. -1.
<mgrwt>
<rscale>  0 0.45435388E+03</rscale>
<asrwt>0</asrwt>
<pdfrwt beam="1">  1       21 0.10984363E-01 0.45435388E+03</pdfrwt>
<pdfrwt beam="2">  1       21 0.11120567E+00 0.45435388E+03</pdfrwt>
<totfact> 0.39799379E+04</totfact>
</mgrwt>
</event>
<event>
 8    1  0.9974463E-006  0.3185593E+03  0.7546771E-02  0.1076314E+00
         21   -1    0    0  504  503  0.00000000000E+00  0.00000000000E+00  0.17762522893E+03  0.17762522893E+03  0.00000000000E+00 0.  1.
         21   -1    0    0  503  504 -0.00000000000E+00 -0.00000000000E+00 -0.14282884845E+03  0.14282884845E+03  0.00000000000E+00 0.  1.
         25    2    1    2    0    0  0.32441698734E+02 -0.32366509573E+02  0.10535262593E+03  0.16977737002E+03  0.12500049928E+03 0.  0.
         25    2    1    2    0    0 -0.32441698734E+02  0.32366509573E+02 -0.70556245458E+02  0.15067670736E+03  0.12500092643E+03 0.  0.
          5    1    3    3  501    0 -0.17624457748E+02 -0.53714167244E+02  0.68485817515E+01  0.57138658941E+02  0.47000000000E+01 0.  1.
         -5    1    3    3    0  501  0.50066156482E+02  0.21347657671E+02  0.98504044183E+02  0.11263871108E+03  0.47000000000E+01 0.  1.
          5    1    4    4  502    0 -0.54809104645E+02  0.54595493166E+02 -0.48637214897E+01  0.77655982466E+02  0.47000000000E+01 0.  1.
         -5    1    4    4    0  502  0.22367405911E+02 -0.22228983593E+02 -0.65692523968E+02  0.73020724894E+02  0.47000000000E+01 0.  1.
<mgrwt>
<rscale>  0 0.31855930E+03</rscale>
<asrwt>0</asrwt>
<pdfrwt beam="1">  1       21 0.27326958E-01 0.31855930E+03</pdfrwt>
<pdfrwt beam="2">  1       21 0.21973669E-01 0.31855930E+03</pdfrwt>
<totfact> 0.23959330E+05</totfact>
</mgrwt>
</event>
<event>
 8    1  0.9974463E-006  0.3590421E+03  0.7546771E-02  0.1058964E+00
         21   -1    0    0  504  503  0.00000000000E+00  0.00000000000E+00  0.35082956412E+02  0.35082956412E+02  0.00000000000E+00 0. -1.
         21   -1    0    0  503  504 -0.00000000000E+00 -0.00000000000E+00 -0.91861708793E+03  0.91861708793E+03  0.00000000000E+00 0. -1.
         25    2    1    2    0    0 -0.70796937536E+02 -0.28987225259E+02 -0.16635561185E+03  0.22170095990E+03  0.12499864173E+03 0.  0.
         25    2    1    2    0    0  0.70796937536E+02  0.28987225259E+02 -0.71717851967E+03  0.73199908444E+03  0.12500065982E+03 0.  0.
          5    1    3    3  501    0  0.12522996121E+02  0.12619130227E+02 -0.11254942442E+03  0.11404179416E+03  0.47000000000E+01 0. -1.
         -5    1    3    3    0  501 -0.83319933658E+02 -0.41606355485E+02 -0.53806187435E+02  0.10765916574E+03  0.47000000000E+01 0. -1.
          5    1    4    4  502    0 -0.86155373880E+01  0.34606949655E+02 -0.59686389658E+02  0.69688044594E+02  0.47000000000E+01 0. -1.
         -5    1    4    4    0  502  0.79412474924E+02 -0.56197243964E+01 -0.65749213001E+03  0.66231103985E+03  0.47000000000E+01 0. -1.
<mgrwt>
<rscale>  0 0.35904208E+03</rscale>
<asrwt>0</asrwt>
<pdfrwt beam="1">  1       21 0.53973774E-02 0.35904208E+03</pdfrwt>
<pdfrwt beam="2">  1       21 0.14132572E+00 0.35904208E+03</pdfrwt>
<totfact> 0.77416401E+04</totfact>
</mgrwt>
</event>
<event>
 8    1  0.9974463E-006  0.2960428E+03  0.7546771E-02  0.1087236E+00
         21   -1    0    0  504  503  0.00000000000E+00  0.00000000000E+00  0.44037595846E+03  0.44037595846E+03  0.00000000000E+00 0.  1.
         21   -1    0    0  503  504 -0.00000000000E+00 -0.00000000000E+00 -0.49753718292E+02  0.49753718292E+02  0.00000000000E+00 0.  1.
         25    2    1    2    0    0 -0.83884283717E+01 -0.66704261875E+02  0.26488684379E+03  0.30051671788E+03  0.12500173371E+03 0.  0.
         25    2    1    2    0    0  0.83884283717E+01  0.66704261875E+02  0.12573539638E+03  0.18961295887E+03  0.12499543986E+03 0.  0.
          5    1    3    3  501    0  0.54966443940E+02 -0.42056101030E+02  0.17076364533E+03  0.18431586519E+03  0.47000000000E+01 0.  1.
         -5    1    3    3    0  501 -0.63354872312E+02 -0.24648160844E+02  0.94123198460E+02  0.11620085269E+03  0.47000000000E+01 0.  1.
          5    1    4    4  502    0 -0.89595544138E+01 -0.33188367839E+02  0.10934673745E+02  0.36378544020E+02  0.47000000000E+01 0. -1.
         -5    1    4    4    0  502  0.17347982785E+02  0.99892629714E+02  0.11480072263E+03  0.15323441485E+03  0.47000000000E+01 0. -1.
<mgrwt>
<rscale>  0 0.29604284E+03</rscale>
<asrwt>0</asrwt>
<pdfrwt beam="1">  1       21 0.67750145E-01 0.29604284E+03</pdfrwt>
<pdfrwt beam="2">  1       21 0.76544185E-02 0.29604284E+03</pdfrwt>
<totfact> 0.25111151E+05</totfact>
</mgrwt>
</event>
<event>
 8    1  0.9974463E-006  0.3382507E+03  0.7546771E-02  0.1067543E+00
         21   -1    0    0  504  503  0.00000000000E+00  0.00000000000E+00  0.45247097144E+02  0.45247097144E+02  0.00000000000E+00 0. -1.
         21   -1    0    0  503  504 -0.00000000000E+00 -0.00000000000E+00 -0.63215964693E+03  0.63215964693E+03  0.00000000000E+00 0. -1.
         25    2    1    2    0    0 -0.57976992059E+02  0.76367697293E+02 -0.41664547662E+03  0.44543550948E+03  0.12500393241E+03 0.  0.
         25    2    1    2    0    0  0.57976992059E+02 -0.76367697293E+02 -0.17026707317E+03  0.23197123460E+03  0.12500568258E+03 0.  0.
          5    1    3    3  501    0 -0.93550777552E+02  0.42676650431E+02 -0.33120858140E+03  0.34683462755E+03  0.47000000000E+01 0. -1.
         -5    1    3    3    0  501  0.35573785493E+02  0.33691046862E+02 -0.85436895215E+02  0.98600881928E+02  0.47000000000E+01 0. -1.
          5    1    4    4  502    0  0.76950407592E+02 -0.99179862677E+02 -0.15037709854E+03  0.19594226740E+03  0.47000000000E+01 0.  1.
         -5    1    4    4    0  502 -0.18973415533E+02  0.22812165385E+02 -0.19889974633E+02  0.36028967199E+02  0.47000000000E+01 0.  1.
<mgrwt>
<rscale>  0 0.33825073E+03</rscale>
<asrwt>0</asrwt>
<pdfrwt beam="1">  1       21 0.69610922E-02 0.33825073E+03</pdfrwt>
<pdfrwt beam="2">  1       21 0.97255326E-01 0.33825073E+03</pdfrwt>
<totfact> 0.12786927E+05</totfact>
</mgrwt>
</event>
<event>
 8    1  0.9974463E-006  0.2808659E+03  0.7546771E-02  0.1095217E+00
         21   -1    0    0  504  503  0.00000000000E+00  0.00000000000E+00  0.31289586522E+03  0.31289586522E+03  0.00000000000E+00 0.  1.
         21   -1    0    0  503  504 -0.00000000000E+00 -0.00000000000E+00 -0.63028673190E+02  0.63028673190E+02  0.00000000000E+00 0.  1.
         25    2    1    2    0    0 -0.57567583337E+02  0.24968529633E+02  0.14182664050E+03  0.19918578690E+03  0.12499091016E+03 0.  0.
         25    2    1    2    0    0  0.57567583337E+02 -0.24968529633E+02  0.10804055153E+03  0.17673875151E+03  0.12500548543E+03 0.  0.
          5    1    3    3  501    0 -0.10272209094E+02  0.49314963551E+02  0.32736880357E+01  0.50698036876E+02  0.47000000000E+01 0.  1.
         -5    1    3    3    0  501 -0.47295374243E+02 -0.24346433918E+02  0.13855295247E+03  0.14848775002E+03  0.47000000000E+01 0.  1.
          5    1    4    4  502    0 -0.28133726854E+02 -0.20323297807E+02 -0.43000523335E+01  0.35286307125E+02  0.47000000000E+01 0.  1.
         -5    1    4    4    0  502  0.85701310192E+02 -0.46452318261E+01  0.11234060386E+03  0.14145244439E+03  0.47000000000E+01 0.  1.
<mgrwt>
<rscale>  0 0.28086588E+03</rscale>
<asrwt>0</asrwt>
<pdfrwt beam="1">  1       21 0.48137825E-01 0.28086588E+03</pdfrwt>
<pdfrwt beam="2">  1       21 0.96967191E-02 0.28086588E+03</pdfrwt>
<totfact> 0.34622979E+05</totfact>
</mgrwt>
</event>
<event>
 8    1  0.9974463E-006  0.2986818E+03  0.7546771E-02  0.1085901E+00
         21   -1    0    0  504  503  0.00000000000E+00  0.00000000000E+00  0.32476385302E+03  0.32476385302E+03  0.00000000000E+00 0. -1.
         21   -1    0    0  503  504 -0.00000000000E+00 -0.00000000000E+00 -0.68673615528E+02  0.68673615528E+02  0.00000000000E+00 0. -1.
         25    2    1    2    0    0  0.45700842596E+02 -0.66549823673E+02  0.14479466484E+03  0.20762448727E+03  0.12499994681E+03 0.  0.
         25    2    1    2    0    0 -0.45700842596E+02  0.66549823673E+02  0.11129557265E+03  0.18581298128E+03  0.12498925344E+03 0.  0.
          5    1    3    3  501    0 -0.35577324465E+02 -0.31102914855E+02  0.13951995651E+02  0.49496318158E+02  0.47000000000E+01 0. -1.
         -5    1    3    3    0  501  0.81278167061E+02 -0.35446908818E+02  0.13084266919E+03  0.15812816911E+03  0.47000000000E+01 0. -1.
          5    1    4    4  502    0  0.18031402406E+02  0.13186792807E+02  0.99068178329E+02  0.10166423626E+03  0.47000000000E+01 0. -1.
         -5    1    4    4    0  502 -0.63732245002E+02  0.53363030865E+02  0.12227394320E+02  0.84148745017E+02  0.47000000000E+01 0. -1.
<mgrwt>
<rscale>  0 0.29868182E+03</rscale>
<asrwt>0</asrwt>
<pdfrwt beam="1">  1       21 0.49963669E-01 0.29868182E+03</pdfrwt>
<pdfrwt beam="2">  1       21 0.10565172E-01 0.29868182E+03</pdfrwt>
<totfact> 0.27376878E+05</totfact>
</mgrwt>
</event>
<event>
 8    1  0.9974463E-006  0.3112549E+03  0.7546771E-02  0.1079746E+00
         21   -1    0    0  504  503  0.00000000000E+00  0.00000000000E+00  0.51452462825E+03  0.51452462825E+03  0.00000000000E+00 0. -1.
         21   -1    0    0  503  504 -0.00000000000E+00 -0.00000000000E+00 -0.47072384948E+02  0.47072384948E+02  0.00000000000E+00 0. -1.
         25    2    1    2    0    0  0.64439019417E+01 -0.25520760609E+02  0.39412213707E+03  0.41430685402E+03  0.12500030907E+03 0.  0.
         25    2    1    2    0    0 -0.64439019417E+01  0.25520760609E+02  0.73330106230E+02  0.14729015917E+03  0.12499701362E+03 0.  0.
          5    1    3    3  501    0  0.32481886590E+01  0.13007537776E+02  0.36598519533E+03  0.36626083597E+03  0.47000000000E+01 0. -1.
         -5    1    3    3    0  501  0.31957132827E+01 -0.38528298384E+02  0.28136941740E+02  0.48046018048E+02  0.47000000000E+01 0. -1.
          5    1    4    4  502    0  0.13083051604E+00 -0.23016795480E+01 -0.34878941711E+02  0.35269610435E+02  0.47000000000E+01 0.  1.
         -5    1    4    4    0  502 -0.65747324577E+01  0.27822440157E+02  0.10820904794E+03  0.11202054874E+03  0.47000000000E+01 0.  1.
<mgrwt>
<rscale>  0 0.31125489E+03</rscale>
<asrwt>0</asrwt>
<pdfrwt beam="1">  1       21 0.79157631E-01 0.31125489E+03</pdfrwt>
<pdfrwt beam="2">  1       21 0.72419058E-02 0.31125489E+03</pdfrwt>
<totfact> 0.19429810E+05</totfact>
</mgrwt>
</event>
<event>
 8    1  0.9974463E-006  0.2723704E+03  0.7546771E-02  0.1099931E+00
         21   -1    0    0  504  503  0.00000000000E+00  0.00000000000E+00  0.10661193243E+03  0.10661193243E+03  0.00000000000E+00 0. -1.
         21   -1    0    0  503  504 -0.00000000000E+00 -0.00000000000E+00 -0.17396190465E+03  0.17396190465E+03  0.00000000000E+00 0. -1.
         25    2    1    2    0    0  0.34742979988E+02  0.41147874968E+02 -0.38206574749E+02  0.14137767119E+03  0.12501072467E+03 0.  0.
         25    2    1    2    0    0 -0.34742979988E+02 -0.41147874968E+02 -0.29143397471E+02  0.13919616590E+03  0.12500405078E+03 0.  0.
          5    1    3    3  501    0  0.14569645448E+02  0.69466382101E+02 -0.65677808259E+02  0.96816926766E+02  0.47000000000E+01 0. -1.
         -5    1    3    3    0  501  0.20173334540E+02 -0.28318507132E+02  0.27471233511E+02  0.44560744420E+02  0.47000000000E+01 0. -1.
          5    1    4    4  502    0  0.42581138936E+02 -0.17393824307E+01  0.97604261810E+01  0.43971977026E+02  0.47000000000E+01 0. -1.
         -5    1    4    4    0  502 -0.77324118925E+02 -0.39408492538E+02 -0.38903823652E+02  0.95224188872E+02  0.47000000000E+01 0. -1.
<mgrwt>
<rscale>  0 0.27237044E+03</rscale>
<asrwt>0</asrwt>
<pdfrwt beam="1">  1       21 0.16401836E-01 0.27237044E+03</pdfrwt>
<pdfrwt beam="2">  1       21 0.26763370E-01 0.27237044E+03</pdfrwt>
<totfact> 0.43579295E+05</totfact>
</mgrwt>
</event>
<event>
 8    1  0.9974463E-006  0.3145566E+03  0.7546771E-02  0.1078182E+00
         21   -1    0    0  504  503  0.00000000000E+00  0.00000000000E+00  0.13063697606E+02  0.13063697606E+02  0.00000000000E+00 0. -1.
         21   -1    0    0  503  504 -0.00000000000E+00 -0.00000000000E+00 -0.18935274194E+04  0.18935274194E+04  0.00000000000E+00 0. -1.
         25    2    1    2    0    0  0.47294658996E+01  0.34741271453E+02 -0.14783403167E+04  0.14840297624E+04  0.12499968011E+03 0.  0.
         25    2    1    2    0    0 -0.47294658996E+01 -0.34741271453E+02 -0.40212340514E+03  0.42256135461E+03  0.12500216664E+03 0.  0.
          5    1    3    3  501    0  0.10679415775E+02  0.76357230881E+02 -0.64367171415E+03  0.64828993686E+03  0.47000000000E+01 0.  1.
         -5    1    3    3    0  501 -0.59499498758E+01 -0.41615959428E+02 -0.83466860254E+03  0.83573982557E+03  0.47000000000E+01 0.  1.
          5    1    4    4  502    0  0.27008445455E+02 -0.35185423711E+02 -0.38219576163E+03  0.38478976126E+03  0.47000000000E+01 0. -1.
         -5    1    4    4    0  502 -0.31737911355E+02  0.44415225740E+00 -0.19927643513E+02  0.37771593352E+02  0.47000000000E+01 0. -1.
<mgrwt>
<rscale>  0 0.31455664E+03</rscale>
<asrwt>0</asrwt>
<pdfrwt beam="1">  1       21 0.20098019E-02 0.31455664E+03</pdfrwt>
<pdfrwt beam="2">  1       21 0.29131158E+00 0.31455664E+03</pdfrwt>
<totfact> 0.42954487E+04</totfact>
</mgrwt>
</event>
<event>
 8    1  0.9974463E-006  0.3775173E+03  0.7546771E-02  0.1051855E+00
         21   -1    0    0  504  503  0.00000000000E+00  0.00000000000E+00  0.35540302436E+03  0.35540302436E+03  0.00000000000E+00 0. -1.
         21   -1    0    0  503  504 -0.00000000000E+00 -0.00000000000E+00 -0.10025189667E+03  0.10025189667E+03  0.00000000000E+00 0. -1.
         25    2    1    2    0    0  0.91286531079E+02 -0.14360308568E+02 -0.16639606747E+01  0.15545865344E+03  0.12500069978E+03 0.  0.
         25    2    1    2    0    0 -0.91286531079E+02  0.14360308568E+02  0.25681508836E+03  0.30019626759E+03  0.12499744095E+03 0.  0.
          5    1    3    3  501    0  0.53988891061E+02  0.53764381034E+02  0.92187835852E+01  0.76892684937E+02  0.47000000000E+01 0. -1.
         -5    1    3    3    0  501  0.37297640018E+02 -0.68124689602E+02 -0.10882744260E+02  0.78565968504E+02  0.47000000000E+01 0. -1.
          5    1    4    4  502    0  0.21850431566E+02 -0.67507368854E+01  0.58637555189E+01  0.24072545293E+02  0.47000000000E+01 0. -1.
         -5    1    4    4    0  502 -0.11313696265E+03  0.21111045454E+02  0.25095133284E+03  0.27612372229E+03  0.47000000000E+01 0. -1.
<mgrwt>
<rscale>  0 0.37751730E+03</rscale>
<asrwt>0</asrwt>
<pdfrwt beam="1">  1       21 0.54677388E-01 0.37751730E+03</pdfrwt>
<pdfrwt beam="2">  1       21 0.15423369E-01 0.37751730E+03</pdfrwt>
<totfact> 0.11161179E+05</totfact>
</mgrwt>
</event>
<event>
 8    1  0.9974463E-006  0.3323850E+03  0.7546771E-02  0.1070086E+00
         21   -1    0    0  504  503  0.00000000000E+00  0.00000000000E+00  0.17130252749E+02  0.17130252749E+02  0.00000000000E+00 0.  1.
         21   -1    0    0  503  504 -0.00000000000E+00 -0.00000000000E+00 -0.16123495401E+04  0.16123495401E+04  0.00000000000E+00 0.  1.
         25    2    1    2    0    0 -0.21994804686E+02  0.10177448809E+03 -0.63114773414E+03  0.65177607492E+03  0.12499108636E+03 0.  0.
         25    2    1    2    0    0  0.21994804686E+02 -0.10177448809E+03 -0.96407155320E+03  0.97770371791E+03  0.12501512899E+03 0.  0.
          5    1    3    3  501    0  0.41186927234E+02  0.36758815031E+02 -0.39347149087E+03  0.39735308931E+03  0.47000000000E+01 0.  1.
         -5    1    3    3    0  501 -0.63181731920E+02  0.65015673062E+02 -0.23767624326E+03  0.25442298561E+03  0.47000000000E+01 0.  1.
          5    1    4    4  502    0 -0.61991754668E+01  0.19784527305E+02 -0.40615368973E+02  0.45842725638E+02  0.47000000000E+01 0.  1.
         -5    1    4    4    0  502  0.28193980153E+02 -0.12155901540E+03 -0.92345618423E+03  0.93186099228E+03  0.47000000000E+01 0.  1.
<mgrwt>
<rscale>  0 0.33238505E+03</rscale>
<asrwt>0</asrwt>
<pdfrwt beam="1">  1       21 0.26354230E-02 0.33238505E+03</pdfrwt>
<pdfrwt beam="2">  1       21 0.24805383E+00 0.33238505E+03</pdfrwt>
<totfact> 0.49264403E+04</totfact>
</mgrwt>
</event>
<event>
 8    1  0.9974463E-006  0.2577041E+03  0.7546771E-02  0.1108531E+00
         21   -1    0    0  504  503  0.00000000000E+00  0.00000000000E+00  0.10468267183E+04  0.10468267183E+04  0.00000000000E+00 0.  1.
         21   -1    0    0  503  504 -0.00000000000E+00 -0.00000000000E+00 -0.15860175830E+02  0.15860175830E+02  0.00000000000E+00 0.  1.
         25    2    1    2    0    0 -0.31112268545E+02  0.25144756926E+01  0.52236826164E+03  0.53802425380E+03  0.12500880393E+03 0.  0.
         25    2    1    2    0    0  0.31112268545E+02 -0.25144756926E+01  0.50859828087E+03  0.52466264038E+03  0.12499751622E+03 0.  0.
          5    1    3    3  501    0 -0.36770826093E+02 -0.36875692634E+02  0.92206857839E+02  0.10600049524E+03  0.47000000000E+01 0. -1.
         -5    1    3    3    0  501  0.56585575473E+01  0.39390168326E+02  0.43016140380E+03  0.43202375855E+03  0.47000000000E+01 0. -1.
          5    1    4    4  502    0  0.14531192449E+02  0.60646780556E+02  0.27819008182E+03  0.28513330070E+03  0.47000000000E+01 0.  1.
         -5    1    4    4    0  502  0.16581076096E+02 -0.63161256249E+02  0.23040819905E+03  0.23952933967E+03  0.47000000000E+01 0.  1.
<mgrwt>
<rscale>  0 0.25770414E+03</rscale>
<asrwt>0</asrwt>
<pdfrwt beam="1">  1       21 0.16105021E+00 0.25770414E+03</pdfrwt>
<pdfrwt beam="2">  1       21 0.24400279E-02 0.25770414E+03</pdfrwt>
<totfact> 0.21447137E+05</totfact>
</mgrwt>
</event>
<event>
 8    1  0.9974463E-006  0.3756789E+03  0.7546771E-02  0.1052542E+00
         21   -1    0    0  504  503  0.00000000000E+00  0.00000000000E+00  0.41287944042E+02  0.41287944042E+02  0.00000000000E+00 0. -1.
         21   -1    0    0  503  504 -0.00000000000E+00 -0.00000000000E+00 -0.85457549906E+03  0.85457549906E+03  0.00000000000E+00 0. -1.
         25    2    1    2    0    0  0.13097853049E+03 -0.44666228161E+02 -0.35288777080E+03  0.39913166297E+03  0.12500343282E+03 0.  0.
         25    2    1    2    0    0 -0.13097853049E+03  0.44666228161E+02 -0.46039978422E+03  0.49673178013E+03  0.12499621075E+03 0.  0.
          5    1    3    3  501    0  0.21837545593E+02 -0.36633054848E+02 -0.17549214854E+02  0.46356488726E+02  0.47000000000E+01 0. -1.
         -5    1    3    3    0  501  0.10914098489E+03 -0.80331733129E+01 -0.33533855595E+03  0.35277517424E+03  0.47000000000E+01 0. -1.
          5    1    4    4  502    0 -0.13998312884E+03  0.55024626066E+02 -0.45792201016E+03  0.48201415251E+03  0.47000000000E+01 0. -1.
         -5    1    4    4    0  502  0.90045983511E+01 -0.10358397905E+02 -0.24777740610E+01  0.14717627625E+02  0.47000000000E+01 0. -1.
<mgrwt>
<rscale>  0 0.37567893E+03</rscale>
<asrwt>0</asrwt>
<pdfrwt beam="1">  1       21 0.63519917E-02 0.37567893E+03</pdfrwt>
<pdfrwt beam="2">  1       21 0.13147315E+00 0.37567893E+03</pdfrwt>
<totfact> 0.70201267E+04</totfact>
</mgrwt>
</event>
<event>
 8    1  0.9974463E-006  0.2703645E+03  0.7546771E-02  0.1101071E+00
         21   -1    0    0  504  503  0.00000000000E+00  0.00000000000E+00  0.52155026176E+03  0.52155026176E+03  0.00000000000E+00 0.  1.
         21   -1    0    0  503  504 -0.00000000000E+00 -0.00000000000E+00 -0.35038314928E+02  0.35038314928E+02  0.00000000000E+00 0.  1.
         25    2    1    2    0    0 -0.14500454804E+02  0.41482740246E+02  0.18807809931E+03  0.23006234172E+03  0.12499691480E+03 0.  0.
         25    2    1    2    0    0  0.14500454804E+02 -0.41482740246E+02  0.29843384752E+03  0.32652623496E+03  0.12500215937E+03 0.  0.
          5    1    3    3  501    0 -0.69718293522E+02  0.26607599561E+02  0.11459032536E+03  0.13682703487E+03  0.47000000000E+01 0. -1.
         -5    1    3    3    0  501  0.55217838718E+02  0.14875140685E+02  0.73487773953E+02  0.93235306851E+02  0.47000000000E+01 0. -1.
          5    1    4    4  502    0 -0.72118912268E+01  0.17217288851E+02  0.24000527899E+03  0.24077597545E+03  0.47000000000E+01 0. -1.
         -5    1    4    4    0  502  0.21712346031E+02 -0.58700029098E+02  0.58428568528E+02  0.85750259512E+02  0.47000000000E+01 0. -1.
<mgrwt>
<rscale>  0 0.27036451E+03</rscale>
<asrwt>0</asrwt>
<pdfrwt beam="1">  1       21 0.80238496E-01 0.27036451E+03</pdfrwt>
<pdfrwt beam="2">  1       21 0.53905104E-02 0.27036451E+03</pdfrwt>
<totfact> 0.31700351E+05</totfact>
</mgrwt>
</event>
<event>
 8    1  0.9974463E-006  0.4159085E+03  0.7546771E-02  0.1038406E+00
         21   -1    0    0  504  503  0.00000000000E+00  0.00000000000E+00  0.14284944400E+03  0.14284944400E+03  0.00000000000E+00 0. -1.
         21   -1    0    0  503  504 -0.00000000000E+00 -0.00000000000E+00 -0.30273115559E+03  0.30273115559E+03  0.00000000000E+00 0. -1.
         25    2    1    2    0    0 -0.13286126159E+03 -0.99862564250E+02 -0.79505605478E+02  0.22264961483E+03  0.12500825218E+03 0.  0.
         25    2    1    2    0    0  0.13286126159E+03  0.99862564250E+02 -0.80376106113E+02  0.22293098475E+03  0.12495302701E+03 0.  0.
          5    1    3    3  501    0  0.95180534827E-01 -0.67726693594E+02 -0.83765080500E+01  0.68404458711E+02  0.47000000000E+01 0.  1.
         -5    1    3    3    0  501 -0.13295644212E+03 -0.32135870656E+02 -0.71129097428E+02  0.15424515612E+03  0.47000000000E+01 0.  1.
          5    1    4    4  502    0  0.14271512573E+03  0.83318270370E+02 -0.28978105386E+02  0.16784326582E+03  0.47000000000E+01 0. -1.
         -5    1    4    4    0  502 -0.98538641400E+01  0.16544293880E+02 -0.51398000727E+02  0.55087718932E+02  0.47000000000E+01 0. -1.
<mgrwt>
<rscale>  0 0.41590853E+03</rscale>
<asrwt>0</asrwt>
<pdfrwt beam="1">  1       21 0.21976838E-01 0.41590853E+03</pdfrwt>
<pdfrwt beam="2">  1       21 0.46574023E-01 0.41590853E+03</pdfrwt>
<totfact> 0.79878649E+04</totfact>
</mgrwt>
</event>
<event>
 8    1  0.9974463E-006  0.5850394E+03  0.7546771E-02  0.9936940E-01
         21   -1    0    0  504  503  0.00000000000E+00  0.00000000000E+00  0.43015845233E+03  0.43015845233E+03  0.00000000000E+00 0. -1.
         21   -1    0    0  503  504 -0.00000000000E+00 -0.00000000000E+00 -0.19892150325E+03  0.19892150325E+03  0.00000000000E+00 0. -1.
         25    2    1    2    0    0 -0.19152913302E+03  0.30085562334E+02  0.30903478672E+03  0.38563691542E+03  0.12499912508E+03 0.  0.
         25    2    1    2    0    0  0.19152913302E+03 -0.30085562334E+02 -0.77797837645E+02  0.24344304017E+03  0.12499384147E+03 0.  0.
          5    1    3    3  501    0 -0.20164401321E+03  0.39096604999E+01  0.26204717810E+03  0.33070592232E+03  0.47000000000E+01 0. -1.
         -5    1    3    3    0  501  0.10114880192E+02  0.26175901834E+02  0.46987608621E+02  0.54930993092E+02  0.47000000000E+01 0. -1.
          5    1    4    4  502    0  0.12229944486E+03  0.41674369624E+02 -0.29793832395E+02  0.13267882177E+03  0.47000000000E+01 0.  1.
         -5    1    4    4    0  502  0.69229688157E+02 -0.71759931958E+02 -0.48004005250E+02  0.11076421840E+03  0.47000000000E+01 0.  1.
<mgrwt>
<rscale>  0 0.58503937E+03</rscale>
<asrwt>0</asrwt>
<pdfrwt beam="1">  1       21 0.66178224E-01 0.58503937E+03</pdfrwt>
<pdfrwt beam="2">  1       21 0.30603308E-01 0.58503937E+03</pdfrwt>
<totfact> 0.18824168E+04</totfact>
</mgrwt>
</event>
<event>
 8    1  0.9974463E-006  0.2985322E+03  0.7546771E-02  0.1085977E+00
         21   -1    0    0  504  503  0.00000000000E+00  0.00000000000E+00  0.15767623923E+03  0.15767623923E+03  0.00000000000E+00 0. -1.
         21   -1    0    0  503  504 -0.00000000000E+00 -0.00000000000E+00 -0.14130456494E+03  0.14130456494E+03  0.00000000000E+00 0. -1.
         25    2    1    2    0    0 -0.44324339778E+02  0.30961965737E+02  0.69363082909E+02  0.15284222769E+03  0.12500487541E+03 0.  0.
         25    2    1    2    0    0  0.44324339778E+02 -0.30961965737E+02 -0.52991408619E+02  0.14613857648E+03  0.12500041491E+03 0.  0.
          5    1    3    3  501    0 -0.83407703941E+02 -0.34243690238E+01  0.47720449373E+02  0.96269946859E+02  0.47000000000E+01 0.  1.
         -5    1    3    3    0  501  0.39083364162E+02  0.34386334761E+02  0.21642633536E+02  0.56572280835E+02  0.47000000000E+01 0.  1.
          5    1    4    4  502    0  0.73730535577E+01  0.10681502363E+02 -0.82021530925E+02  0.83174983901E+02  0.47000000000E+01 0.  1.
         -5    1    4    4    0  502  0.36951286221E+02 -0.41643468101E+02  0.29030122307E+02  0.62963592575E+02  0.47000000000E+01 0.  1.
<mgrwt>
<rscale>  0 0.29853223E+03</rscale>
<asrwt>0</asrwt>
<pdfrwt beam="1">  1       21 0.24257883E-01 0.29853223E+03</pdfrwt>
<pdfrwt beam="2">  1       21 0.21739164E-01 0.29853223E+03</pdfrwt>
<totfact> 0.30918071E+05</totfact>
</mgrwt>
</event>
<event>
 8    1  0.9974463E-006  0.3276056E+03  0.7546771E-02  0.1072201E+00
         21   -1    0    0  504  503  0.00000000000E+00  0.00000000000E+00  0.75896934382E+03  0.75896934382E+03  0.00000000000E+00 0. -1.
         21   -1    0    0  503  504 -0.00000000000E+00 -0.00000000000E+00 -0.35352362911E+02  0.35352362911E+02  0.00000000000E+00 0. -1.
         25    2    1    2    0    0  0.16381754328E+02  0.35247535507E+02  0.60056263363E+03  0.61466354090E+03  0.12500016382E+03 0.  0.
         25    2    1    2    0    0 -0.16381754328E+02 -0.35247535507E+02  0.12305434727E+03  0.17965816583E+03  0.12499573406E+03 0.  0.
          5    1    3    3  501    0  0.66051168669E+02 -0.44497401890E+01  0.27276586783E+03  0.28072382464E+03  0.47000000000E+01 0. -1.
         -5    1    3    3    0  501 -0.49669414341E+02  0.39697275696E+02  0.32779676581E+03  0.33393971625E+03  0.47000000000E+01 0. -1.
          5    1    4    4  502    0 -0.26784720751E+02 -0.49335528113E+02  0.14240316382E+03  0.15314100256E+03  0.47000000000E+01 0. -1.
         -5    1    4    4    0  502  0.10402966423E+02  0.14087992606E+02 -0.19348816547E+02  0.26517163269E+02  0.47000000000E+01 0. -1.
<mgrwt>
<rscale>  0 0.32760561E+03</rscale>
<asrwt>0</asrwt>
<pdfrwt beam="1">  1       21 0.11676450E+00 0.32760561E+03</pdfrwt>
<pdfrwt beam="2">  1       21 0.54388256E-02 0.32760561E+03</pdfrwt>
<totfact> 0.12583762E+05</totfact>
</mgrwt>
</event>
<event>
 8    1  0.9974463E-006  0.2981965E+03  0.7546771E-02  0.1086146E+00
         21   -1    0    0  504  503  0.00000000000E+00  0.00000000000E+00  0.44802668759E+02  0.44802668759E+02  0.00000000000E+00 0. -1.
         21   -1    0    0  503  504 -0.00000000000E+00 -0.00000000000E+00 -0.49618228964E+03  0.49618228964E+03  0.00000000000E+00 0. -1.
         25    2    1    2    0    0 -0.68076449881E+02  0.21154709911E+02 -0.29638063163E+03  0.32946689915E+03  0.12500013621E+03 0.  0.
         25    2    1    2    0    0  0.68076449881E+02 -0.21154709911E+02 -0.15499898925E+03  0.21151805924E+03  0.12503310737E+03 0.  0.
          5    1    3    3  501    0 -0.38487561231E+02 -0.49693358395E+02 -0.17241331652E+03  0.18357332037E+03  0.47000000000E+01 0.  1.
         -5    1    3    3    0  501 -0.29588888649E+02  0.70848068306E+02 -0.12396731511E+03  0.14589357878E+03  0.47000000000E+01 0.  1.
          5    1    4    4  502    0 -0.37403362276E+01 -0.36350929953E+02  0.32721939680E+01  0.36988883153E+02  0.47000000000E+01 0.  1.
         -5    1    4    4    0  502  0.71816786108E+02  0.15196220042E+02 -0.15827118321E+03  0.17452917609E+03  0.47000000000E+01 0.  1.
<mgrwt>
<rscale>  0 0.29819652E+03</rscale>
<asrwt>0</asrwt>
<pdfrwt beam="1">  1       21 0.68927184E-02 0.29819652E+03</pdfrwt>
<pdfrwt beam="2">  1       21 0.76335736E-01 0.29819652E+03</pdfrwt>
<totfact> 0.23072311E+05</totfact>
</mgrwt>
</event>
<event>
 8    1  0.9974463E-006  0.3598023E+03  0.7546771E-02  0.1058662E+00
         21   -1    0    0  504  503  0.00000000000E+00  0.00000000000E+00  0.88523246140E+02  0.88523246140E+02  0.00000000000E+00 0. -1.
         21   -1    0    0  503  504 -0.00000000000E+00 -0.00000000000E+00 -0.36560360353E+03  0.36560360353E+03  0.00000000000E+00 0. -1.
         25    2    1    2    0    0 -0.11028372437E+03  0.56614559389E+02 -0.18527189459E+03  0.25557553849E+03  0.12500189100E+03 0.  0.
         25    2    1    2    0    0  0.11028372437E+03 -0.56614559389E+02 -0.91808462792E+02  0.19855131118E+03  0.12500448445E+03 0.  0.
          5    1    3    3  501    0 -0.15977107906E+02 -0.87212196728E+01  0.15448562246E+02  0.24332606212E+02  0.47000000000E+01 0. -1.
         -5    1    3    3    0  501 -0.94306616467E+02  0.65335779062E+02 -0.20072045684E+03  0.23124293228E+03  0.47000000000E+01 0. -1.
          5    1    4    4  502    0  0.11473426852E+03 -0.69177958509E+02 -0.11146277491E+03  0.17434328925E+03  0.47000000000E+01 0. -1.
         -5    1    4    4    0  502 -0.44505441501E+01  0.12563399120E+02  0.19654312116E+02  0.24208021923E+02  0.47000000000E+01 0. -1.
<mgrwt>
<rscale>  0 0.35980227E+03</rscale>
<asrwt>0</asrwt>
<pdfrwt beam="1">  1       21 0.13618961E-01 0.35980227E+03</pdfrwt>
<pdfrwt beam="2">  1       21 0.56246708E-01 0.35980227E+03</pdfrwt>
<totfact> 0.13258028E+05</totfact>
</mgrwt>
</event>
<event>
 8    1  0.9974463E-006  0.2563201E+03  0.7546771E-02  0.1109375E+00
         21   -1    0    0  504  503  0.00000000000E+00  0.00000000000E+00  0.39568053389E+02  0.39568053389E+02  0.00000000000E+00 0.  1.
         21   -1    0    0  503  504 -0.00000000000E+00 -0.00000000000E+00 -0.41510764619E+03  0.41510764619E+03  0.00000000000E+00 0.  1.
         25    2    1    2    0    0  0.16165640891E+02 -0.12083036578E+02 -0.15255862966E+03  0.19825555822E+03  0.12499521255E+03 0.  0.
         25    2    1    2    0    0 -0.16165640891E+02  0.12083036578E+02 -0.22298096314E+03  0.25642014136E+03  0.12499380487E+03 0.  0.
          5    1    3    3  501    0  0.37107371549E+02 -0.35289581605E+01  0.59794169729E+01  0.38042791647E+02  0.47000000000E+01 0. -1.
         -5    1    3    3    0  501 -0.20941730658E+02 -0.85540784172E+01 -0.15853804664E+03  0.16021276657E+03  0.47000000000E+01 0. -1.
          5    1    4    4  502    0 -0.64480330630E+02 -0.54657840225E+01 -0.17217187295E+03  0.18399139020E+03  0.47000000000E+01 0. -1.
         -5    1    4    4    0  502  0.48314689739E+02  0.17548820600E+02 -0.50809090184E+02  0.72428751159E+02  0.47000000000E+01 0. -1.
<mgrwt>
<rscale>  0 0.25632012E+03</rscale>
<asrwt>0</asrwt>
<pdfrwt beam="1">  1       21 0.60873931E-02 0.25632012E+03</pdfrwt>
<pdfrwt beam="2">  1       21 0.63862712E-01 0.25632012E+03</pdfrwt>
<totfact> 0.42945960E+05</totfact>
</mgrwt>
</event>
<event>
 8    1  0.9974463E-006  0.2791294E+03  0.7546771E-02  0.1096165E+00
         21   -1    0    0  504  503  0.00000000000E+00  0.00000000000E+00  0.38344950084E+02  0.38344950084E+02  0.00000000000E+00 0.  1.
         21   -1    0    0  503  504 -0.00000000000E+00 -0.00000000000E+00 -0.50797592765E+03  0.50797592765E+03  0.00000000000E+00 0.  1.
         25    2    1    2    0    0  0.33325484032E+02 -0.51912322055E+02 -0.22121230173E+03  0.26146522044E+03  0.12499480787E+03 0.  0.
         25    2    1    2    0    0 -0.33325484032E+02  0.51912322055E+02 -0.24841867584E+03  0.28485565730E+03  0.12500171968E+03 0.  0.
          5    1    3    3  501    0 -0.37576494550E+02 -0.49526599148E+02 -0.14165719715E+03  0.15476992107E+03  0.47000000000E+01 0. -1.
         -5    1    3    3    0  501  0.70901978582E+02 -0.23857229071E+01 -0.79555104582E+02  0.10669529936E+03  0.47000000000E+01 0. -1.
          5    1    4    4  502    0 -0.28461375961E+02  0.34238534886E+02 -0.10240581440E+02  0.45926971389E+02  0.47000000000E+01 0.  1.
         -5    1    4    4    0  502 -0.48641080710E+01  0.17673787169E+02 -0.23817809440E+03  0.23892868591E+03  0.47000000000E+01 0.  1.
<mgrwt>
<rscale>  0 0.27912944E+03</rscale>
<asrwt>0</asrwt>
<pdfrwt beam="1">  1       21 0.58992230E-02 0.27912944E+03</pdfrwt>
<pdfrwt beam="2">  1       21 0.78150144E-01 0.27912944E+03</pdfrwt>
<totfact> 0.28771312E+05</totfact>
</mgrwt>
</event>
<event>
 8    1  0.9974463E-006  0.4525083E+03  0.7546771E-02  0.1026977E+00
         21   -1    0    0  504  503  0.00000000000E+00  0.00000000000E+00  0.14364509309E+03  0.14364509309E+03  0.00000000000E+00 0. -1.
         21   -1    0    0  503  504 -0.00000000000E+00 -0.00000000000E+00 -0.35637104337E+03  0.35637104337E+03  0.00000000000E+00 0. -1.
         25    2    1    2    0    0 -0.57152830232E+02  0.17088260380E+03 -0.44844382092E+02  0.22383935994E+03  0.12500292064E+03 0.  0.
         25    2    1    2    0    0  0.57152830232E+02 -0.17088260380E+03 -0.16788156819E+03  0.27617677651E+03  0.12498832211E+03 0.  0.
          5    1    3    3  501    0  0.27498444638E+01  0.63542002336E+02 -0.73724324093E+02  0.97480837442E+02  0.47000000000E+01 0. -1.
         -5    1    3    3    0  501 -0.59902674696E+02  0.10734060146E+03  0.28879942000E+02  0.12635852250E+03  0.47000000000E+01 0. -1.
          5    1    4    4  502    0 -0.25740770848E+02 -0.15456685762E+02  0.32222028820E+01  0.30560906564E+02  0.47000000000E+01 0. -1.
         -5    1    4    4    0  502  0.82893601080E+02 -0.15542591804E+03 -0.17110377107E+03  0.24561586995E+03  0.47000000000E+01 0. -1.
<mgrwt>
<rscale>  0 0.45250835E+03</rscale>
<asrwt>0</asrwt>
<pdfrwt beam="1">  1       21 0.22099245E-01 0.45250835E+03</pdfrwt>
<pdfrwt beam="2">  1       21 0.54826314E-01 0.45250835E+03</pdfrwt>
<totfact> 0.55412093E+04</totfact>
</mgrwt>
</event>
<event>
 8    1  0.9974463E-006  0.2682059E+03  0.7546771E-02  0.1102311E+00
         21   -1    0    0  504  503  0.00000000000E+00  0.00000000000E+00  0.37647432240E+02  0.37647432240E+02  0.00000000000E+00 0. -1.
         21   -1    0    0  503  504 -0.00000000000E+00 -0.00000000000E+00 -0.47768459787E+03  0.47768459787E+03  0.00000000000E+00 0. -1.
         25    2    1    2    0    0  0.10434271868E+02 -0.25143399880E+02 -0.29727991138E+03  0.32364019265E+03  0.12500625586E+03 0.  0.
         25    2    1    2    0    0 -0.10434271868E+02  0.25143399880E+02 -0.14275725425E+03  0.19169183746E+03  0.12500024928E+03 0.  0.
          5    1    3    3  501    0  0.60762840659E+02 -0.16297071366E+02 -0.88736341884E+02  0.10887582703E+03  0.47000000000E+01 0.  1.
         -5    1    3    3    0  501 -0.50328568791E+02 -0.88463285143E+01 -0.20854356949E+03  0.21476436562E+03  0.47000000000E+01 0.  1.
          5    1    4    4  502    0  0.89812725756E+01 -0.49293897880E+02 -0.47966042557E+02  0.69522534936E+02  0.47000000000E+01 0.  1.
         -5    1    4    4    0  502 -0.19415544443E+02  0.74437297761E+02 -0.94791211693E+02  0.12216930252E+03  0.47000000000E+01 0.  1.
<mgrwt>
<rscale>  0 0.26820588E+03</rscale>
<asrwt>0</asrwt>
<pdfrwt beam="1">  1       21 0.57919127E-02 0.26820588E+03</pdfrwt>
<pdfrwt beam="2">  1       21 0.73489937E-01 0.26820588E+03</pdfrwt>
<totfact> 0.34200321E+05</totfact>
</mgrwt>
</event>
<event>
 8    1  0.9974463E-006  0.3444416E+03  0.7546771E-02  0.1064920E+00
         21   -1    0    0  504  503  0.00000000000E+00  0.00000000000E+00  0.18195455386E+03  0.18195455386E+03  0.00000000000E+00 0.  1.
         21   -1    0    0  503  504 -0.00000000000E+00 -0.00000000000E+00 -0.16300774213E+03  0.16300774213E+03  0.00000000000E+00 0.  1.
         25    2    1    2    0    0  0.62139296121E+02  0.57239425693E+02 -0.73705186055E+02  0.16791156934E+03  0.12499678672E+03 0.  0.
         25    2    1    2    0    0 -0.62139296121E+02 -0.57239425693E+02  0.92651997792E+02  0.17705072665E+03  0.12499969255E+03 0.  0.
          5    1    3    3  501    0  0.44834220764E+02  0.97416445858E+01  0.28200703112E+02  0.54059010782E+02  0.47000000000E+01 0. -1.
         -5    1    3    3    0  501  0.17305075357E+02  0.47497781107E+02 -0.10190588917E+03  0.11385255856E+03  0.47000000000E+01 0. -1.
          5    1    4    4  502    0 -0.78767748013E+02 -0.74727592345E+02  0.10359339290E+03  0.15014077473E+03  0.47000000000E+01 0. -1.
         -5    1    4    4    0  502  0.16628451892E+02  0.17488166652E+02 -0.10941395112E+02  0.26909951917E+02  0.47000000000E+01 0. -1.
<mgrwt>
<rscale>  0 0.34444158E+03</rscale>
<asrwt>0</asrwt>
<pdfrwt beam="1">  1       21 0.27993008E-01 0.34444158E+03</pdfrwt>
<pdfrwt beam="2">  1       21 0.25078114E-01 0.34444158E+03</pdfrwt>
<totfact> 0.17641171E+05</totfact>
</mgrwt>
</event>
<event>
 8    1  0.9974463E-006  0.3822820E+03  0.7546771E-02  0.1050094E+00
         21   -1    0    0  504  503  0.00000000000E+00  0.00000000000E+00  0.98893583649E+02  0.98893583649E+02  0.00000000000E+00 0.  1.
         21   -1    0    0  503  504 -0.00000000000E+00 -0.00000000000E+00 -0.36943629933E+03  0.36943629933E+03  0.00000000000E+00 0.  1.
         25    2    1    2    0    0  0.24224292662E+02  0.97052775544E+02 -0.73467056380E+01  0.16026625043E+03  0.12500095738E+03 0.  0.
         25    2    1    2    0    0 -0.24224292662E+02 -0.97052775544E+02 -0.26319601005E+03  0.30806363256E+03  0.12500001761E+03 0.  0.
          5    1    3    3  501    0 -0.36819311175E+02  0.78458514024E+02  0.22495893432E+02  0.89663567404E+02  0.47000000000E+01 0.  1.
         -5    1    3    3    0  501  0.61043603837E+02  0.18594261520E+02 -0.29842599070E+02  0.70602683024E+02  0.47000000000E+01 0.  1.
          5    1    4    4  502    0 -0.14041851232E+02 -0.58475613247E+02 -0.23041795192E+02  0.64572325777E+02  0.47000000000E+01 0.  1.
         -5    1    4    4    0  502 -0.10182441430E+02 -0.38577162297E+02 -0.24015421485E+03  0.24349130678E+03  0.47000000000E+01 0.  1.
<mgrwt>
<rscale>  0 0.38228199E+03</rscale>
<asrwt>0</asrwt>
<pdfrwt beam="1">  1       21 0.15214398E-01 0.38228199E+03</pdfrwt>
<pdfrwt beam="2">  1       21 0.56836353E-01 0.38228199E+03</pdfrwt>
<totfact> 0.10519352E+05</totfact>
</mgrwt>
</event>
<event>
 8    1  0.9974463E-006  0.4715087E+03  0.7546771E-02  0.1021495E+00
         21   -1    0    0  504  503  0.00000000000E+00  0.00000000000E+00  0.52115509807E+03  0.52115509807E+03  0.00000000000E+00 0.  1.
         21   -1    0    0  503  504 -0.00000000000E+00 -0.00000000000E+00 -0.10664791254E+03  0.10664791254E+03  0.00000000000E+00 0.  1.
         25    2    1    2    0    0 -0.13012505333E+03  0.11421863900E+03  0.34025020323E+03  0.40171351341E+03  0.12500047621E+03 0.  0.
         25    2    1    2    0    0  0.13012505333E+03 -0.11421863900E+03  0.74256982297E+02  0.22608949721E+03  0.12499573725E+03 0.  0.
          5    1    3    3  501    0 -0.23046569378E+02 -0.23050378517E+02  0.24243669152E+02  0.40893884675E+02  0.47000000000E+01 0.  1.
         -5    1    3    3    0  501 -0.10707848395E+03  0.13726901752E+03  0.31600653408E+03  0.36081962873E+03  0.47000000000E+01 0.  1.
          5    1    4    4  502    0  0.19211902356E+02 -0.85023410733E+02 -0.36348547497E+01  0.87369215023E+02  0.47000000000E+01 0. -1.
         -5    1    4    4    0  502  0.11091315097E+03 -0.29195228266E+02  0.77891837047E+02  0.13872028219E+03  0.47000000000E+01 0. -1.
<mgrwt>
<rscale>  0 0.47150866E+03</rscale>
<asrwt>0</asrwt>
<pdfrwt beam="1">  1       21 0.80177706E-01 0.47150866E+03</pdfrwt>
<pdfrwt beam="2">  1       21 0.16407371E-01 0.47150866E+03</pdfrwt>
<totfact> 0.41536868E+04</totfact>
</mgrwt>
</event>
<event>
 8    1  0.9974463E-006  0.4106045E+03  0.7546771E-02  0.1040168E+00
         21   -1    0    0  504  503  0.00000000000E+00  0.00000000000E+00  0.90568876515E+02  0.90568876515E+02  0.00000000000E+00 0. -1.
         21   -1    0    0  503  504 -0.00000000000E+00 -0.00000000000E+00 -0.46538067927E+03  0.46538067927E+03  0.00000000000E+00 0. -1.
         25    2    1    2    0    0 -0.29595631258E+02 -0.13647900247E+03 -0.30085491725E+03  0.35445643428E+03  0.12499305204E+03 0.  0.
         25    2    1    2    0    0  0.29595631258E+02  0.13647900247E+03 -0.73956885509E+02  0.20149312151E+03  0.12500975001E+03 0.  0.
          5    1    3    3  501    0  0.29327860258E+02 -0.48812542660E+02 -0.20121967043E+03  0.20917512633E+03  0.47000000000E+01 0. -1.
         -5    1    3    3    0  501 -0.58923491516E+02 -0.87666459815E+02 -0.99635246824E+02  0.14528130795E+03  0.47000000000E+01 0. -1.
          5    1    4    4  502    0  0.76935835005E+02  0.94724293080E+02 -0.62427856762E+02  0.13715371562E+03  0.47000000000E+01 0. -1.
         -5    1    4    4    0  502 -0.47340203747E+02  0.41754709395E+02 -0.11529028747E+02  0.64339405898E+02  0.47000000000E+01 0. -1.
<mgrwt>
<rscale>  0 0.41060446E+03</rscale>
<asrwt>0</asrwt>
<pdfrwt beam="1">  1       21 0.13933673E-01 0.41060446E+03</pdfrwt>
<pdfrwt beam="2">  1       21 0.71597027E-01 0.41060446E+03</pdfrwt>
<totfact> 0.73838405E+04</totfact>
</mgrwt>
</event>
<event>
 8    1  0.9974463E-006  0.2850757E+03  0.7546771E-02  0.1092949E+00
         21   -1    0    0  504  503  0.00000000000E+00  0.00000000000E+00  0.13434885927E+04  0.13434885927E+04  0.00000000000E+00 0.  1.
         21   -1    0    0  503  504 -0.00000000000E+00 -0.00000000000E+00 -0.15122603731E+02  0.15122603731E+02  0.00000000000E+00 0.  1.
         25    2    1    2    0    0  0.41073141591E+02  0.22504471993E+02  0.90238859690E+03  0.91220849073E+03  0.12500278607E+03 0.  0.
         25    2    1    2    0    0 -0.41073141591E+02 -0.22504471993E+02  0.42597739212E+03  0.44640270575E+03  0.12500073154E+03 0.  0.
          5    1    3    3  501    0  0.52597441791E+02 -0.28973270601E+02  0.71343465451E+03  0.71597279107E+03  0.47000000000E+01 0. -1.
         -5    1    3    3    0  501 -0.11524300199E+02  0.51477742594E+02  0.18895394239E+03  0.19623569966E+03  0.47000000000E+01 0. -1.
          5    1    4    4  502    0  0.18024008578E+02 -0.53517402500E+02  0.28202919670E+03  0.28766566539E+03  0.47000000000E+01 0.  1.
         -5    1    4    4    0  502 -0.59097150169E+02  0.31012930507E+02  0.14394819542E+03  0.15873704036E+03  0.47000000000E+01 0.  1.
<mgrwt>
<rscale>  0 0.28507575E+03</rscale>
<asrwt>0</asrwt>
<pdfrwt beam="1">  1       21 0.20669046E+00 0.28507575E+03</pdfrwt>
<pdfrwt beam="2">  1       21 0.23265555E-02 0.28507575E+03</pdfrwt>
<totfact> 0.11180675E+05</totfact>
</mgrwt>
</event>
<event>
 8    1  0.9974463E-006  0.4054336E+03  0.7546771E-02  0.1041914E+00
         21   -1    0    0  504  503  0.00000000000E+00  0.00000000000E+00  0.11080829125E+03  0.11080829125E+03  0.00000000000E+00 0. -1.
         21   -1    0    0  503  504 -0.00000000000E+00 -0.00000000000E+00 -0.37085757615E+03  0.37085757615E+03  0.00000000000E+00 0. -1.
         25    2    1    2    0    0 -0.62075286189E+02 -0.14628015771E+03 -0.11210461660E+03  0.23114055556E+03  0.12492912257E+03 0.  0.
         25    2    1    2    0    0  0.62075286189E+02  0.14628015771E+03 -0.14794466829E+03  0.25052531184E+03  0.12499632515E+03 0.  0.
          5    1    3    3  501    0  0.13659169493E+02 -0.74391604495E+02 -0.10064935320E+03  0.12598835672E+03  0.47000000000E+01 0. -1.
         -5    1    3    3    0  501 -0.75734455681E+02 -0.71888553219E+02 -0.11455263406E+02  0.10515219884E+03  0.47000000000E+01 0. -1.
          5    1    4    4  502    0 -0.31836532000E+02  0.66460763884E+02 -0.83138213321E+02  0.11119644967E+03  0.47000000000E+01 0. -1.
         -5    1    4    4    0  502  0.93911818188E+02  0.79819393830E+02 -0.64806454970E+02  0.13932886217E+03  0.47000000000E+01 0. -1.
<mgrwt>
<rscale>  0 0.40543357E+03</rscale>
<asrwt>0</asrwt>
<pdfrwt beam="1">  1       21 0.17047429E-01 0.40543357E+03</pdfrwt>
<pdfrwt beam="2">  1       21 0.57055012E-01 0.40543357E+03</pdfrwt>
<totfact> 0.83998415E+04</totfact>
</mgrwt>
</event>
<event>
 8    1  0.9974463E-006  0.3186531E+03  0.7546771E-02  0.1076271E+00
         21   -1    0    0  504  503  0.00000000000E+00  0.00000000000E+00  0.57678637850E+02  0.57678637850E+02  0.00000000000E+00 0.  1.
         21   -1    0    0  503  504 -0.00000000000E+00 -0.00000000000E+00 -0.44011018905E+03  0.44011018905E+03  0.00000000000E+00 0.  1.
         25    2    1    2    0    0  0.80833437185E+02 -0.36439458603E+02 -0.12316292870E+03  0.19661449741E+03  0.12500509939E+03 0.  0.
         25    2    1    2    0    0 -0.80833437185E+02  0.36439458603E+02 -0.25926862250E+03  0.30117432949E+03  0.12499551761E+03 0.  0.
          5    1    3    3  501    0  0.19728904041E+02 -0.72276769433E+02 -0.33382407213E+02  0.82156169370E+02  0.47000000000E+01 0.  1.
         -5    1    3    3    0  501  0.61104533144E+02  0.35837310829E+02 -0.89780521488E+02  0.11445832804E+03  0.47000000000E+01 0.  1.
          5    1    4    4  502    0  0.22442654833E+02 -0.19910937256E+02 -0.89973920315E+02  0.94960594539E+02  0.47000000000E+01 0.  1.
         -5    1    4    4    0  502 -0.10327609202E+03  0.56350395860E+02 -0.16929470218E+03  0.20621373495E+03  0.47000000000E+01 0.  1.
<mgrwt>
<rscale>  0 0.31865314E+03</rscale>
<asrwt>0</asrwt>
<pdfrwt beam="1">  1       21 0.88736365E-02 0.31865314E+03</pdfrwt>
<pdfrwt beam="2">  1       21 0.67709261E-01 0.31865314E+03</pdfrwt>
<totfact> 0.19283797E+05</totfact>
</mgrwt>
</event>
<event>
 8    1  0.9974463E-006  0.3132041E+03  0.7546771E-02  0.1078820E+00
         21   -1    0    0  504  503  0.00000000000E+00  0.00000000000E+00  0.18629617884E+03  0.18629617884E+03  0.00000000000E+00 0.  1.
         21   -1    0    0  503  504 -0.00000000000E+00 -0.00000000000E+00 -0.13164091254E+03  0.13164091254E+03  0.00000000000E+00 0.  1.
         25    2    1    2    0    0  0.96485495095E+01 -0.93782229205E+02  0.24180912588E+02  0.15842694618E+03  0.12500471879E+03 0.  0.
         25    2    1    2    0    0 -0.96485495095E+01  0.93782229205E+02  0.30474353716E+02  0.15951014520E+03  0.12500639649E+03 0.  0.
          5    1    3    3  501    0 -0.51667769378E+02 -0.69740661807E+02  0.30450705729E+02  0.92101323449E+02  0.47000000000E+01 0. -1.
         -5    1    3    3    0  501  0.61316318887E+02 -0.24041567398E+02 -0.62697931415E+01  0.66325622733E+02  0.47000000000E+01 0. -1.
          5    1    4    4  502    0 -0.48002296556E+01  0.11889712749E+03 -0.47107406388E+00  0.11908770314E+03  0.47000000000E+01 0.  1.
         -5    1    4    4    0  502 -0.48483198539E+01 -0.25114898280E+02  0.30945427780E+02  0.40422442053E+02  0.47000000000E+01 0.  1.
<mgrwt>
<rscale>  0 0.31320408E+03</rscale>
<asrwt>0</asrwt>
<pdfrwt beam="1">  1       21 0.28660951E-01 0.31320408E+03</pdfrwt>
<pdfrwt beam="2">  1       21 0.20252448E-01 0.31320408E+03</pdfrwt>
<totfact> 0.25509672E+05</totfact>
</mgrwt>
</event>
<event>
 8    1  0.9974463E-006  0.3080285E+03  0.7546771E-02  0.1081295E+00
         21   -1    0    0  504  503  0.00000000000E+00  0.00000000000E+00  0.39982704971E+03  0.39982704971E+03  0.00000000000E+00 0.  1.
         21   -1    0    0  503  504 -0.00000000000E+00 -0.00000000000E+00 -0.59326633289E+02  0.59326633289E+02  0.00000000000E+00 0.  1.
         25    2    1    2    0    0 -0.21757799707E+02  0.14272244304E+02  0.41869617510E+02  0.13436966594E+03  0.12500017380E+03 0.  0.
         25    2    1    2    0    0  0.21757799707E+02 -0.14272244304E+02  0.29863079891E+03  0.32478401706E+03  0.12500881917E+03 0.  0.
          5    1    3    3  501    0 -0.16916428781E+02 -0.12428649597E+02  0.82514929340E+02  0.85272741586E+02  0.47000000000E+01 0.  1.
         -5    1    3    3    0  501 -0.48413709255E+01  0.26700893901E+02 -0.40645311831E+02  0.49096924357E+02  0.47000000000E+01 0.  1.
          5    1    4    4  502    0 -0.33277829109E+02 -0.43389472744E+02  0.20517211895E+03  0.21238584851E+03  0.47000000000E+01 0.  1.
         -5    1    4    4    0  502  0.55035628815E+02  0.29117228441E+02  0.93458679964E+02  0.11239816854E+03  0.47000000000E+01 0.  1.
<mgrwt>
<rscale>  0 0.30802852E+03</rscale>
<asrwt>0</asrwt>
<pdfrwt beam="1">  1       21 0.61511852E-01 0.30802852E+03</pdfrwt>
<pdfrwt beam="2">  1       21 0.91271746E-02 0.30802852E+03</pdfrwt>
<totfact> 0.22711668E+05</totfact>
</mgrwt>
</event>
<event>
 8    1  0.9974463E-006  0.2950229E+03  0.7546771E-02  0.1087755E+00
         21   -1    0    0  504  503  0.00000000000E+00  0.00000000000E+00  0.31678987499E+02  0.31678987499E+02  0.00000000000E+00 0. -1.
         21   -1    0    0  503  504 -0.00000000000E+00 -0.00000000000E+00 -0.68687899993E+03  0.68687899993E+03  0.00000000000E+00 0. -1.
         25    2    1    2    0    0 -0.64686194520E+02  0.42790868493E+02 -0.35496700428E+03  0.38422118759E+03  0.12493592227E+03 0.  0.
         25    2    1    2    0    0  0.64686194520E+02 -0.42790868493E+02 -0.30023300815E+03  0.33433679985E+03  0.12500349739E+03 0.  0.
          5    1    3    3  501    0 -0.63694482155E+02  0.76458789065E+02 -0.32120362521E+03  0.33629866537E+03  0.47000000000E+01 0. -1.
         -5    1    3    3    0  501 -0.99171236464E+00 -0.33667920572E+02 -0.33763379075E+02  0.47922522217E+02  0.47000000000E+01 0. -1.
          5    1    4    4  502    0  0.49486264402E+02 -0.84453669518E+02 -0.24123138175E+03  0.26037661608E+03  0.47000000000E+01 0.  1.
         -5    1    4    4    0  502  0.15199930118E+02  0.41662801025E+02 -0.59001626400E+02  0.73960183766E+02  0.47000000000E+01 0.  1.
<mgrwt>
<rscale>  0 0.29502292E+03</rscale>
<asrwt>0</asrwt>
<pdfrwt beam="1">  1       21 0.48736910E-02 0.29502292E+03</pdfrwt>
<pdfrwt beam="2">  1       21 0.10567368E+00 0.29502292E+03</pdfrwt>
<totfact> 0.19582499E+05</totfact>
</mgrwt>
</event>
<event>
 8    1  0.9974463E-006  0.3208622E+03  0.7546771E-02  0.1075253E+00
         21   -1    0    0  504  503  0.00000000000E+00  0.00000000000E+00  0.14720191763E+03  0.14720191763E+03  0.00000000000E+00 0.  1.
         21   -1    0    0  503  504 -0.00000000000E+00 -0.00000000000E+00 -0.17484919018E+03  0.17484919018E+03  0.00000000000E+00 0.  1.
         25    2    1    2    0    0 -0.22623222812E+02  0.49867132053E+02  0.70845294135E+02  0.15375289145E+03  0.12498941899E+03 0.  0.
         25    2    1    2    0    0  0.22623222812E+02 -0.49867132053E+02 -0.98492566685E+02  0.16829821637E+03  0.12499985148E+03 0.  0.
          5    1    3    3  501    0 -0.11257024988E+02  0.61198636005E+02 -0.16720942868E+02  0.64603975039E+02  0.47000000000E+01 0. -1.
         -5    1    3    3    0  501 -0.11366197824E+02 -0.11331503951E+02  0.87566237003E+02  0.89148916414E+02  0.47000000000E+01 0. -1.
          5    1    4    4  502    0  0.33096682549E+02 -0.66569346762E+02 -0.72629814204E+01  0.74844567092E+02  0.47000000000E+01 0.  1.
         -5    1    4    4    0  502 -0.10473459736E+02  0.16702214709E+02 -0.91229585265E+02  0.93453649274E+02  0.47000000000E+01 0.  1.
<mgrwt>
<rscale>  0 0.32086219E+03</rscale>
<asrwt>0</asrwt>
<pdfrwt beam="1">  1       21 0.22646449E-01 0.32086219E+03</pdfrwt>
<pdfrwt beam="2">  1       21 0.26899875E-01 0.32086219E+03</pdfrwt>
<totfact> 0.23313002E+05</totfact>
</mgrwt>
</event>
<event>
 8    1  0.9974463E-006  0.3120332E+03  0.7546771E-02  0.1079375E+00
         21   -1    0    0  504  503  0.00000000000E+00  0.00000000000E+00  0.15823586616E+03  0.15823586616E+03  0.00000000000E+00 0. -1.
         21   -1    0    0  503  504 -0.00000000000E+00 -0.00000000000E+00 -0.15382849870E+03  0.15382849870E+03  0.00000000000E+00 0. -1.
         25    2    1    2    0    0  0.70880805722E+02  0.60489999205E+02  0.79126957331E+01  0.15610975519E+03  0.12499806514E+03 0.  0.
         25    2    1    2    0    0 -0.70880805722E+02 -0.60489999205E+02 -0.35053282743E+01  0.15595460968E+03  0.12500569719E+03 0.  0.
          5    1    3    3  501    0 -0.22249912774E+02 -0.78037131741E+01  0.29989492142E+02  0.38437172070E+02  0.47000000000E+01 0. -1.
         -5    1    3    3    0  501  0.93130718496E+02  0.68293712379E+02 -0.22076796409E+02  0.11767258312E+03  0.47000000000E+01 0. -1.
          5    1    4    4  502    0 -0.10063754830E+03 -0.24023306210E+02  0.15980241627E+02  0.10479739258E+03  0.47000000000E+01 0. -1.
         -5    1    4    4    0  502  0.29756742578E+02 -0.36466692995E+02 -0.19485569901E+02  0.51157217098E+02  0.47000000000E+01 0. -1.
<mgrwt>
<rscale>  0 0.31203324E+03</rscale>
<asrwt>0</asrwt>
<pdfrwt beam="1">  1       21 0.24343979E-01 0.31203324E+03</pdfrwt>
<pdfrwt beam="2">  1       21 0.23665923E-01 0.31203324E+03</pdfrwt>
<totfact> 0.26040367E+05</totfact>
</mgrwt>
</event>
<event>
 8    1  0.9974463E-006  0.2628149E+03  0.7546771E-02  0.1105464E+00
         21   -1    0    0  504  503  0.00000000000E+00  0.00000000000E+00  0.10591664623E+03  0.10591664623E+03  0.00000000000E+00 0. -1.
         21   -1    0    0  503  504 -0.00000000000E+00 -0.00000000000E+00 -0.16303304933E+03  0.16303304933E+03  0.00000000000E+00 0. -1.
         25    2    1    2    0    0  0.16829167806E+02 -0.18137852334E+02  0.42722061071E+01  0.12749787901E+03  0.12500101932E+03 0.  0.
         25    2    1    2    0    0 -0.16829167806E+02  0.18137852334E+02 -0.61388609214E+02  0.14145181655E+03  0.12501140943E+03 0.  0.
          5    1    3    3  501    0 -0.35290246266E+02 -0.35593947129E+02 -0.33651325424E+02  0.60554374380E+02  0.47000000000E+01 0.  1.
         -5    1    3    3    0  501  0.52119414072E+02  0.17456094795E+02  0.37923531531E+02  0.66943504632E+02  0.47000000000E+01 0.  1.
          5    1    4    4  502    0  0.10831882372E+02  0.24269294478E+02 -0.94116311495E+02  0.97909644160E+02  0.47000000000E+01 0. -1.
         -5    1    4    4    0  502 -0.27661050178E+02 -0.61314421438E+01  0.32727702281E+02  0.43542172389E+02  0.47000000000E+01 0. -1.
<mgrwt>
<rscale>  0 0.26281487E+03</rscale>
<asrwt>0</asrwt>
<pdfrwt beam="1">  1       21 0.16294869E-01 0.26281487E+03</pdfrwt>
<pdfrwt beam="2">  1       21 0.25082007E-01 0.26281487E+03</pdfrwt>
<totfact> 0.50080468E+05</totfact>
</mgrwt>
</event>
<event>
 8    1  0.9974463E-006  0.2681707E+03  0.7546771E-02  0.1102331E+00
         21   -1    0    0  504  503  0.00000000000E+00  0.00000000000E+00  0.10861088183E+03  0.10861088183E+03  0.00000000000E+00 0.  1.
         21   -1    0    0  503  504 -0.00000000000E+00 -0.00000000000E+00 -0.16553481767E+03  0.16553481767E+03  0.00000000000E+00 0.  1.
         25    2    1    2    0    0  0.27643498278E+01  0.72932843285E+01 -0.77416523479E+02  0.14723779689E+03  0.12499926839E+03 0.  0.
         25    2    1    2    0    0 -0.27643498278E+01 -0.72932843285E+01  0.20492587634E+02  0.12690790261E+03  0.12499934389E+03 0.  0.
          5    1    3    3  501    0  0.17316157901E+02  0.51001911407E+02  0.33161726291E+01  0.54167622179E+02  0.47000000000E+01 0. -1.
         -5    1    3    3    0  501 -0.14551808073E+02 -0.43708627079E+02 -0.80732696108E+02  0.93070174708E+02  0.47000000000E+01 0. -1.
          5    1    4    4  502    0  0.50215990031E+02 -0.97574226735E+01 -0.24763712242E+02  0.57027926457E+02  0.47000000000E+01 0.  1.
         -5    1    4    4    0  502 -0.52980339859E+02  0.24641383450E+01  0.45256299875E+02  0.69879976157E+02  0.47000000000E+01 0.  1.
<mgrwt>
<rscale>  0 0.26817071E+03</rscale>
<asrwt>0</asrwt>
<pdfrwt beam="1">  1       21 0.16709366E-01 0.26817071E+03</pdfrwt>
<pdfrwt beam="2">  1       21 0.25466895E-01 0.26817071E+03</pdfrwt>
<totfact> 0.46383369E+05</totfact>
</mgrwt>
</event>
<event>
 8    1  0.9974463E-006  0.4185820E+03  0.7546771E-02  0.1037529E+00
         21   -1    0    0  504  503  0.00000000000E+00  0.00000000000E+00  0.10229176473E+04  0.10229176473E+04  0.00000000000E+00 0.  1.
         21   -1    0    0  503  504 -0.00000000000E+00 -0.00000000000E+00 -0.42821353507E+02  0.42821353507E+02  0.00000000000E+00 0.  1.
         25    2    1    2    0    0 -0.77766119339E+02 -0.17951545558E+02  0.86601529677E+03  0.87862352230E+03  0.12500788935E+03 0.  0.
         25    2    1    2    0    0  0.77766119339E+02  0.17951545558E+02  0.11408099698E+03  0.18711547846E+03  0.12501160387E+03 0.  0.
          5    1    3    3  501    0 -0.95233686177E+02 -0.38623193024E+02  0.80697656648E+03  0.81350751372E+03  0.47000000000E+01 0. -1.
         -5    1    3    3    0  501  0.17467566838E+02  0.20671647465E+02  0.59038730290E+02  0.65116008588E+02  0.47000000000E+01 0. -1.
          5    1    4    4  502    0 -0.29027212744E+01  0.43154501350E+02 -0.18806079193E+01  0.43547255524E+02  0.47000000000E+01 0. -1.
         -5    1    4    4    0  502  0.80668840614E+02 -0.25202955791E+02  0.11596160490E+03  0.14356822294E+03  0.47000000000E+01 0. -1.
<mgrwt>
<rscale>  0 0.41858198E+03</rscale>
<asrwt>0</asrwt>
<pdfrwt beam="1">  1       21 0.15737193E+00 0.41858198E+03</pdfrwt>
<pdfrwt beam="2">  1       21 0.65879013E-02 0.41858198E+03</pdfrwt>
<totfact> 0.40269417E+04</totfact>
</mgrwt>
</event>
<event>
 8    1  0.9974463E-006  0.3070140E+03  0.7546771E-02  0.1081786E+00
         21   -1    0    0  504  503  0.00000000000E+00  0.00000000000E+00  0.39437908290E+02  0.39437908290E+02  0.00000000000E+00 0. -1.
         21   -1    0    0  503  504 -0.00000000000E+00 -0.00000000000E+00 -0.59750635522E+03  0.59750635522E+03  0.00000000000E+00 0. -1.
         25    2    1    2    0    0  0.58694656567E+02  0.66855312252E+01 -0.41737687362E+03  0.43968032508E+03  0.12500229834E+03 0.  0.
         25    2    1    2    0    0 -0.58694656567E+02 -0.66855312252E+01 -0.14069157331E+03  0.19726393843E+03  0.12501673315E+03 0.  0.
          5    1    3    3  501    0 -0.38835679634E+02 -0.49663738656E+00 -0.94277342574E+02  0.10207234681E+03  0.47000000000E+01 0.  1.
         -5    1    3    3    0  501  0.97530336201E+02  0.71821686118E+01 -0.32309953104E+03  0.33760797826E+03  0.47000000000E+01 0.  1.
          5    1    4    4  502    0 -0.62288665879E+02 -0.12070760166E+02 -0.77611226814E+01  0.64092949482E+02  0.47000000000E+01 0. -1.
         -5    1    4    4    0  502  0.35940093119E+01  0.53852289409E+01 -0.13293045063E+03  0.13317098895E+03  0.47000000000E+01 0. -1.
<mgrwt>
<rscale>  0 0.30701401E+03</rscale>
<asrwt>0</asrwt>
<pdfrwt beam="1">  1       21 0.60673710E-02 0.30701401E+03</pdfrwt>
<pdfrwt beam="2">  1       21 0.91924048E-01 0.30701401E+03</pdfrwt>
<totfact> 0.18706229E+05</totfact>
</mgrwt>
</event>
<event>
 8    1  0.9974463E-006  0.3149834E+03  0.7546771E-02  0.1077982E+00
         21   -1    0    0  504  503  0.00000000000E+00  0.00000000000E+00  0.19711538204E+02  0.19711538204E+02  0.00000000000E+00 0.  1.
         21   -1    0    0  503  504 -0.00000000000E+00 -0.00000000000E+00 -0.12583304515E+04  0.12583304515E+04  0.00000000000E+00 0.  1.
         25    2    1    2    0    0  0.94601594663E+01  0.55090198697E+02 -0.93501394470E+03  0.94498721177E+03  0.12500131607E+03 0.  0.
         25    2    1    2    0    0 -0.94601594663E+01 -0.55090198697E+02 -0.30360496855E+03  0.33305477788E+03  0.12500033414E+03 0.  0.
          5    1    3    3  501    0 -0.30393385744E+02 -0.28076297433E+02 -0.38866861185E+03  0.39089310075E+03  0.47000000000E+01 0. -1.
         -5    1    3    3    0  501  0.39853545210E+02  0.83166496130E+02 -0.54634533285E+03  0.55409411103E+03  0.47000000000E+01 0. -1.
          5    1    4    4  502    0  0.20077702777E+02 -0.25030562779E+02 -0.28484580138E+03  0.28668600207E+03  0.47000000000E+01 0. -1.
         -5    1    4    4    0  502 -0.29537862243E+02 -0.30059635918E+02 -0.18759167172E+02  0.46368775813E+02  0.47000000000E+01 0. -1.
<mgrwt>
<rscale>  0 0.31498336E+03</rscale>
<asrwt>0</asrwt>
<pdfrwt beam="1">  1       21 0.30325430E-02 0.31498336E+03</pdfrwt>
<pdfrwt beam="2">  1       21 0.19358939E+00 0.31498336E+03</pdfrwt>
<totfact> 0.86707365E+04</totfact>
</mgrwt>
</event>
<event>
 8    1  0.9974463E-006  0.5532436E+03  0.7546771E-02  0.1000746E+00
         21   -1    0    0  504  503  0.00000000000E+00  0.00000000000E+00  0.80657138793E+03  0.80657138793E+03  0.00000000000E+00 0.  1.
         21   -1    0    0  503  504 -0.00000000000E+00 -0.00000000000E+00 -0.94870255402E+02  0.94870255402E+02  0.00000000000E+00 0.  1.
         25    2    1    2    0    0 -0.24004596662E+03 -0.54440665963E+02  0.32720991755E+03  0.42810887691E+03  0.12500011257E+03 0.  0.
         25    2    1    2    0    0  0.24004596662E+03  0.54440665963E+02  0.38449121497E+03  0.47333276642E+03  0.12499824467E+03 0.  0.
          5    1    3    3  501    0 -0.14660163088E+03 -0.93428579085E+02  0.19078836236E+03  0.25815349461E+03  0.47000000000E+01 0.  1.
         -5    1    3    3    0  501 -0.93444335741E+02  0.38987913122E+02  0.13642155520E+03  0.16995538230E+03  0.47000000000E+01 0.  1.
          5    1    4    4  502    0  0.54165641111E+02 -0.32870632342E+02  0.50204317660E+02  0.80975049609E+02  0.47000000000E+01 0.  1.
         -5    1    4    4    0  502  0.18588032551E+03  0.87311298305E+02  0.33428689731E+03  0.39235771681E+03  0.47000000000E+01 0.  1.
<mgrwt>
<rscale>  0 0.55324365E+03</rscale>
<asrwt>0</asrwt>
<pdfrwt beam="1">  1       21 0.12408790E+00 0.55324365E+03</pdfrwt>
<pdfrwt beam="2">  1       21 0.14595424E-01 0.55324365E+03</pdfrwt>
<totfact> 0.17494317E+04</totfact>
</mgrwt>
</event>
<event>
 8    1  0.9974463E-006  0.2567384E+03  0.7546771E-02  0.1109119E+00
         21   -1    0    0  504  503  0.00000000000E+00  0.00000000000E+00  0.46046722564E+03  0.46046722564E+03  0.00000000000E+00 0. -1.
         21   -1    0    0  503  504 -0.00000000000E+00 -0.00000000000E+00 -0.35786806558E+02  0.35786806558E+02  0.00000000000E+00 0. -1.
         25    2    1    2    0    0 -0.92497420024E+01  0.18665331581E+02  0.25193638086E+03  0.28201296371E+03  0.12500167747E+03 0.  0.
         25    2    1    2    0    0  0.92497420024E+01 -0.18665331581E+02  0.17274403822E+03  0.21424106849E+03  0.12499912142E+03 0.  0.
          5    1    3    3  501    0  0.23490917478E+02  0.56479088889E+02  0.69121114527E+02  0.92420393633E+02  0.47000000000E+01 0. -1.
         -5    1    3    3    0  501 -0.32740659481E+02 -0.37813757308E+02  0.18281526633E+03  0.18959257008E+03  0.47000000000E+01 0. -1.
          5    1    4    4  502    0 -0.42537204637E+02 -0.30466332953E+02  0.27033605817E+02  0.59080598045E+02  0.47000000000E+01 0. -1.
         -5    1    4    4    0  502  0.51786946639E+02  0.11801001372E+02  0.14571043241E+03  0.15516047044E+03  0.47000000000E+01 0. -1.
<mgrwt>
<rscale>  0 0.25673840E+03</rscale>
<asrwt>0</asrwt>
<pdfrwt beam="1">  1       21 0.70841108E-01 0.25673840E+03</pdfrwt>
<pdfrwt beam="2">  1       21 0.55056629E-02 0.25673840E+03</pdfrwt>
<totfact> 0.40600421E+05</totfact>
</mgrwt>
</event>
<event>
 8    1  0.9974463E-006  0.2699049E+03  0.7546771E-02  0.1101334E+00
         21   -1    0    0  504  503  0.00000000000E+00  0.00000000000E+00  0.90093354143E+02  0.90093354143E+02  0.00000000000E+00 0.  1.
         21   -1    0    0  503  504 -0.00000000000E+00 -0.00000000000E+00 -0.20214774537E+03  0.20214774537E+03  0.00000000000E+00 0.  1.
         25    2    1    2    0    0 -0.38241331875E+02  0.17153256907E+02 -0.24840740185E+02  0.13416519714E+03  0.12500641609E+03 0.  0.
         25    2    1    2    0    0  0.38241331875E+02 -0.17153256907E+02 -0.87213651039E+02  0.15807590237E+03  0.12500054519E+03 0.  0.
          5    1    3    3  501    0 -0.57233639587E+02  0.58071600166E+02  0.15601655947E+01  0.81685521134E+02  0.47000000000E+01 0. -1.
         -5    1    3    3    0  501  0.18992307713E+02 -0.40918343259E+02 -0.26400905780E+02  0.52479676002E+02  0.47000000000E+01 0. -1.
          5    1    4    4  502    0 -0.40844567008E+01 -0.64622509780E+02 -0.61140452040E+02  0.89179574077E+02  0.47000000000E+01 0. -1.
         -5    1    4    4    0  502  0.42325788576E+02  0.47469252873E+02 -0.26073198999E+02  0.68896328298E+02  0.47000000000E+01 0. -1.
<mgrwt>
<rscale>  0 0.26990493E+03</rscale>
<asrwt>0</asrwt>
<pdfrwt beam="1">  1       21 0.13860516E-01 0.26990493E+03</pdfrwt>
<pdfrwt beam="2">  1       21 0.31099653E-01 0.26990493E+03</pdfrwt>
<totfact> 0.44273508E+05</totfact>
</mgrwt>
</event>
<event>
 8    1  0.9974463E-006  0.4487242E+03  0.7546771E-02  0.1028103E+00
         21   -1    0    0  504  503  0.00000000000E+00  0.00000000000E+00  0.97971621705E+03  0.97971621705E+03  0.00000000000E+00 0.  1.
         21   -1    0    0  503  504 -0.00000000000E+00 -0.00000000000E+00 -0.51380536745E+02  0.51380536745E+02  0.00000000000E+00 0.  1.
         25    2    1    2    0    0 -0.11874891712E+03  0.12599625985E+03  0.62229246065E+03  0.65791394161E+03  0.12500594056E+03 0.  0.
         25    2    1    2    0    0  0.11874891712E+03 -0.12599625985E+03  0.30604321965E+03  0.37318281218E+03  0.12500638461E+03 0.  0.
          5    1    3    3  501    0  0.96044147207E+01  0.20934452956E+02  0.24017357697E+03  0.24132122405E+03  0.47000000000E+01 0. -1.
         -5    1    3    3    0  501 -0.12835333184E+03  0.10506180690E+03  0.38211888368E+03  0.41659271756E+03  0.47000000000E+01 0. -1.
          5    1    4    4  502    0  0.16950598789E+02 -0.82602991991E+02  0.60727587523E+02  0.10402166588E+03  0.47000000000E+01 0. -1.
         -5    1    4    4    0  502  0.10179831833E+03 -0.43393267862E+02  0.24531563213E+03  0.26916114630E+03  0.47000000000E+01 0. -1.
<mgrwt>
<rscale>  0 0.44872417E+03</rscale>
<asrwt>0</asrwt>
<pdfrwt beam="1">  1       21 0.15072556E+00 0.44872417E+03</pdfrwt>
<pdfrwt beam="2">  1       21 0.79046987E-02 0.44872417E+03</pdfrwt>
<totfact> 0.32611377E+04</totfact>
</mgrwt>
</event>
<event>
 8    1  0.9974463E-006  0.3450331E+03  0.7546771E-02  0.1064672E+00
         21   -1    0    0  504  503  0.00000000000E+00  0.00000000000E+00  0.53202364355E+02  0.53202364355E+02  0.00000000000E+00 0. -1.
         21   -1    0    0  503  504 -0.00000000000E+00 -0.00000000000E+00 -0.55941057003E+03  0.55941057003E+03  0.00000000000E+00 0. -1.
         25    2    1    2    0    0  0.92044325278E+02  0.70614678397E+02 -0.20684692408E+03  0.26808452865E+03  0.12500029552E+03 0.  0.
         25    2    1    2    0    0 -0.92044325278E+02 -0.70614678397E+02 -0.29936128160E+03  0.34452840573E+03  0.12499621921E+03 0.  0.
          5    1    3    3  501    0 -0.27521035962E+02  0.28411813238E+01 -0.63579283292E+02  0.69497445965E+02  0.47000000000E+01 0. -1.
         -5    1    3    3    0  501  0.11956536124E+03  0.67773497073E+02 -0.14326764079E+03  0.19858708269E+03  0.47000000000E+01 0. -1.
          5    1    4    4  502    0 -0.24801907211E+02  0.36198711376E+02 -0.82792080657E+02  0.93819507172E+02  0.47000000000E+01 0.  1.
         -5    1    4    4    0  502 -0.67242418067E+02 -0.10681338977E+03 -0.21656920094E+03  0.25070889856E+03  0.47000000000E+01 0.  1.
<mgrwt>
<rscale>  0 0.34503313E+03</rscale>
<asrwt>0</asrwt>
<pdfrwt beam="1">  1       21 0.81849789E-02 0.34503313E+03</pdfrwt>
<pdfrwt beam="2">  1       21 0.86063167E-01 0.34503313E+03</pdfrwt>
<totfact> 0.12818193E+05</totfact>
</mgrwt>
</event>
<event>
 8    1  0.9974463E-006  0.2779070E+03  0.7546771E-02  0.1096838E+00
         21   -1    0    0  504  503  0.00000000000E+00  0.00000000000E+00  0.14863517656E+03  0.14863517656E+03  0.00000000000E+00 0.  1.
         21   -1    0    0  503  504 -0.00000000000E+00 -0.00000000000E+00 -0.12990245378E+03  0.12990245378E+03  0.00000000000E+00 0.  1.
         25    2    1    2    0    0 -0.34012940663E+02  0.44505629461E+02 -0.14221569278E+02  0.13771290212E+03  0.12499983677E+03 0.  0.
         25    2    1    2    0    0  0.34012940663E+02 -0.44505629461E+02  0.32954292063E+02  0.14082472822E+03  0.12493193158E+03 0.  0.
          5    1    3    3  501    0  0.33683651565E+02  0.29454896292E+01  0.31063152518E+02  0.46154888542E+02  0.47000000000E+01 0.  1.
         -5    1    3    3    0  501 -0.67696592229E+02  0.41560139832E+02 -0.45284721797E+02  0.91558013578E+02  0.47000000000E+01 0.  1.
          5    1    4    4  502    0 -0.33000656214E+02 -0.35890616956E+02 -0.21913289231E+02  0.53660618157E+02  0.47000000000E+01 0. -1.
         -5    1    4    4    0  502  0.67013596877E+02 -0.86150125056E+01  0.54867581294E+02  0.87164110068E+02  0.47000000000E+01 0. -1.
<mgrwt>
<rscale>  0 0.27790699E+03</rscale>
<asrwt>0</asrwt>
<pdfrwt beam="1">  1       21 0.22866950E-01 0.27790699E+03</pdfrwt>
<pdfrwt beam="2">  1       21 0.19984993E-01 0.27790699E+03</pdfrwt>
<totfact> 0.40753798E+05</totfact>
</mgrwt>
</event>
<event>
 8    1  0.9974463E-006  0.2986809E+03  0.7546771E-02  0.1085902E+00
         21   -1    0    0  504  503  0.00000000000E+00  0.00000000000E+00  0.15850080569E+02  0.15850080569E+02  0.00000000000E+00 0. -1.
         21   -1    0    0  503  504 -0.00000000000E+00 -0.00000000000E+00 -0.14070950335E+04  0.14070950335E+04  0.00000000000E+00 0. -1.
         25    2    1    2    0    0 -0.78061394001E+02 -0.19952449116E+02 -0.63066325461E+03  0.64796059485E+03  0.12500044118E+03 0.  0.
         25    2    1    2    0    0  0.78061394001E+02  0.19952449116E+02 -0.76058169834E+03  0.77498451924E+03  0.12499921503E+03 0.  0.
          5    1    3    3  501    0 -0.90790269475E+02 -0.42619767683E+02 -0.30234294297E+03  0.31857913113E+03  0.47000000000E+01 0. -1.
         -5    1    3    3    0  501  0.12728875474E+02  0.22667318567E+02 -0.32832031165E+03  0.32938146372E+03  0.47000000000E+01 0. -1.
          5    1    4    4  502    0  0.15746791005E+01  0.60977447632E+02 -0.28003488760E+03  0.28663976872E+03  0.47000000000E+01 0. -1.
         -5    1    4    4    0  502  0.76486714900E+02 -0.41024998515E+02 -0.48054681073E+03  0.48834475052E+03  0.47000000000E+01 0. -1.
<mgrwt>
<rscale>  0 0.29868090E+03</rscale>
<asrwt>0</asrwt>
<pdfrwt beam="1">  1       21 0.24384747E-02 0.29868090E+03</pdfrwt>
<pdfrwt beam="2">  1       21 0.21647609E+00 0.29868090E+03</pdfrwt>
<totfact> 0.89111213E+04</totfact>
</mgrwt>
</event>
<event>
 8    1  0.9974463E-006  0.2649488E+03  0.7546771E-02  0.1104206E+00
         21   -1    0    0  504  503  0.00000000000E+00  0.00000000000E+00  0.31822316621E+03  0.31822316621E+03  0.00000000000E+00 0.  1.
         21   -1    0    0  503  504 -0.00000000000E+00 -0.00000000000E+00 -0.55148310181E+02  0.55148310181E+02  0.00000000000E+00 0.  1.
         25    2    1    2    0    0  0.39345859238E+01  0.61637556501E+01  0.19251054348E+03  0.22964709130E+03  0.12499601730E+03 0.  0.
         25    2    1    2    0    0 -0.39345859238E+01 -0.61637556501E+01  0.70564312555E+02  0.14372438510E+03  0.12499561518E+03 0.  0.
          5    1    3    3  501    0 -0.46794209016E+02 -0.35039312001E+02  0.76270119157E+02  0.96211602518E+02  0.47000000000E+01 0.  1.
         -5    1    3    3    0  501  0.50728794940E+02  0.41203067651E+02  0.11624042432E+03  0.13343548878E+03  0.47000000000E+01 0.  1.
          5    1    4    4  502    0  0.52641698902E+02  0.26912014353E+02  0.37509133897E+02  0.70174283790E+02  0.47000000000E+01 0. -1.
         -5    1    4    4    0  502 -0.56576284826E+02 -0.33075770003E+02  0.33055178658E+02  0.73550101306E+02  0.47000000000E+01 0. -1.
<mgrwt>
<rscale>  0 0.26494882E+03</rscale>
<asrwt>0</asrwt>
<pdfrwt beam="1">  1       21 0.48957409E-01 0.26494882E+03</pdfrwt>
<pdfrwt beam="2">  1       21 0.84843556E-02 0.26494882E+03</pdfrwt>
<totfact> 0.42456631E+05</totfact>
</mgrwt>
</event>
<event>
 8    1  0.9974463E-006  0.2926595E+03  0.7546771E-02  0.1088969E+00
         21   -1    0    0  504  503  0.00000000000E+00  0.00000000000E+00  0.52105254749E+01  0.52105254749E+01  0.00000000000E+00 0. -1.
         21   -1    0    0  503  504 -0.00000000000E+00 -0.00000000000E+00 -0.41094496791E+04  0.41094496791E+04  0.00000000000E+00 0. -1.
         25    2    1    2    0    0 -0.35409042920E+02 -0.64576571106E+02 -0.17842020675E+04  0.17900908193E+04  0.12499675854E+03 0.  0.
         25    2    1    2    0    0  0.35409042920E+02  0.64576571106E+02 -0.23200370861E+04  0.23245693853E+04  0.12500724909E+03 0.  0.
          5    1    3    3  501    0 -0.66995942383E+02 -0.27052227542E+02 -0.53018392037E+03  0.53510499786E+03  0.47000000000E+01 0. -1.
         -5    1    3    3    0  501  0.31586899463E+02 -0.37524343564E+02 -0.12540181471E+04  0.12549858214E+04  0.47000000000E+01 0. -1.
          5    1    4    4  502    0 -0.61724214503E+01  0.89671626198E+02 -0.11507213286E+04  0.11542360094E+04  0.47000000000E+01 0. -1.
         -5    1    4    4    0  502  0.41581464371E+02 -0.25095055092E+02 -0.11693157575E+04  0.11703333759E+04  0.47000000000E+01 0. -1.
<mgrwt>
<rscale>  0 0.29265948E+03</rscale>
<asrwt>0</asrwt>
<pdfrwt beam="1">  1       21 0.80161805E-03 0.29265948E+03</pdfrwt>
<pdfrwt beam="2">  1       21 0.63222402E+00 0.29265948E+03</pdfrwt>
<totfact> 0.89540617E+02</totfact>
</mgrwt>
</event>
<event>
 8    1  0.9974463E-006  0.3548253E+03  0.7546771E-02  0.1060652E+00
         21   -1    0    0  504  503  0.00000000000E+00  0.00000000000E+00  0.82616434304E+02  0.82616434304E+02  0.00000000000E+00 0.  1.
         21   -1    0    0  503  504 -0.00000000000E+00 -0.00000000000E+00 -0.38098048968E+03  0.38098048968E+03  0.00000000000E+00 0.  1.
         25    2    1    2    0    0  0.37142941720E+02  0.78703780917E+02 -0.26801612989E+03  0.30827398982E+03  0.12500529456E+03 0.  0.
         25    2    1    2    0    0 -0.37142941720E+02 -0.78703780917E+02 -0.30347925482E+02  0.15532293416E+03  0.12502133436E+03 0.  0.
          5    1    3    3  501    0  0.74046452522E+02  0.84434798781E+02 -0.22191876424E+03  0.24876121141E+03  0.47000000000E+01 0. -1.
         -5    1    3    3    0  501 -0.36903510802E+02 -0.57310178640E+01 -0.46097365648E+02  0.59512778417E+02  0.47000000000E+01 0. -1.
          5    1    4    4  502    0  0.41807593789E+01  0.98121905650E+01 -0.53553936240E+02  0.54807589980E+02  0.47000000000E+01 0. -1.
         -5    1    4    4    0  502 -0.41323701099E+02 -0.88515971482E+02  0.23206010758E+02  0.10051534418E+03  0.47000000000E+01 0. -1.
<mgrwt>
<rscale>  0 0.35482531E+03</rscale>
<asrwt>0</asrwt>
<pdfrwt beam="1">  1       21 0.12710221E-01 0.35482531E+03</pdfrwt>
<pdfrwt beam="2">  1       21 0.58612382E-01 0.35482531E+03</pdfrwt>
<totfact> 0.13773034E+05</totfact>
</mgrwt>
</event>
<event>
 8    1  0.9974463E-006  0.2508381E+03  0.7546771E-02  0.1112776E+00
         21   -1    0    0  504  503  0.00000000000E+00  0.00000000000E+00  0.14128630760E+03  0.14128630760E+03  0.00000000000E+00 0.  1.
         21   -1    0    0  503  504 -0.00000000000E+00 -0.00000000000E+00 -0.11133376924E+03  0.11133376924E+03  0.00000000000E+00 0.  1.
         25    2    1    2    0    0 -0.74507766662E+01  0.86585211210E+00  0.21908029017E+02  0.12713766039E+03  0.12501103624E+03 0.  0.
         25    2    1    2    0    0  0.74507766662E+01 -0.86585211210E+00  0.80445093399E+01  0.12548241645E+03  0.12499943574E+03 0.  0.
          5    1    3    3  501    0 -0.58302401234E+02  0.16101797751E+02 -0.14774550584E+02  0.62440493475E+02  0.47000000000E+01 0. -1.
         -5    1    3    3    0  501  0.50851624568E+02 -0.15235945639E+02  0.36682579601E+02  0.64697166916E+02  0.47000000000E+01 0. -1.
          5    1    4    4  502    0  0.14233307820E+02 -0.19475407591E+02  0.62600738772E+02  0.67251922256E+02  0.47000000000E+01 0.  1.
         -5    1    4    4    0  502 -0.67825311537E+01  0.18609555479E+02 -0.54556229432E+02  0.58230494192E+02  0.47000000000E+01 0.  1.
<mgrwt>
<rscale>  0 0.25083809E+03</rscale>
<asrwt>0</asrwt>
<pdfrwt beam="1">  1       21 0.21736355E-01 0.25083809E+03</pdfrwt>
<pdfrwt beam="2">  1       21 0.17128272E-01 0.25083809E+03</pdfrwt>
<totfact> 0.60139524E+05</totfact>
</mgrwt>
</event>
<event>
 8    1  0.9974463E-006  0.3256019E+03  0.7546771E-02  0.1073100E+00
         21   -1    0    0  504  503  0.00000000000E+00  0.00000000000E+00  0.10728546798E+04  0.10728546798E+04  0.00000000000E+00 0. -1.
         21   -1    0    0  503  504 -0.00000000000E+00 -0.00000000000E+00 -0.24704330044E+02  0.24704330044E+02  0.00000000000E+00 0. -1.
         25    2    1    2    0    0 -0.60529641908E+02 -0.84724141607E+02  0.50344260436E+03  0.52907618997E+03  0.12500056473E+03 0.  0.
         25    2    1    2    0    0  0.60529641908E+02  0.84724141607E+02  0.54470774535E+03  0.56848281983E+03  0.12499668349E+03 0.  0.
          5    1    3    3  501    0 -0.61186781010E+02 -0.98877554811E+02  0.25629195217E+03  0.28147512814E+03  0.47000000000E+01 0. -1.
         -5    1    3    3    0  501  0.65713910241E+00  0.14153413204E+02  0.24715065219E+03  0.24760106183E+03  0.47000000000E+01 0. -1.
          5    1    4    4  502    0 -0.15555458305E+01 -0.29260521691E+02  0.15151183126E+03  0.15439081211E+03  0.47000000000E+01 0. -1.
         -5    1    4    4    0  502  0.62085187738E+02  0.11398466330E+03  0.39319591409E+03  0.41409200772E+03  0.47000000000E+01 0. -1.
<mgrwt>
<rscale>  0 0.32560194E+03</rscale>
<asrwt>0</asrwt>
<pdfrwt beam="1">  1       21 0.16505453E+00 0.32560194E+03</pdfrwt>
<pdfrwt beam="2">  1       21 0.38006670E-02 0.32560194E+03</pdfrwt>
<totfact> 0.93452907E+04</totfact>
</mgrwt>
</event>
<event>
 8    1  0.9974463E-006  0.2540475E+03  0.7546771E-02  0.1110773E+00
         21   -1    0    0  504  503  0.00000000000E+00  0.00000000000E+00  0.33473210463E+03  0.33473210463E+03  0.00000000000E+00 0.  1.
         21   -1    0    0  503  504 -0.00000000000E+00 -0.00000000000E+00 -0.48202838045E+02  0.48202838045E+02  0.00000000000E+00 0.  1.
         25    2    1    2    0    0  0.14551947678E+02 -0.17025901166E+02  0.13905108992E+03  0.18831154027E+03  0.12499756038E+03 0.  0.
         25    2    1    2    0    0 -0.14551947678E+02  0.17025901166E+02  0.14747817667E+03  0.19462340241E+03  0.12500726251E+03 0.  0.
          5    1    3    3  501    0 -0.17075136022E+02  0.25858228186E+02  0.13041321537E+03  0.13412645145E+03  0.47000000000E+01 0.  1.
         -5    1    3    3    0  501  0.31627083699E+02 -0.42884129352E+02  0.86378745446E+01  0.54185088819E+02  0.47000000000E+01 0.  1.
          5    1    4    4  502    0 -0.57426035272E+02  0.47073047791E+02  0.88506551271E+02  0.11562491502E+03  0.47000000000E+01 0. -1.
         -5    1    4    4    0  502  0.42874087595E+02 -0.30047146625E+02  0.58971625398E+02  0.78998487387E+02  0.47000000000E+01 0. -1.
<mgrwt>
<rscale>  0 0.25404753E+03</rscale>
<asrwt>0</asrwt>
<pdfrwt beam="1">  1       21 0.51497245E-01 0.25404753E+03</pdfrwt>
<pdfrwt beam="2">  1       21 0.74158215E-02 0.25404753E+03</pdfrwt>
<totfact> 0.48424268E+05</totfact>
</mgrwt>
</event>
<event>
 8    1  0.9974463E-006  0.2627937E+03  0.7546771E-02  0.1105476E+00
         21   -1    0    0  504  503  0.00000000000E+00  0.00000000000E+00  0.22549215404E+04  0.22549215404E+04  0.00000000000E+00 0.  1.
         21   -1    0    0  503  504 -0.00000000000E+00 -0.00000000000E+00 -0.76566463149E+01  0.76566463149E+01  0.00000000000E+00 0.  1.
         25    2    1    2    0    0 -0.28842242508E+02 -0.19457055643E+02  0.13019442652E+04  0.13083966750E+04  0.12503014608E+03 0.  0.
         25    2    1    2    0    0  0.28842242508E+02  0.19457055643E+02  0.94532062882E+03  0.95418151168E+03  0.12498325482E+03 0.  0.
          5    1    3    3  501    0  0.12746017624E+02  0.40498278807E+02  0.80167323274E+03  0.80281045935E+03  0.47000000000E+01 0.  1.
         -5    1    3    3    0  501 -0.41588260131E+02 -0.59955334450E+02  0.50027103249E+03  0.50558621566E+03  0.47000000000E+01 0.  1.
          5    1    4    4  502    0  0.46296549782E+02  0.25796095140E+02  0.92395736750E+03  0.92548804206E+03  0.47000000000E+01 0.  1.
         -5    1    4    4    0  502 -0.17454307275E+02 -0.63390394970E+01  0.21363261324E+02  0.28693469615E+02  0.47000000000E+01 0.  1.
<mgrwt>
<rscale>  0 0.26279373E+03</rscale>
<asrwt>0</asrwt>
<pdfrwt beam="1">  1       21 0.34691048E+00 0.26279373E+03</pdfrwt>
<pdfrwt beam="2">  1       21 0.11779474E-02 0.26279373E+03</pdfrwt>
<totfact> 0.49582690E+04</totfact>
</mgrwt>
</event>
<event>
 8    1  0.9974463E-006  0.2648731E+03  0.7546771E-02  0.1104250E+00
         21   -1    0    0  504  503  0.00000000000E+00  0.00000000000E+00  0.90641298360E+03  0.90641298360E+03  0.00000000000E+00 0. -1.
         21   -1    0    0  503  504 -0.00000000000E+00 -0.00000000000E+00 -0.19350380975E+02  0.19350380975E+02  0.00000000000E+00 0. -1.
         25    2    1    2    0    0 -0.33796613508E+02 -0.26547222747E+02  0.41450782420E+03  0.43506991975E+03  0.12498852997E+03 0.  0.
         25    2    1    2    0    0  0.33796613508E+02  0.26547222747E+02  0.47255477842E+03  0.49069344482E+03  0.12500028826E+03 0.  0.
          5    1    3    3  501    0 -0.78591325556E+02 -0.34912498607E+02  0.28269473328E+03  0.29552306379E+03  0.47000000000E+01 0. -1.
         -5    1    3    3    0  501  0.44794712047E+02  0.83652758601E+01  0.13181309093E+03  0.13954685596E+03  0.47000000000E+01 0. -1.
          5    1    4    4  502    0 -0.45960398634E+01 -0.47467015550E+02  0.19815543283E+03  0.20386737529E+03  0.47000000000E+01 0. -1.
         -5    1    4    4    0  502  0.38392653372E+02  0.74014238297E+02  0.27439934559E+03  0.28682606953E+03  0.47000000000E+01 0. -1.
<mgrwt>
<rscale>  0 0.26487308E+03</rscale>
<asrwt>0</asrwt>
<pdfrwt beam="1">  1       21 0.13944812E+00 0.26487308E+03</pdfrwt>
<pdfrwt beam="2">  1       21 0.29769824E-02 0.26487308E+03</pdfrwt>
<totfact> 0.22594131E+05</totfact>
</mgrwt>
</event>
<event>
 8    1  0.9974463E-006  0.3664110E+03  0.7546771E-02  0.1056074E+00
         21   -1    0    0  504  503  0.00000000000E+00  0.00000000000E+00  0.65844724463E+03  0.65844724463E+03  0.00000000000E+00 0. -1.
         21   -1    0    0  503  504 -0.00000000000E+00 -0.00000000000E+00 -0.50974857328E+02  0.50974857328E+02  0.00000000000E+00 0. -1.
         25    2    1    2    0    0 -0.10063583542E+03  0.88067324270E+02  0.28944170089E+03  0.34247033609E+03  0.12500403156E+03 0.  0.
         25    2    1    2    0    0  0.10063583542E+03 -0.88067324270E+02  0.31803068641E+03  0.36695176588E+03  0.12500662385E+03 0.  0.
          5    1    3    3  501    0 -0.10532435796E+03  0.15560230967E+02  0.13732591874E+03  0.17382703796E+03  0.47000000000E+01 0.  1.
         -5    1    3    3    0  501  0.46885225403E+01  0.72507093303E+02  0.15211578215E+03  0.16864329813E+03  0.47000000000E+01 0.  1.
          5    1    4    4  502    0  0.63634693990E+02 -0.79486876735E+02  0.31197337938E+03  0.32820270762E+03  0.47000000000E+01 0. -1.
         -5    1    4    4    0  502  0.37001141430E+02 -0.85804475345E+01  0.60573070352E+01  0.38749058253E+02  0.47000000000E+01 0. -1.
<mgrwt>
<rscale>  0 0.36641100E+03</rscale>
<asrwt>0</asrwt>
<pdfrwt beam="1">  1       21 0.10129957E+00 0.36641100E+03</pdfrwt>
<pdfrwt beam="2">  1       21 0.78422862E-02 0.36641100E+03</pdfrwt>
<totfact> 0.93384954E+04</totfact>
</mgrwt>
</event>
<event>
 8    1  0.9974463E-006  0.2768682E+03  0.7546771E-02  0.1097412E+00
         21   -1    0    0  504  503  0.00000000000E+00  0.00000000000E+00  0.44121141045E+03  0.44121141045E+03  0.00000000000E+00 0.  1.
         21   -1    0    0  503  504 -0.00000000000E+00 -0.00000000000E+00 -0.43434960447E+02  0.43434960447E+02  0.00000000000E+00 0.  1.
         25    2    1    2    0    0 -0.17347591029E+02  0.56691140801E+02  0.19040753671E+03  0.23536380203E+03  0.12500505954E+03 0.  0.
         25    2    1    2    0    0  0.17347591029E+02 -0.56691140801E+02  0.20736891330E+03  0.24928256887E+03  0.12500043432E+03 0.  0.
          5    1    3    3  501    0 -0.24979355935E+02  0.67292753159E+02  0.36192145233E+02  0.80524805043E+02  0.47000000000E+01 0.  1.
         -5    1    3    3    0  501  0.76317649065E+01 -0.10601612358E+02  0.15421539148E+03  0.15483899699E+03  0.47000000000E+01 0.  1.
          5    1    4    4  502    0 -0.48609617216E+02  0.31781592005E+01  0.67038628361E+02  0.83001585975E+02  0.47000000000E+01 0. -1.
         -5    1    4    4    0  502  0.65957208245E+02 -0.59869300001E+02  0.14033028494E+03  0.16628098289E+03  0.47000000000E+01 0. -1.
<mgrwt>
<rscale>  0 0.27686820E+03</rscale>
<asrwt>0</asrwt>
<pdfrwt beam="1">  1       21 0.67878675E-01 0.27686820E+03</pdfrwt>
<pdfrwt beam="2">  1       21 0.66823019E-02 0.27686820E+03</pdfrwt>
<totfact> 0.31823070E+05</totfact>
</mgrwt>
</event>
<event>
 8    1  0.9974463E-006  0.2923772E+03  0.7546771E-02  0.1089114E+00
         21   -1    0    0  504  503  0.00000000000E+00  0.00000000000E+00  0.32356333868E+03  0.32356333868E+03  0.00000000000E+00 0. -1.
         21   -1    0    0  503  504 -0.00000000000E+00 -0.00000000000E+00 -0.66049235666E+02  0.66049235666E+02  0.00000000000E+00 0. -1.
         25    2    1    2    0    0  0.47737656232E+01  0.71023293034E+02  0.16347209380E+03  0.21775056947E+03  0.12500035224E+03 0.  0.
         25    2    1    2    0    0 -0.47737656232E+01 -0.71023293034E+02  0.94042009211E+02  0.17186200487E+03  0.12500220890E+03 0.  0.
          5    1    3    3  501    0  0.20369316303E+02 -0.17949187366E+02  0.10841298194E+03  0.11185949681E+03  0.47000000000E+01 0.  1.
         -5    1    3    3    0  501 -0.15595550680E+02  0.88972480400E+02  0.55059111856E+02  0.10589107265E+03  0.47000000000E+01 0.  1.
          5    1    4    4  502    0 -0.26679938507E+02 -0.68136567080E+02 -0.18471323558E+01  0.73347888791E+02  0.47000000000E+01 0.  1.
         -5    1    4    4    0  502  0.21906172884E+02 -0.28867259542E+01  0.95889141566E+02  0.98514116082E+02  0.47000000000E+01 0.  1.
<mgrwt>
<rscale>  0 0.29237723E+03</rscale>
<asrwt>0</asrwt>
<pdfrwt beam="1">  1       21 0.49778974E-01 0.29237723E+03</pdfrwt>
<pdfrwt beam="2">  1       21 0.10161421E-01 0.29237723E+03</pdfrwt>
<totfact> 0.29619911E+05</totfact>
</mgrwt>
</event>
<event>
 8    1  0.9974463E-006  0.3230324E+03  0.7546771E-02  0.1074262E+00
         21   -1    0    0  504  503  0.00000000000E+00  0.00000000000E+00  0.22291533419E+03  0.22291533419E+03  0.00000000000E+00 0.  1.
         21   -1    0    0  503  504 -0.00000000000E+00 -0.00000000000E+00 -0.11702864363E+03  0.11702864363E+03  0.00000000000E+00 0.  1.
         25    2    1    2    0    0 -0.80287170312E+02  0.48071745664E+02  0.96420865716E+02  0.18351815028E+03  0.12500002276E+03 0.  0.
         25    2    1    2    0    0  0.80287170312E+02 -0.48071745664E+02  0.94658248430E+01  0.15642582753E+03  0.12499006052E+03 0.  0.
          5    1    3    3  501    0 -0.59481468009E+02  0.69908534666E+02  0.10707067410E+02  0.92530965348E+02  0.47000000000E+01 0.  1.
         -5    1    3    3    0  501 -0.20805702303E+02 -0.21836789002E+02  0.85713798307E+02  0.90987184935E+02  0.47000000000E+01 0.  1.
          5    1    4    4  502    0  0.33513565402E+02 -0.79296442551E+02 -0.25659269474E+02  0.89953171023E+02  0.47000000000E+01 0.  1.
         -5    1    4    4    0  502  0.46773604911E+02  0.31224696887E+02  0.35125094317E+02  0.66472656505E+02  0.47000000000E+01 0.  1.
<mgrwt>
<rscale>  0 0.32303238E+03</rscale>
<asrwt>0</asrwt>
<pdfrwt beam="1">  1       21 0.34294667E-01 0.32303238E+03</pdfrwt>
<pdfrwt beam="2">  1       21 0.18004407E-01 0.32303238E+03</pdfrwt>
<totfact> 0.22258033E+05</totfact>
</mgrwt>
</event>
<event>
 8    1  0.9974463E-006  0.3575879E+03  0.7546771E-02  0.1059543E+00
         21   -1    0    0  504  503  0.00000000000E+00  0.00000000000E+00  0.48394953703E+03  0.48394953703E+03  0.00000000000E+00 0.  1.
         21   -1    0    0  503  504 -0.00000000000E+00 -0.00000000000E+00 -0.66054983485E+02  0.66054983485E+02  0.00000000000E+00 0.  1.
         25    2    1    2    0    0 -0.11061923537E+03 -0.39277648303E+02  0.13109063184E+03  0.21584710498E+03  0.12500348028E+03 0.  0.
         25    2    1    2    0    0  0.11061923537E+03  0.39277648303E+02  0.28680392170E+03  0.33415741553E+03  0.12500135983E+03 0.  0.
          5    1    3    3  501    0 -0.63831666580E+02 -0.11298913532E+02 -0.88458466991E+01  0.65593338909E+02  0.47000000000E+01 0. -1.
         -5    1    3    3    0  501 -0.46787568795E+02 -0.27978734771E+02  0.13993647854E+03  0.15025376607E+03  0.47000000000E+01 0. -1.
          5    1    4    4  502    0  0.53618478229E+02 -0.40620272658E+02  0.76153648006E+02  0.10171733315E+03  0.47000000000E+01 0.  1.
         -5    1    4    4    0  502  0.57000757146E+02  0.79897920961E+02  0.21065027370E+03  0.23244008238E+03  0.47000000000E+01 0.  1.
<mgrwt>
<rscale>  0 0.35758791E+03</rscale>
<asrwt>0</asrwt>
<pdfrwt beam="1">  1       21 0.74453773E-01 0.35758791E+03</pdfrwt>
<pdfrwt beam="2">  1       21 0.10162305E-01 0.35758791E+03</pdfrwt>
<totfact> 0.12132361E+05</totfact>
</mgrwt>
</event>
<event>
 8    1  0.9974463E-006  0.3197520E+03  0.7546771E-02  0.1075764E+00
         21   -1    0    0  504  503  0.00000000000E+00  0.00000000000E+00  0.29986428332E+03  0.29986428332E+03  0.00000000000E+00 0.  1.
         21   -1    0    0  503  504 -0.00000000000E+00 -0.00000000000E+00 -0.85239656374E+02  0.85239656374E+02  0.00000000000E+00 0.  1.
         25    2    1    2    0    0 -0.89795324613E+02 -0.90670586399E+01  0.15831953386E+03  0.22096796967E+03  0.12496542300E+03 0.  0.
         25    2    1    2    0    0  0.89795324613E+02  0.90670586399E+01  0.56305093093E+02  0.16413597003E+03  0.12499976510E+03 0.  0.
          5    1    3    3  501    0 -0.74312134997E+02  0.33107919116E+02  0.33287420619E+02  0.88025962576E+02  0.47000000000E+01 0. -1.
         -5    1    3    3    0  501 -0.15483189616E+02 -0.42174977756E+02  0.12503211324E+03  0.13294200709E+03  0.47000000000E+01 0. -1.
          5    1    4    4  502    0  0.78290038074E+02 -0.21565597984E+02  0.86944794746E+02  0.11906255672E+03  0.47000000000E+01 0.  1.
         -5    1    4    4    0  502  0.11505286539E+02  0.30632656624E+02 -0.30639701654E+02  0.45073413312E+02  0.47000000000E+01 0.  1.
<mgrwt>
<rscale>  0 0.31975196E+03</rscale>
<asrwt>0</asrwt>
<pdfrwt beam="1">  1       21 0.46132966E-01 0.31975196E+03</pdfrwt>
<pdfrwt beam="2">  1       21 0.13113793E-01 0.31975196E+03</pdfrwt>
<totfact> 0.21810438E+05</totfact>
</mgrwt>
</event>
<event>
 8    1  0.9974463E-006  0.2679403E+03  0.7546771E-02  0.1102464E+00
         21   -1    0    0  504  503  0.00000000000E+00  0.00000000000E+00  0.43155582019E+03  0.43155582019E+03  0.00000000000E+00 0. -1.
         21   -1    0    0  503  504 -0.00000000000E+00 -0.00000000000E+00 -0.41589061096E+02  0.41589061096E+02  0.00000000000E+00 0. -1.
         25    2    1    2    0    0  0.28419187245E+02  0.31391600999E+02  0.23561706100E+03  0.27006794225E+03  0.12501284405E+03 0.  0.
         25    2    1    2    0    0 -0.28419187245E+02 -0.31391600999E+02  0.15434969809E+03  0.20307693904E+03  0.12499332403E+03 0.  0.
          5    1    3    3  501    0  0.26603700452E+02  0.79264855076E+02  0.15486486879E+03  0.17605650148E+03  0.47000000000E+01 0. -1.
         -5    1    3    3    0  501  0.18154867931E+01 -0.47873254077E+02  0.80752192208E+02  0.94011440765E+02  0.47000000000E+01 0. -1.
          5    1    4    4  502    0 -0.28724494350E+02  0.41935915262E+02  0.31663273635E+02  0.60069713349E+02  0.47000000000E+01 0. -1.
         -5    1    4    4    0  502  0.30530710497E+00 -0.73327516261E+02  0.12268642446E+03  0.14300722569E+03  0.47000000000E+01 0. -1.
<mgrwt>
<rscale>  0 0.26794030E+03</rscale>
<asrwt>0</asrwt>
<pdfrwt beam="1">  1       21 0.66393200E-01 0.26794030E+03</pdfrwt>
<pdfrwt beam="2">  1       21 0.63983174E-02 0.26794030E+03</pdfrwt>
<totfact> 0.36097635E+05</totfact>
</mgrwt>
</event>
<event>
 8    1  0.9974463E-006  0.3869354E+03  0.7546771E-02  0.1048400E+00
         21   -1    0    0  504  503  0.00000000000E+00  0.00000000000E+00  0.71834086527E+02  0.71834086527E+02  0.00000000000E+00 0.  1.
         21   -1    0    0  503  504 -0.00000000000E+00 -0.00000000000E+00 -0.52105846046E+03  0.52105846046E+03  0.00000000000E+00 0.  1.
         25    2    1    2    0    0 -0.14217018345E+03  0.41290685029E+00 -0.28585123227E+03  0.34283503946E+03  0.12494961277E+03 0.  0.
         25    2    1    2    0    0  0.14217018345E+03 -0.41290685029E+00 -0.16337314165E+03  0.25005750753E+03  0.12500176840E+03 0.  0.
          5    1    3    3  501    0 -0.35682701367E+02 -0.48207519858E+02 -0.45426959833E+02  0.75385136648E+02  0.47000000000E+01 0.  1.
         -5    1    3    3    0  501 -0.10648748208E+03  0.48620426708E+02 -0.24042427244E+03  0.26744990281E+03  0.47000000000E+01 0.  1.
          5    1    4    4  502    0  0.15777851430E+03  0.15408365999E+02 -0.16287431868E+03  0.22733589907E+03  0.47000000000E+01 0. -1.
         -5    1    4    4    0  502 -0.15608330857E+02 -0.15821272850E+02 -0.49882297377E+00  0.22721608461E+02  0.47000000000E+01 0. -1.
<mgrwt>
<rscale>  0 0.38693544E+03</rscale>
<asrwt>0</asrwt>
<pdfrwt beam="1">  1       21 0.11051398E-01 0.38693544E+03</pdfrwt>
<pdfrwt beam="2">  1       21 0.80162841E-01 0.38693544E+03</pdfrwt>
<totfact> 0.87541700E+04</totfact>
</mgrwt>
</event>
<event>
 8    1  0.9974463E-006  0.2724337E+03  0.7546771E-02  0.1099895E+00
         21   -1    0    0  504  503  0.00000000000E+00  0.00000000000E+00  0.66590618955E+03  0.66590618955E+03  0.00000000000E+00 0.  1.
         21   -1    0    0  503  504 -0.00000000000E+00 -0.00000000000E+00 -0.27864323383E+02  0.27864323383E+02  0.00000000000E+00 0.  1.
         25    2    1    2    0    0  0.33842499553E+02  0.13657382057E+02  0.42099496789E+03  0.44066649101E+03  0.12497341500E+03 0.  0.
         25    2    1    2    0    0 -0.33842499553E+02 -0.13657382057E+02  0.21704689828E+03  0.25310402192E+03  0.12498180267E+03 0.  0.
          5    1    3    3  501    0 -0.47138219182E+02 -0.23937553004E+01  0.16051274965E+03  0.16737435459E+03  0.47000000000E+01 0. -1.
         -5    1    3    3    0  501  0.80980718735E+02  0.16051137358E+02  0.26048221823E+03  0.27329213643E+03  0.47000000000E+01 0. -1.
          5    1    4    4  502    0  0.29350256670E+02 -0.49061979055E+02  0.10364341350E+03  0.11845911749E+03  0.47000000000E+01 0. -1.
         -5    1    4    4    0  502 -0.63192756222E+02  0.35404596998E+02  0.11340348478E+03  0.13464490443E+03  0.47000000000E+01 0. -1.
<mgrwt>
<rscale>  0 0.27243366E+03</rscale>
<asrwt>0</asrwt>
<pdfrwt beam="1">  1       21 0.10244709E+00 0.27243366E+03</pdfrwt>
<pdfrwt beam="2">  1       21 0.42868195E-02 0.27243366E+03</pdfrwt>
<totfact> 0.26415271E+05</totfact>
</mgrwt>
</event>
<event>
 8    1  0.9974463E-006  0.2692397E+03  0.7546771E-02  0.1101716E+00
         21   -1    0    0  504  503  0.00000000000E+00  0.00000000000E+00  0.82700899242E+03  0.82700899242E+03  0.00000000000E+00 0.  1.
         21   -1    0    0  503  504 -0.00000000000E+00 -0.00000000000E+00 -0.21913311470E+02  0.21913311470E+02  0.00000000000E+00 0.  1.
         25    2    1    2    0    0 -0.38674502103E+01 -0.36493728784E+02  0.29563096603E+03  0.32306121167E+03  0.12499651594E+03 0.  0.
         25    2    1    2    0    0  0.38674502103E+01  0.36493728784E+02  0.50946471491E+03  0.52586109222E+03  0.12501537167E+03 0.  0.
          5    1    3    3  501    0  0.21055987823E+02 -0.53659221916E+02  0.52813393020E+02  0.78319928512E+02  0.47000000000E+01 0. -1.
         -5    1    3    3    0  501 -0.24923438033E+02  0.17165493132E+02  0.24281757301E+03  0.24474128316E+03  0.47000000000E+01 0. -1.
          5    1    4    4  502    0  0.16600919516E+02 -0.23666616212E+01  0.46478243867E+03  0.46510858615E+03  0.47000000000E+01 0.  1.
         -5    1    4    4    0  502 -0.12733469305E+02  0.38860390405E+02  0.44682276248E+02  0.60752506069E+02  0.47000000000E+01 0.  1.
<mgrwt>
<rscale>  0 0.26923971E+03</rscale>
<asrwt>0</asrwt>
<pdfrwt beam="1">  1       21 0.12723213E+00 0.26923971E+03</pdfrwt>
<pdfrwt beam="2">  1       21 0.33712793E-02 0.26923971E+03</pdfrwt>
<totfact> 0.23201217E+05</totfact>
</mgrwt>
</event>
<event>
 8    1  0.9974463E-006  0.3021454E+03  0.7546771E-02  0.1084173E+00
         21   -1    0    0  504  503  0.00000000000E+00  0.00000000000E+00  0.13277467069E+03  0.13277467069E+03  0.00000000000E+00 0.  1.
         21   -1    0    0  503  504 -0.00000000000E+00 -0.00000000000E+00 -0.17189240359E+03  0.17189240359E+03  0.00000000000E+00 0.  1.
         25    2    1    2    0    0  0.10293323774E+02 -0.37870913951E+02  0.56282612739E+02  0.14259890324E+03  0.12500622413E+03 0.  0.
         25    2    1    2    0    0 -0.10293323774E+02  0.37870913951E+02 -0.95400345639E+02  0.16206817104E+03  0.12499882990E+03 0.  0.
          5    1    3    3  501    0 -0.20502279744E+02 -0.51282648402E+02 -0.20151104315E+02  0.58978051062E+02  0.47000000000E+01 0.  1.
         -5    1    3    3    0  501  0.30795603518E+02  0.13411734452E+02  0.76433717054E+02  0.83620852183E+02  0.47000000000E+01 0.  1.
          5    1    4    4  502    0  0.68989722500E+01 -0.43101925447E+02 -0.53385253059E+02  0.69119078694E+02  0.47000000000E+01 0. -1.
         -5    1    4    4    0  502 -0.17192296024E+02  0.80972839397E+02 -0.42015092580E+02  0.92949092341E+02  0.47000000000E+01 0. -1.
<mgrwt>
<rscale>  0 0.30214538E+03</rscale>
<asrwt>0</asrwt>
<pdfrwt beam="1">  1       21 0.20426872E-01 0.30214538E+03</pdfrwt>
<pdfrwt beam="2">  1       21 0.26444985E-01 0.30214538E+03</pdfrwt>
<totfact> 0.29429228E+05</totfact>
</mgrwt>
</event>
<event>
 8    1  0.9974463E-006  0.3075166E+03  0.7546771E-02  0.1081542E+00
         21   -1    0    0  504  503  0.00000000000E+00  0.00000000000E+00  0.18494946168E+03  0.18494946168E+03  0.00000000000E+00 0. -1.
         21   -1    0    0  503  504 -0.00000000000E+00 -0.00000000000E+00 -0.12782741957E+03  0.12782741957E+03  0.00000000000E+00 0. -1.
         25    2    1    2    0    0 -0.37570642296E+02 -0.60534399819E+02 -0.26597192529E+02  0.14631414143E+03  0.12499780241E+03 0.  0.
         25    2    1    2    0    0  0.37570642296E+02  0.60534399819E+02  0.83719234633E+02  0.16646273982E+03  0.12499986711E+03 0.  0.
          5    1    3    3  501    0  0.14341731579E+02 -0.44705979616E+02  0.38879629381E+02  0.61139393675E+02  0.47000000000E+01 0. -1.
         -5    1    3    3    0  501 -0.51912373875E+02 -0.15828420203E+02 -0.65476821910E+02  0.85174747754E+02  0.47000000000E+01 0. -1.
          5    1    4    4  502    0  0.28266436505E+02  0.74832280921E+02  0.10919690342E+03  0.13544340301E+03  0.47000000000E+01 0.  1.
         -5    1    4    4    0  502  0.93042057917E+01 -0.14297881102E+02 -0.25477668790E+02  0.31019336814E+02  0.47000000000E+01 0.  1.
<mgrwt>
<rscale>  0 0.30751658E+03</rscale>
<asrwt>0</asrwt>
<pdfrwt beam="1">  1       21 0.28453763E-01 0.30751658E+03</pdfrwt>
<pdfrwt beam="2">  1       21 0.19665757E-01 0.30751658E+03</pdfrwt>
<totfact> 0.27382232E+05</totfact>
</mgrwt>
</event>
<event>
 8    1  0.9974463E-006  0.2902782E+03  0.7546771E-02  0.1090204E+00
         21   -1    0    0  504  503  0.00000000000E+00  0.00000000000E+00  0.20132859484E+04  0.20132859484E+04  0.00000000000E+00 0.  1.
         21   -1    0    0  503  504 -0.00000000000E+00 -0.00000000000E+00 -0.10463170529E+02  0.10463170529E+02  0.00000000000E+00 0.  1.
         25    2    1    2    0    0  0.42679723543E+02 -0.47888219443E+02  0.12554927197E+04  0.12633298163E+04  0.12500166092E+03 0.  0.
         25    2    1    2    0    0 -0.42679723543E+02  0.47888219443E+02  0.74733005820E+03  0.76041930263E+03  0.12498183693E+03 0.  0.
          5    1    3    3  501    0 -0.41362688309E+02 -0.13224563031E+02  0.59384986116E+03  0.59545403571E+03  0.47000000000E+01 0. -1.
         -5    1    3    3    0  501  0.84042411852E+02 -0.34663656412E+02  0.66164285852E+03  0.66787578059E+03  0.47000000000E+01 0. -1.
          5    1    4    4  502    0 -0.74817679432E+02  0.13727672024E+02  0.61959494163E+03  0.62426445984E+03  0.47000000000E+01 0. -1.
         -5    1    4    4    0  502  0.32137955888E+02  0.34160547420E+02  0.12773511657E+03  0.13615484278E+03  0.47000000000E+01 0. -1.
<mgrwt>
<rscale>  0 0.29027817E+03</rscale>
<asrwt>0</asrwt>
<pdfrwt beam="1">  1       21 0.30973599E+00 0.29027817E+03</pdfrwt>
<pdfrwt beam="2">  1       21 0.16097201E-02 0.29027817E+03</pdfrwt>
<totfact> 0.48763212E+04</totfact>
</mgrwt>
</event>
<event>
 8    1  0.9974463E-006  0.3173108E+03  0.7546771E-02  0.1076894E+00
         21   -1    0    0  504  503  0.00000000000E+00  0.00000000000E+00  0.65414199906E+03  0.65414199906E+03  0.00000000000E+00 0. -1.
         21   -1    0    0  503  504 -0.00000000000E+00 -0.00000000000E+00 -0.38480225393E+02  0.38480225393E+02  0.00000000000E+00 0. -1.
         25    2    1    2    0    0 -0.52627376869E+02 -0.20444958239E+02  0.13377458891E+03  0.19159467632E+03  0.12500096897E+03 0.  0.
         25    2    1    2    0    0  0.52627376869E+02  0.20444958239E+02  0.48188718476E+03  0.50102754813E+03  0.12500283211E+03 0.  0.
          5    1    3    3  501    0 -0.15177431926E+02  0.10436612075E+02 -0.21584039124E+02  0.28761746407E+02  0.47000000000E+01 0.  1.
         -5    1    3    3    0  501 -0.37449944944E+02 -0.30881570314E+02  0.15535862803E+03  0.16283292992E+03  0.47000000000E+01 0.  1.
          5    1    4    4  502    0  0.21071943009E+02  0.62135503381E+02  0.13480598280E+03  0.14999863519E+03  0.47000000000E+01 0.  1.
         -5    1    4    4    0  502  0.31555433860E+02 -0.41690545142E+02  0.34708120197E+03  0.35102891294E+03  0.47000000000E+01 0.  1.
<mgrwt>
<rscale>  0 0.31731077E+03</rscale>
<asrwt>0</asrwt>
<pdfrwt beam="1">  1       21 0.10063722E+00 0.31731077E+03</pdfrwt>
<pdfrwt beam="2">  1       21 0.59200351E-02 0.31731077E+03</pdfrwt>
<totfact> 0.15692827E+05</totfact>
</mgrwt>
</event>
<event>
 8    1  0.9974463E-006  0.2743726E+03  0.7546771E-02  0.1098803E+00
         21   -1    0    0  504  503  0.00000000000E+00  0.00000000000E+00  0.47341340335E+03  0.47341340335E+03  0.00000000000E+00 0. -1.
         21   -1    0    0  503  504 -0.00000000000E+00 -0.00000000000E+00 -0.39754008152E+02  0.39754008152E+02  0.00000000000E+00 0. -1.
         25    2    1    2    0    0 -0.27989298474E+02  0.23715245367E+02  0.13641011900E+03  0.18862786344E+03  0.12500774619E+03 0.  0.
         25    2    1    2    0    0  0.27989298474E+02 -0.23715245367E+02  0.29724927620E+03  0.32453954806E+03  0.12499188920E+03 0.  0.
          5    1    3    3  501    0  0.59097859752E+01  0.47870441200E+01  0.14766200448E+03  0.14793241338E+03  0.47000000000E+01 0. -1.
         -5    1    3    3    0  501 -0.33899084449E+02  0.18928201247E+02 -0.11251885477E+02  0.40695450061E+02  0.47000000000E+01 0. -1.
          5    1    4    4  502    0  0.48601883542E+02 -0.57138079982E+02  0.25837375844E+03  0.26908361585E+03  0.47000000000E+01 0. -1.
         -5    1    4    4    0  502 -0.20612585068E+02  0.33422834616E+02  0.38875517762E+02  0.55455932218E+02  0.47000000000E+01 0. -1.
<mgrwt>
<rscale>  0 0.27437260E+03</rscale>
<asrwt>0</asrwt>
<pdfrwt beam="1">  1       21 0.72832827E-01 0.27437260E+03</pdfrwt>
<pdfrwt beam="2">  1       21 0.61160016E-02 0.27437260E+03</pdfrwt>
<totfact> 0.31727750E+05</totfact>
</mgrwt>
</event>
<event>
 8    1  0.9974463E-006  0.3376855E+03  0.7546771E-02  0.1067786E+00
         21   -1    0    0  504  503  0.00000000000E+00  0.00000000000E+00  0.18918417357E+03  0.18918417357E+03  0.00000000000E+00 0. -1.
         21   -1    0    0  503  504 -0.00000000000E+00 -0.00000000000E+00 -0.15068845639E+03  0.15068845639E+03  0.00000000000E+00 0. -1.
         25    2    1    2    0    0  0.46938324585E+01 -0.11116388062E+03 -0.33294702517E+01  0.16737739081E+03  0.12499866065E+03 0.  0.
         25    2    1    2    0    0 -0.46938324585E+01  0.11116388062E+03  0.41825187437E+02  0.17249523915E+03  0.12500328319E+03 0.  0.
          5    1    3    3  501    0  0.35585891577E+02 -0.93241113236E+02  0.42931864607E+02  0.10874509587E+03  0.47000000000E+01 0.  1.
         -5    1    3    3    0  501 -0.30892059119E+02 -0.17922767389E+02 -0.46261334859E+02  0.58632294944E+02  0.47000000000E+01 0.  1.
          5    1    4    4  502    0  0.53779166917E+02  0.32437228098E+02 -0.60422814962E+01  0.63269042403E+02  0.47000000000E+01 0.  1.
         -5    1    4    4    0  502 -0.58472999375E+02  0.78726652527E+02  0.47867468934E+02  0.10922619675E+03  0.47000000000E+01 0.  1.
<mgrwt>
<rscale>  0 0.33768548E+03</rscale>
<asrwt>0</asrwt>
<pdfrwt beam="1">  1       21 0.29105257E-01 0.33768548E+03</pdfrwt>
<pdfrwt beam="2">  1       21 0.23182840E-01 0.33768548E+03</pdfrwt>
<totfact> 0.19039778E+05</totfact>
</mgrwt>
</event>
<event>
 8    1  0.9974463E-006  0.2655531E+03  0.7546771E-02  0.1103852E+00
         21   -1    0    0  504  503  0.00000000000E+00  0.00000000000E+00  0.70586381059E+03  0.70586381059E+03  0.00000000000E+00 0.  1.
         21   -1    0    0  503  504 -0.00000000000E+00 -0.00000000000E+00 -0.24975937152E+02  0.24975937152E+02  0.00000000000E+00 0.  1.
         25    2    1    2    0    0 -0.99299931023E+01  0.37454556047E+02  0.27847098540E+03  0.30769383186E+03  0.12501182313E+03 0.  0.
         25    2    1    2    0    0  0.99299931023E+01 -0.37454556047E+02  0.40241688804E+03  0.42314591589E+03  0.12494665189E+03 0.  0.
          5    1    3    3  501    0 -0.44849629169E+02  0.34384343872E+02  0.47336032762E+02  0.73868547689E+02  0.47000000000E+01 0.  1.
         -5    1    3    3    0  501  0.34919636067E+02  0.30702121750E+01  0.23113495264E+03  0.23382528417E+03  0.47000000000E+01 0.  1.
          5    1    4    4  502    0 -0.16202007688E+02 -0.66792646163E+02  0.12331509758E+03  0.14125319793E+03  0.47000000000E+01 0.  1.
         -5    1    4    4    0  502  0.26132000791E+02  0.29338090117E+02  0.27910179046E+03  0.28189271796E+03  0.47000000000E+01 0.  1.
<mgrwt>
<rscale>  0 0.26555308E+03</rscale>
<asrwt>0</asrwt>
<pdfrwt beam="1">  1       21 0.10859442E+00 0.26555308E+03</pdfrwt>
<pdfrwt beam="2">  1       21 0.38424524E-02 0.26555308E+03</pdfrwt>
<totfact> 0.27637358E+05</totfact>
</mgrwt>
</event>
<event>
 8    1  0.9974463E-006  0.2716728E+03  0.7546771E-02  0.1100326E+00
         21   -1    0    0  504  503  0.00000000000E+00  0.00000000000E+00  0.15557385474E+03  0.15557385474E+03  0.00000000000E+00 0. -1.
         21   -1    0    0  503  504 -0.00000000000E+00 -0.00000000000E+00 -0.11860300097E+03  0.11860300097E+03  0.00000000000E+00 0. -1.
         25    2    1    2    0    0  0.19833628955E+02  0.48905881681E+02  0.24970933962E+02  0.13796144108E+03  0.12499861431E+03 0.  0.
         25    2    1    2    0    0 -0.19833628955E+02 -0.48905881681E+02  0.11999919806E+02  0.13621541463E+03  0.12500193201E+03 0.  0.
          5    1    3    3  501    0  0.69514904199E+02  0.71512305830E+01  0.19284454942E+02  0.72646006133E+02  0.47000000000E+01 0. -1.
         -5    1    3    3    0  501 -0.49681275243E+02  0.41754651098E+02  0.56864790204E+01  0.65315434943E+02  0.47000000000E+01 0. -1.
          5    1    4    4  502    0 -0.28635412189E+02 -0.22630984180E+02  0.65870945644E+02  0.75453427730E+02  0.47000000000E+01 0.  1.
         -5    1    4    4    0  502  0.88017832333E+01 -0.26274897501E+02 -0.53871025839E+02  0.60761986897E+02  0.47000000000E+01 0.  1.
<mgrwt>
<rscale>  0 0.27167279E+03</rscale>
<asrwt>0</asrwt>
<pdfrwt beam="1">  1       21 0.23934439E-01 0.27167279E+03</pdfrwt>
<pdfrwt beam="2">  1       21 0.18246616E-01 0.27167279E+03</pdfrwt>
<totfact> 0.44346694E+05</totfact>
</mgrwt>
</event>
<event>
 8    1  0.9974463E-006  0.3441375E+03  0.7546771E-02  0.1065047E+00
         21   -1    0    0  504  503  0.00000000000E+00  0.00000000000E+00  0.18360821238E+04  0.18360821238E+04  0.00000000000E+00 0. -1.
         21   -1    0    0  503  504 -0.00000000000E+00 -0.00000000000E+00 -0.16125456420E+02  0.16125456420E+02  0.00000000000E+00 0. -1.
         25    2    1    2    0    0 -0.93973638972E+01  0.11728479065E+03  0.97331756319E+03  0.98834000949E+03  0.12499945195E+03 0.  0.
         25    2    1    2    0    0  0.93973638972E+01 -0.11728479065E+03  0.84663910417E+03  0.86386757071E+03  0.12500149775E+03 0.  0.
          5    1    3    3  501    0  0.53842519026E+02  0.84400989246E+02  0.56332682784E+03  0.57217283124E+03  0.47000000000E+01 0. -1.
         -5    1    3    3    0  501 -0.63239882924E+02  0.32883801402E+02  0.40999073535E+03  0.41616717825E+03  0.47000000000E+01 0. -1.
          5    1    4    4  502    0 -0.47930861508E+02 -0.87075915748E+02  0.38376112671E+03  0.39645210929E+03  0.47000000000E+01 0. -1.
         -5    1    4    4    0  502  0.57328225405E+02 -0.30208874900E+02  0.46287797746E+03  0.46741546141E+03  0.47000000000E+01 0. -1.
<mgrwt>
<rscale>  0 0.34413754E+03</rscale>
<asrwt>0</asrwt>
<pdfrwt beam="1">  1       21 0.28247401E+00 0.34413754E+03</pdfrwt>
<pdfrwt beam="2">  1       21 0.24808409E-02 0.34413754E+03</pdfrwt>
<totfact> 0.33687500E+04</totfact>
</mgrwt>
</event>
<event>
 8    1  0.9974463E-006  0.3171191E+03  0.7546771E-02  0.1076983E+00
         21   -1    0    0  504  503  0.00000000000E+00  0.00000000000E+00  0.12435645979E+02  0.12435645979E+02  0.00000000000E+00 0.  1.
         21   -1    0    0  503  504 -0.00000000000E+00 -0.00000000000E+00 -0.20216991554E+04  0.20216991554E+04  0.00000000000E+00 0.  1.
         25    2    1    2    0    0  0.14928618756E+02  0.54420541432E+02 -0.15151777979E+04  0.15213723599E+04  0.12500255672E+03 0.  0.
         25    2    1    2    0    0 -0.14928618756E+02 -0.54420541432E+02 -0.49408571152E+03  0.51276244149E+03  0.12498068687E+03 0.  0.
          5    1    3    3  501    0 -0.23753181066E+02 -0.26534940298E+02 -0.76342981850E+03  0.76427448894E+03  0.47000000000E+01 0.  1.
         -5    1    3    3    0  501  0.38681799821E+02  0.80955481731E+02 -0.75174797939E+03  0.75709787093E+03  0.47000000000E+01 0.  1.
          5    1    4    4  502    0 -0.20629172054E+02  0.20652591649E+02 -0.33916933524E+03  0.34045560687E+03  0.47000000000E+01 0. -1.
         -5    1    4    4    0  502  0.57005532984E+01 -0.75073133081E+02 -0.15491637628E+03  0.17230683462E+03  0.47000000000E+01 0. -1.
<mgrwt>
<rscale>  0 0.31711913E+03</rscale>
<asrwt>0</asrwt>
<pdfrwt beam="1">  1       21 0.19131772E-02 0.31711913E+03</pdfrwt>
<pdfrwt beam="2">  1       21 0.31103050E+00 0.31711913E+03</pdfrwt>
<totfact> 0.35557277E+04</totfact>
</mgrwt>
</event>
<event>
 8    1  0.9974463E-006  0.3492382E+03  0.7546771E-02  0.1062928E+00
         21   -1    0    0  504  503  0.00000000000E+00  0.00000000000E+00  0.48635229272E+02  0.48635229272E+02  0.00000000000E+00 0.  1.
         21   -1    0    0  503  504 -0.00000000000E+00 -0.00000000000E+00 -0.62694941190E+03  0.62694941190E+03  0.00000000000E+00 0.  1.
         25    2    1    2    0    0  0.40976693849E+02  0.99958234458E+02 -0.17980566053E+03  0.24418602304E+03  0.12500400078E+03 0.  0.
         25    2    1    2    0    0 -0.40976693849E+02 -0.99958234458E+02 -0.39850852210E+03  0.43139861814E+03  0.12499994989E+03 0.  0.
          5    1    3    3  501    0 -0.22036696520E+02  0.40827388118E+02 -0.22775296991E+01  0.46687993699E+02  0.47000000000E+01 0. -1.
         -5    1    3    3    0  501  0.63013390370E+02  0.59130846340E+02 -0.17752813083E+03  0.19749802934E+03  0.47000000000E+01 0. -1.
          5    1    4    4  502    0  0.99464030514E+01 -0.93294472185E+02 -0.14552503255E+03  0.17321205089E+03  0.47000000000E+01 0. -1.
         -5    1    4    4    0  502 -0.50923096901E+02 -0.66637622729E+01 -0.25298348955E+03  0.25818656725E+03  0.47000000000E+01 0. -1.
<mgrwt>
<rscale>  0 0.34923819E+03</rscale>
<asrwt>0</asrwt>
<pdfrwt beam="1">  1       21 0.74823437E-02 0.34923819E+03</pdfrwt>
<pdfrwt beam="2">  1       21 0.96453746E-01 0.34923819E+03</pdfrwt>
<totfact> 0.11461663E+05</totfact>
</mgrwt>
</event>
<event>
 8    1  0.9974463E-006  0.3183592E+03  0.7546771E-02  0.1076407E+00
         21   -1    0    0  504  503  0.00000000000E+00  0.00000000000E+00  0.12279507935E+02  0.12279507935E+02  0.00000000000E+00 0.  1.
         21   -1    0    0  503  504 -0.00000000000E+00 -0.00000000000E+00 -0.20634498178E+04  0.20634498178E+04  0.00000000000E+00 0.  1.
         25    2    1    2    0    0 -0.15819900468E+02 -0.87419549349E+02 -0.13037287263E+04  0.13127178052E+04  0.12500798995E+03 0.  0.
         25    2    1    2    0    0  0.15819900468E+02  0.87419549349E+02 -0.74744158358E+03  0.76301152051E+03  0.12500085084E+03 0.  0.
          5    1    3    3  501    0 -0.13373663394E+02 -0.97527383183E+02 -0.54096896313E+03  0.54987267109E+03  0.47000000000E+01 0.  1.
         -5    1    3    3    0  501 -0.24462370733E+01  0.10107833834E+02 -0.76275976314E+03  0.76284513412E+03  0.47000000000E+01 0.  1.
          5    1    4    4  502    0 -0.26413624454E+02 -0.19033280145E+02 -0.27037228144E+03  0.27236594112E+03  0.47000000000E+01 0.  1.
         -5    1    4    4    0  502  0.42233524922E+02  0.10645282949E+03 -0.47706930214E+03  0.49064557939E+03  0.47000000000E+01 0.  1.
<mgrwt>
<rscale>  0 0.31835922E+03</rscale>
<asrwt>0</asrwt>
<pdfrwt beam="1">  1       21 0.18891545E-02 0.31835922E+03</pdfrwt>
<pdfrwt beam="2">  1       21 0.31745392E+00 0.31835922E+03</pdfrwt>
<totfact> 0.33230930E+04</totfact>
</mgrwt>
</event>
<event>
 8    1  0.9974463E-006  0.2932596E+03  0.7546771E-02  0.1088659E+00
         21   -1    0    0  504  503  0.00000000000E+00  0.00000000000E+00  0.19873619145E+03  0.19873619145E+03  0.00000000000E+00 0.  1.
         21   -1    0    0  503  504 -0.00000000000E+00 -0.00000000000E+00 -0.10818510135E+03  0.10818510135E+03  0.00000000000E+00 0.  1.
         25    2    1    2    0    0 -0.55321627177E+02  0.27562290050E+02 -0.21381477258E+01  0.13945995332E+03  0.12499737853E+03 0.  0.
         25    2    1    2    0    0  0.55321627177E+02 -0.27562290050E+02  0.92689237832E+02  0.16746133948E+03  0.12502736958E+03 0.  0.
          5    1    3    3  501    0 -0.20987957685E+02  0.52199528002E+02 -0.50017462153E+02  0.75426266059E+02  0.47000000000E+01 0. -1.
         -5    1    3    3    0  501 -0.34333669492E+02 -0.24637237953E+02  0.47879314427E+02  0.64033687265E+02  0.47000000000E+01 0. -1.
          5    1    4    4  502    0  0.56675131369E+02  0.23760596959E+02  0.26964827185E+00  0.61634399435E+02  0.47000000000E+01 0.  1.
         -5    1    4    4    0  502 -0.13535041924E+01 -0.51322887008E+02  0.92419589560E+02  0.10582694004E+03  0.47000000000E+01 0.  1.
<mgrwt>
<rscale>  0 0.29325958E+03</rscale>
<asrwt>0</asrwt>
<pdfrwt beam="1">  1       21 0.30574799E-01 0.29325958E+03</pdfrwt>
<pdfrwt beam="2">  1       21 0.16643862E-01 0.29325958E+03</pdfrwt>
<totfact> 0.32562561E+05</totfact>
</mgrwt>
</event>
<event>
 8    1  0.9974463E-006  0.3516114E+03  0.7546771E-02  0.1061956E+00
         21   -1    0    0  504  503  0.00000000000E+00  0.00000000000E+00  0.15089496138E+03  0.15089496138E+03  0.00000000000E+00 0. -1.
         21   -1    0    0  503  504 -0.00000000000E+00 -0.00000000000E+00 -0.20482884588E+03  0.20482884588E+03  0.00000000000E+00 0. -1.
         25    2    1    2    0    0 -0.29898349410E+02  0.10163019839E+03  0.37459711145E+02  0.16809511083E+03  0.12502050954E+03 0.  0.
         25    2    1    2    0    0  0.29898349410E+02 -0.10163019839E+03 -0.91393595645E+02  0.18762869644E+03  0.12501651842E+03 0.  0.
          5    1    3    3  501    0 -0.44113928956E+02  0.90394271195E+02 -0.24280109707E+02  0.10357980846E+03  0.47000000000E+01 0.  1.
         -5    1    3    3    0  501  0.14215579546E+02  0.11235927195E+02  0.61739820852E+02  0.64515302376E+02  0.47000000000E+01 0.  1.
          5    1    4    4  502    0  0.49497274634E+02 -0.11774821379E+03 -0.97916201768E+02  0.16101023140E+03  0.47000000000E+01 0.  1.
         -5    1    4    4    0  502 -0.19598925224E+02  0.16118015397E+02  0.65226061237E+01  0.26618465037E+02  0.47000000000E+01 0.  1.
<mgrwt>
<rscale>  0 0.35161138E+03</rscale>
<asrwt>0</asrwt>
<pdfrwt beam="1">  1       21 0.23214610E-01 0.35161138E+03</pdfrwt>
<pdfrwt beam="2">  1       21 0.31512130E-01 0.35161138E+03</pdfrwt>
<totfact> 0.16182386E+05</totfact>
</mgrwt>
</event>
<event>
 8    1  0.9974463E-006  0.3038166E+03  0.7546771E-02  0.1083348E+00
         21   -1    0    0  504  503  0.00000000000E+00  0.00000000000E+00  0.49227159842E+02  0.49227159842E+02  0.00000000000E+00 0. -1.
         21   -1    0    0  503  504 -0.00000000000E+00 -0.00000000000E+00 -0.46876837467E+03  0.46876837467E+03  0.00000000000E+00 0. -1.
         25    2    1    2    0    0  0.66596557746E+02 -0.27025608451E+02 -0.12827678499E+03  0.19299225438E+03  0.12500236665E+03 0.  0.
         25    2    1    2    0    0 -0.66596557746E+02  0.27025608451E+02 -0.29126442984E+03  0.32500328013E+03  0.12500671579E+03 0.  0.
          5    1    3    3  501    0 -0.15973746309E+02  0.79868754991E+01 -0.95686015930E+02  0.97451805504E+02  0.47000000000E+01 0.  1.
         -5    1    3    3    0  501  0.82570304054E+02 -0.35012483950E+02 -0.32590769064E+02  0.95540448880E+02  0.47000000000E+01 0.  1.
          5    1    4    4  502    0 -0.71984656787E+02  0.40702885337E+02 -0.86877924860E+02  0.12003490957E+03  0.47000000000E+01 0.  1.
         -5    1    4    4    0  502  0.53880990412E+01 -0.13677276886E+02 -0.20438650498E+03  0.20496837056E+03  0.47000000000E+01 0.  1.
<mgrwt>
<rscale>  0 0.30381663E+03</rscale>
<asrwt>0</asrwt>
<pdfrwt beam="1">  1       21 0.75734092E-02 0.30381663E+03</pdfrwt>
<pdfrwt beam="2">  1       21 0.72118212E-01 0.30381663E+03</pdfrwt>
<totfact> 0.22218818E+05</totfact>
</mgrwt>
</event>
<event>
 8    1  0.9974463E-006  0.3347497E+03  0.7546771E-02  0.1069054E+00
         21   -1    0    0  504  503  0.00000000000E+00  0.00000000000E+00  0.13483973586E+03  0.13483973586E+03  0.00000000000E+00 0.  1.
         21   -1    0    0  503  504 -0.00000000000E+00 -0.00000000000E+00 -0.20776027245E+03  0.20776027245E+03  0.00000000000E+00 0.  1.
         25    2    1    2    0    0  0.10555129398E+03  0.24545216120E+02 -0.10521614170E+02  0.16578822575E+03  0.12502594986E+03 0.  0.
         25    2    1    2    0    0 -0.10555129398E+03 -0.24545216120E+02 -0.62398922416E+02  0.17681178257E+03  0.12500095056E+03 0.  0.
          5    1    3    3  501    0  0.25086672829E+02 -0.43372721148E+02 -0.30019227901E+02  0.58598448249E+02  0.47000000000E+01 0.  1.
         -5    1    3    3    0  501  0.80464621147E+02  0.67917937268E+02  0.19497613731E+02  0.10718977750E+03  0.47000000000E+01 0.  1.
          5    1    4    4  502    0 -0.92678931344E+02 -0.70384694533E+02 -0.34708957727E+02  0.12153267580E+03  0.47000000000E+01 0. -1.
         -5    1    4    4    0  502 -0.12872362631E+02  0.45839478413E+02 -0.27689964689E+02  0.55279106771E+02  0.47000000000E+01 0. -1.
<mgrwt>
<rscale>  0 0.33474970E+03</rscale>
<asrwt>0</asrwt>
<pdfrwt beam="1">  1       21 0.20744575E-01 0.33474970E+03</pdfrwt>
<pdfrwt beam="2">  1       21 0.31963119E-01 0.33474970E+03</pdfrwt>
<totfact> 0.19568575E+05</totfact>
</mgrwt>
</event>
<event>
 8    1  0.9974463E-006  0.3862349E+03  0.7546771E-02  0.1048653E+00
         21   -1    0    0  504  503  0.00000000000E+00  0.00000000000E+00  0.76051963811E+03  0.76051963811E+03  0.00000000000E+00 0.  1.
         21   -1    0    0  503  504 -0.00000000000E+00 -0.00000000000E+00 -0.49037995142E+02  0.49037995142E+02  0.00000000000E+00 0.  1.
         25    2    1    2    0    0 -0.99409008936E+02  0.42599423280E+02  0.56503077059E+03  0.58871280804E+03  0.12500454677E+03 0.  0.
         25    2    1    2    0    0  0.99409008936E+02 -0.42599423280E+02  0.14645087238E+03  0.22084482521E+03  0.12501086705E+03 0.  0.
          5    1    3    3  501    0 -0.15515737669E+02  0.71649810033E+02  0.31152934870E+03  0.32007352046E+03  0.47000000000E+01 0. -1.
         -5    1    3    3    0  501 -0.83893271267E+02 -0.29050386753E+02  0.25350142189E+03  0.26863928758E+03  0.47000000000E+01 0. -1.
          5    1    4    4  502    0  0.34537751713E+02  0.22669795638E+02 -0.66955080888E+01  0.42115267496E+02  0.47000000000E+01 0. -1.
         -5    1    4    4    0  502  0.64871257223E+02 -0.65269218919E+02  0.15314638046E+03  0.17872955772E+03  0.47000000000E+01 0. -1.
<mgrwt>
<rscale>  0 0.38623495E+03</rscale>
<asrwt>0</asrwt>
<pdfrwt beam="1">  1       21 0.11700301E+00 0.38623495E+03</pdfrwt>
<pdfrwt beam="2">  1       21 0.75443075E-02 0.38623495E+03</pdfrwt>
<totfact> 0.69742476E+04</totfact>
</mgrwt>
</event>
<event>
 8    1  0.9974463E-006  0.2937230E+03  0.7546771E-02  0.1088421E+00
         21   -1    0    0  504  503  0.00000000000E+00  0.00000000000E+00  0.10302793911E+02  0.10302793911E+02  0.00000000000E+00 0.  1.
         21   -1    0    0  503  504 -0.00000000000E+00 -0.00000000000E+00 -0.20934425707E+04  0.20934425707E+04  0.00000000000E+00 0.  1.
         25    2    1    2    0    0  0.49416351535E+02 -0.22088317488E+02 -0.64855002305E+03  0.66270345454E+03  0.12501546581E+03 0.  0.
         25    2    1    2    0    0 -0.49416351535E+02  0.22088317488E+02 -0.14345897537E+04  0.14410419100E+04  0.12499662188E+03 0.  0.
          5    1    3    3  501    0 -0.28779715412E+01 -0.64797184604E+02 -0.39292428655E+03  0.39826943495E+03  0.47000000000E+01 0. -1.
         -5    1    3    3    0  501  0.52294323076E+02  0.42708867116E+02 -0.25562573650E+03  0.26443401959E+03  0.47000000000E+01 0. -1.
          5    1    4    4  502    0  0.30375775029E+02 -0.20793872433E+02 -0.22348947512E+03  0.22654957146E+03  0.47000000000E+01 0.  1.
         -5    1    4    4    0  502 -0.79792126564E+02  0.42882189922E+02 -0.12111002786E+04  0.12144923386E+04  0.47000000000E+01 0.  1.
<mgrwt>
<rscale>  0 0.29372305E+03</rscale>
<asrwt>0</asrwt>
<pdfrwt beam="1">  1       21 0.15850445E-02 0.29372305E+03</pdfrwt>
<pdfrwt beam="2">  1       21 0.32206823E+00 0.29372305E+03</pdfrwt>
<totfact> 0.42195447E+04</totfact>
</mgrwt>
</event>
<event>
 8    1  0.9974463E-006  0.3208729E+03  0.7546771E-02  0.1075248E+00
         21   -1    0    0  504  503  0.00000000000E+00  0.00000000000E+00  0.67589052995E+03  0.67589052995E+03  0.00000000000E+00 0. -1.
         21   -1    0    0  503  504 -0.00000000000E+00 -0.00000000000E+00 -0.38082866135E+02  0.38082866135E+02  0.00000000000E+00 0. -1.
         25    2    1    2    0    0 -0.24652933914E+02  0.16695351196E+02  0.10511062509E+03  0.16599726806E+03  0.12498138900E+03 0.  0.
         25    2    1    2    0    0  0.24652933914E+02 -0.16695351196E+02  0.53269703872E+03  0.54797612802E+03  0.12500079964E+03 0.  0.
          5    1    3    3  501    0  0.33799058381E+02 -0.46723400042E+01 -0.92949489409E+01  0.35674825639E+02  0.47000000000E+01 0. -1.
         -5    1    3    3    0  501 -0.58451992295E+02  0.21367691200E+02  0.11440557403E+03  0.13032244242E+03  0.47000000000E+01 0. -1.
          5    1    4    4  502    0 -0.23626829233E+02 -0.12909153118E+02  0.22324173094E+02  0.35289261797E+02  0.47000000000E+01 0.  1.
         -5    1    4    4    0  502  0.48279763147E+02 -0.37861980781E+01  0.51037286563E+03  0.51268686622E+03  0.47000000000E+01 0.  1.
<mgrwt>
<rscale>  0 0.32087286E+03</rscale>
<asrwt>0</asrwt>
<pdfrwt beam="1">  1       21 0.10398315E+00 0.32087286E+03</pdfrwt>
<pdfrwt beam="2">  1       21 0.58589030E-02 0.32087286E+03</pdfrwt>
<totfact> 0.14745274E+05</totfact>
</mgrwt>
</event>
<event>
 8    1  0.9974463E-006  0.3332598E+03  0.7546771E-02  0.1069704E+00
         21   -1    0    0  504  503  0.00000000000E+00  0.00000000000E+00  0.26744585967E+02  0.26744585967E+02  0.00000000000E+00 0.  1.
         21   -1    0    0  503  504 -0.00000000000E+00 -0.00000000000E+00 -0.10381736085E+04  0.10381736085E+04  0.00000000000E+00 0.  1.
         25    2    1    2    0    0 -0.10957903272E+03 -0.82259511916E+00 -0.54387799711E+03  0.56869503845E+03  0.12491008747E+03 0.  0.
         25    2    1    2    0    0  0.10957903272E+03  0.82259511916E+00 -0.46755102546E+03  0.49622315605E+03  0.12500087246E+03 0.  0.
          5    1    3    3  501    0  0.47446749944E+01 -0.38756209551E+02 -0.21167931781E+03  0.21530160081E+03  0.47000000000E+01 0.  1.
         -5    1    3    3    0  501 -0.11432370771E+03  0.37933614432E+02 -0.33219867929E+03  0.35339343765E+03  0.47000000000E+01 0.  1.
          5    1    4    4  502    0  0.10071820544E+03 -0.38736307208E+02 -0.41948937857E+03  0.43317212183E+03  0.47000000000E+01 0. -1.
         -5    1    4    4    0  502  0.88608272726E+01  0.39558902327E+02 -0.48061646892E+02  0.63051034213E+02  0.47000000000E+01 0. -1.
<mgrwt>
<rscale>  0 0.33325980E+03</rscale>
<asrwt>0</asrwt>
<pdfrwt beam="1">  1       21 0.41145519E-02 0.33325980E+03</pdfrwt>
<pdfrwt beam="2">  1       21 0.15971901E+00 0.33325980E+03</pdfrwt>
<totfact> 0.89254415E+04</totfact>
</mgrwt>
</event>
<event>
 8    1  0.9974463E-006  0.3011515E+03  0.7546771E-02  0.1084666E+00
         21   -1    0    0  504  503  0.00000000000E+00  0.00000000000E+00  0.25385505322E+02  0.25385505322E+02  0.00000000000E+00 0. -1.
         21   -1    0    0  503  504 -0.00000000000E+00 -0.00000000000E+00 -0.89314958628E+03  0.89314958628E+03  0.00000000000E+00 0. -1.
         25    2    1    2    0    0 -0.12789690630E+02 -0.60582369559E+02 -0.26095115039E+03  0.29589624679E+03  0.12500114515E+03 0.  0.
         25    2    1    2    0    0  0.12789690630E+02  0.60582369559E+02 -0.60681293058E+03  0.62263884481E+03  0.12499359452E+03 0.  0.
          5    1    3    3  501    0  0.36401716342E+02 -0.74347817882E+02 -0.19821504795E+03  0.21485804200E+03  0.47000000000E+01 0. -1.
         -5    1    3    3    0  501 -0.49191406972E+02  0.13765448324E+02 -0.62736102433E+02  0.81038204792E+02  0.47000000000E+01 0. -1.
          5    1    4    4  502    0  0.21184360461E+02  0.63819616332E+02 -0.13669875835E+03  0.15241509470E+03  0.47000000000E+01 0.  1.
         -5    1    4    4    0  502 -0.83946698310E+01 -0.32372467732E+01 -0.47011417222E+03  0.47022375011E+03  0.47000000000E+01 0.  1.
<mgrwt>
<rscale>  0 0.30115148E+03</rscale>
<asrwt>0</asrwt>
<pdfrwt beam="1">  1       21 0.39054629E-02 0.30115148E+03</pdfrwt>
<pdfrwt beam="2">  1       21 0.13740761E+00 0.30115148E+03</pdfrwt>
<totfact> 0.14729484E+05</totfact>
</mgrwt>
</event>
<event>
 8    1  0.9974463E-006  0.3846925E+03  0.7546771E-02  0.1049213E+00
         21   -1    0    0  504  503  0.00000000000E+00  0.00000000000E+00  0.10326803996E+04  0.10326803996E+04  0.00000000000E+00 0. -1.
         21   -1    0    0  503  504 -0.00000000000E+00 -0.00000000000E+00 -0.35826256425E+02  0.35826256425E+02  0.00000000000E+00 0. -1.
         25    2    1    2    0    0 -0.17105122824E+01 -0.14564716378E+03  0.53292369617E+03  0.56643901532E+03  0.12501787860E+03 0.  0.
         25    2    1    2    0    0  0.17105122824E+01  0.14564716378E+03  0.46393044702E+03  0.50206764072E+03  0.12499773605E+03 0.  0.
          5    1    3    3  501    0  0.47576507908E+02 -0.12957338842E+03  0.41926259312E+03  0.44142496427E+03  0.47000000000E+01 0.  1.
         -5    1    3    3    0  501 -0.49287020190E+02 -0.16073775364E+02  0.11366110304E+03  0.12501405105E+03  0.47000000000E+01 0.  1.
          5    1    4    4  502    0 -0.52417256997E+02  0.10638161060E+03  0.35339999856E+03  0.37279788745E+03  0.47000000000E+01 0.  1.
         -5    1    4    4    0  502  0.54127769280E+02  0.39265553179E+02  0.11053044846E+03  0.12926975327E+03  0.47000000000E+01 0.  1.
<mgrwt>
<rscale>  0 0.38469246E+03</rscale>
<asrwt>0</asrwt>
<pdfrwt beam="1">  1       21 0.15887388E+00 0.38469246E+03</pdfrwt>
<pdfrwt beam="2">  1       21 0.55117326E-02 0.38469246E+03</pdfrwt>
<totfact> 0.54024932E+04</totfact>
</mgrwt>
</event>
<event>
 8    1  0.9974463E-006  0.3467006E+03  0.7546771E-02  0.1063977E+00
         21   -1    0    0  504  503  0.00000000000E+00  0.00000000000E+00  0.18130139207E+03  0.18130139207E+03  0.00000000000E+00 0.  1.
         21   -1    0    0  503  504 -0.00000000000E+00 -0.00000000000E+00 -0.16574790747E+03  0.16574790747E+03  0.00000000000E+00 0.  1.
         25    2    1    2    0    0 -0.40029288002E+02 -0.70672855391E+02  0.96339980673E+02  0.17749325140E+03  0.12500186410E+03 0.  0.
         25    2    1    2    0    0  0.40029288002E+02  0.70672855391E+02 -0.80786496073E+02  0.16955604814E+03  0.12500319646E+03 0.  0.
          5    1    3    3  501    0  0.11155149403E+02  0.25527276499E+02  0.53131602199E+02  0.60175878522E+02  0.47000000000E+01 0. -1.
         -5    1    3    3    0  501 -0.51184437405E+02 -0.96200131889E+02  0.43208378475E+02  0.11731737288E+03  0.47000000000E+01 0. -1.
          5    1    4    4  502    0  0.10653959588E+02  0.21843519255E+02  0.33565469940E+02  0.41705838448E+02  0.47000000000E+01 0. -1.
         -5    1    4    4    0  502  0.29375328414E+02  0.48829336135E+02 -0.11435196601E+03  0.12785020969E+03  0.47000000000E+01 0. -1.
<mgrwt>
<rscale>  0 0.34670060E+03</rscale>
<asrwt>0</asrwt>
<pdfrwt beam="1">  1       21 0.27892522E-01 0.34670060E+03</pdfrwt>
<pdfrwt beam="2">  1       21 0.25499678E-01 0.34670060E+03</pdfrwt>
<totfact> 0.17193456E+05</totfact>
</mgrwt>
</event>
<event>
 8    1  0.9974463E-006  0.3175061E+03  0.7546771E-02  0.1076803E+00
         21   -1    0    0  504  503  0.00000000000E+00  0.00000000000E+00  0.20849434306E+04  0.20849434306E+04  0.00000000000E+00 0.  1.
         21   -1    0    0  503  504 -0.00000000000E+00 -0.00000000000E+00 -0.12087869359E+02  0.12087869359E+02  0.00000000000E+00 0.  1.
         25    2    1    2    0    0 -0.75628698688E+02  0.55714984348E+02  0.85504249132E+03  0.86922005113E+03  0.12498790255E+03 0.  0.
         25    2    1    2    0    0  0.75628698688E+02 -0.55714984348E+02  0.12178130699E+04  0.12278112488E+04  0.12501171915E+03 0.  0.
          5    1    3    3  501    0 -0.73978989593E+02  0.89187187185E+02  0.74853937893E+03  0.75746982585E+03  0.47000000000E+01 0. -1.
         -5    1    3    3    0  501 -0.16497090955E+01 -0.33472202837E+02  0.10650311239E+03  0.11175022528E+03  0.47000000000E+01 0. -1.
          5    1    4    4  502    0  0.51075187595E+02 -0.90915054809E+02  0.64687981806E+03  0.65524790041E+03  0.47000000000E+01 0. -1.
         -5    1    4    4    0  502  0.24553511094E+02  0.35200070461E+02  0.57093325186E+03  0.57256334842E+03  0.47000000000E+01 0. -1.
<mgrwt>
<rscale>  0 0.31750606E+03</rscale>
<asrwt>0</asrwt>
<pdfrwt beam="1">  1       21 0.32076024E+00 0.31750606E+03</pdfrwt>
<pdfrwt beam="2">  1       21 0.18596739E-02 0.31750606E+03</pdfrwt>
<totfact> 0.32609317E+04</totfact>
</mgrwt>
</event>
<event>
 8    1  0.9974463E-006  0.3314287E+03  0.7546771E-02  0.1070506E+00
         21   -1    0    0  504  503  0.00000000000E+00  0.00000000000E+00  0.38089060862E+02  0.38089060862E+02  0.00000000000E+00 0. -1.
         21   -1    0    0  503  504 -0.00000000000E+00 -0.00000000000E+00 -0.72097449576E+03  0.72097449576E+03  0.00000000000E+00 0. -1.
         25    2    1    2    0    0 -0.73790853509E+02 -0.67374046410E+01 -0.15897705429E+03  0.21537663879E+03  0.12499163997E+03 0.  0.
         25    2    1    2    0    0  0.73790853509E+02  0.67374046410E+01 -0.52390838061E+03  0.54368691783E+03  0.12499996268E+03 0.  0.
          5    1    3    3  501    0 -0.75421912100E+02  0.71768296212E+01 -0.24027172263E+02  0.79620140135E+02  0.47000000000E+01 0.  1.
         -5    1    3    3    0  501  0.16310585906E+01 -0.13914234262E+02 -0.13494988203E+03  0.13575649865E+03  0.47000000000E+01 0.  1.
          5    1    4    4  502    0  0.10321750154E+03  0.30350147500E+00 -0.29115392592E+03  0.30894440166E+03  0.47000000000E+01 0.  1.
         -5    1    4    4    0  502 -0.29426648029E+02  0.64339031660E+01 -0.23275445469E+03  0.23474251618E+03  0.47000000000E+01 0.  1.
<mgrwt>
<rscale>  0 0.33142867E+03</rscale>
<asrwt>0</asrwt>
<pdfrwt beam="1">  1       21 0.58598557E-02 0.33142867E+03</pdfrwt>
<pdfrwt beam="2">  1       21 0.11091915E+00 0.33142867E+03</pdfrwt>
<totfact> 0.12550858E+05</totfact>
</mgrwt>
</event>
<event>
 8    1  0.9974463E-006  0.3414057E+03  0.7546771E-02  0.1066199E+00
         21   -1    0    0  504  503  0.00000000000E+00  0.00000000000E+00  0.22943726532E+02  0.22943726532E+02  0.00000000000E+00 0. -1.
         21   -1    0    0  503  504 -0.00000000000E+00 -0.00000000000E+00 -0.12700404103E+04  0.12700404103E+04  0.00000000000E+00 0. -1.
         25    2    1    2    0    0 -0.60403140086E+02  0.24111232213E+01 -0.99960358309E+03  0.10092008766E+04  0.12499893264E+03 0.  0.
         25    2    1    2    0    0  0.60403140086E+02 -0.24111232213E+01 -0.24749310071E+03  0.28378326026E+03  0.12500300420E+03 0.  0.
          5    1    3    3  501    0 -0.79251530281E+02  0.20702156354E+02 -0.36804949651E+03  0.37708342076E+03  0.47000000000E+01 0.  1.
         -5    1    3    3    0  501  0.18848390195E+02 -0.18291033133E+02 -0.63155408658E+03  0.63211745584E+03  0.47000000000E+01 0.  1.
          5    1    4    4  502    0  0.32548260315E+02  0.72862263717E+01  0.80732516089E+00  0.33693027738E+02  0.47000000000E+01 0.  1.
         -5    1    4    4    0  502  0.27854879771E+02 -0.96973495930E+01 -0.24830042587E+03  0.25009023253E+03  0.47000000000E+01 0.  1.
<mgrwt>
<rscale>  0 0.34140568E+03</rscale>
<asrwt>0</asrwt>
<pdfrwt beam="1">  1       21 0.35298032E-02 0.34140568E+03</pdfrwt>
<pdfrwt beam="2">  1       21 0.19539088E+00 0.34140568E+03</pdfrwt>
<totfact> 0.64712761E+04</totfact>
</mgrwt>
</event>
<event>
 8    1  0.9974463E-006  0.3149112E+03  0.7546771E-02  0.1078015E+00
         21   -1    0    0  504  503  0.00000000000E+00  0.00000000000E+00  0.61292018395E+03  0.61292018395E+03  0.00000000000E+00 0. -1.
         21   -1    0    0  503  504 -0.00000000000E+00 -0.00000000000E+00 -0.40449424533E+02  0.40449424533E+02  0.00000000000E+00 0. -1.
         25    2    1    2    0    0 -0.75251957213E+02  0.57327441121E+02  0.25562017471E+03  0.29985990669E+03  0.12499998940E+03 0.  0.
         25    2    1    2    0    0  0.75251957213E+02 -0.57327441121E+02  0.31685058471E+03  0.35350970180E+03  0.12500209464E+03 0.  0.
          5    1    3    3  501    0 -0.72170936883E+02  0.28905838891E+01  0.22667406938E+03  0.23795004378E+03  0.47000000000E+01 0. -1.
         -5    1    3    3    0  501 -0.30810203301E+01  0.54436857232E+02  0.28946105331E+02  0.61909862909E+02  0.47000000000E+01 0. -1.
          5    1    4    4  502    0  0.93070924316E+02  0.34442586845E+01  0.19001265589E+03  0.21166237093E+03  0.47000000000E+01 0.  1.
         -5    1    4    4    0  502 -0.17818967103E+02 -0.60771699806E+02  0.12683792882E+03  0.14184733086E+03  0.47000000000E+01 0.  1.
<mgrwt>
<rscale>  0 0.31491122E+03</rscale>
<asrwt>0</asrwt>
<pdfrwt beam="1">  1       21 0.94295406E-01 0.31491122E+03</pdfrwt>
<pdfrwt beam="2">  1       21 0.62229888E-02 0.31491122E+03</pdfrwt>
<totfact> 0.16825410E+05</totfact>
</mgrwt>
</event>
<event>
 8    1  0.9974463E-006  0.3538184E+03  0.7546771E-02  0.1061059E+00
         21   -1    0    0  504  503  0.00000000000E+00  0.00000000000E+00  0.12002058307E+03  0.12002058307E+03  0.00000000000E+00 0.  1.
         21   -1    0    0  503  504 -0.00000000000E+00 -0.00000000000E+00 -0.26076253485E+03  0.26076253485E+03  0.00000000000E+00 0.  1.
         25    2    1    2    0    0 -0.10721134166E+03  0.53835577488E+02 -0.31880612086E+02  0.17616466411E+03  0.12500029708E+03 0.  0.
         25    2    1    2    0    0  0.10721134166E+03 -0.53835577488E+02 -0.10886133969E+03  0.20461845381E+03  0.12500151670E+03 0.  0.
          5    1    3    3  501    0 -0.91929125184E+02  0.84841403812E+01 -0.69054188322E+02  0.11538420871E+03  0.47000000000E+01 0.  1.
         -5    1    3    3    0  501 -0.15282216480E+02  0.45351437107E+02  0.37173576236E+02  0.60780455398E+02  0.47000000000E+01 0.  1.
          5    1    4    4  502    0 -0.20328799855E+02  0.14896911569E+02 -0.45675439492E+01  0.26040939606E+02  0.47000000000E+01 0.  1.
         -5    1    4    4    0  502  0.12754014152E+03 -0.68732489057E+02 -0.10429379574E+03  0.17857751421E+03  0.47000000000E+01 0.  1.
<mgrwt>
<rscale>  0 0.35381844E+03</rscale>
<asrwt>0</asrwt>
<pdfrwt beam="1">  1       21 0.18464705E-01 0.35381844E+03</pdfrwt>
<pdfrwt beam="2">  1       21 0.40117313E-01 0.35381844E+03</pdfrwt>
<totfact> 0.15353261E+05</totfact>
</mgrwt>
</event>
<event>
 8    1  0.9974463E-006  0.2952962E+03  0.7546771E-02  0.1087616E+00
         21   -1    0    0  504  503  0.00000000000E+00  0.00000000000E+00  0.32085069733E+03  0.32085069733E+03  0.00000000000E+00 0.  1.
         21   -1    0    0  503  504 -0.00000000000E+00 -0.00000000000E+00 -0.67944277417E+02  0.67944277417E+02  0.00000000000E+00 0.  1.
         25    2    1    2    0    0  0.48142159383E+01  0.98784007389E-01  0.23184237432E+02  0.12722219302E+03  0.12499916439E+03 0.  0.
         25    2    1    2    0    0 -0.48142159383E+01 -0.98784007389E-01  0.22972218248E+03  0.26157278173E+03  0.12499941033E+03 0.  0.
          5    1    3    3  501    0 -0.58288637102E+02  0.13864371260E+02  0.15058737118E+02  0.61956771779E+02  0.47000000000E+01 0.  1.
         -5    1    3    3    0  501  0.63102853041E+02 -0.13765587253E+02  0.81255003142E+01  0.65265421240E+02  0.47000000000E+01 0.  1.
          5    1    4    4  502    0 -0.55737670395E+02  0.22711552024E+02  0.16655703136E+03  0.17716048429E+03  0.47000000000E+01 0. -1.
         -5    1    4    4    0  502  0.50923454456E+02 -0.22810336031E+02  0.63165151121E+02  0.84412297444E+02  0.47000000000E+01 0. -1.
<mgrwt>
<rscale>  0 0.29529625E+03</rscale>
<asrwt>0</asrwt>
<pdfrwt beam="1">  1       21 0.49361645E-01 0.29529625E+03</pdfrwt>
<pdfrwt beam="2">  1       21 0.10452966E-01 0.29529625E+03</pdfrwt>
<totfact> 0.28646129E+05</totfact>
</mgrwt>
</event>
<event>
 8    1  0.9974463E-006  0.3825013E+03  0.7546771E-02  0.1050013E+00
         21   -1    0    0  504  503  0.00000000000E+00  0.00000000000E+00  0.25591064142E+02  0.25591064142E+02  0.00000000000E+00 0.  1.
         21   -1    0    0  503  504 -0.00000000000E+00 -0.00000000000E+00 -0.14292803925E+04  0.14292803925E+04  0.00000000000E+00 0.  1.
         25    2    1    2    0    0 -0.98058236992E+02 -0.10544003551E+03 -0.75806155234E+03  0.78167518212E+03  0.12500301705E+03 0.  0.
         25    2    1    2    0    0  0.98058236992E+02  0.10544003551E+03 -0.64562777603E+03  0.67319627454E+03  0.12499991974E+03 0.  0.
          5    1    3    3  501    0 -0.12579646951E+03 -0.89460284455E+02 -0.67708488620E+03  0.69447384930E+03  0.47000000000E+01 0.  1.
         -5    1    3    3    0  501  0.27738232515E+02 -0.15979751058E+02 -0.80976666141E+02  0.87201332823E+02  0.47000000000E+01 0.  1.
          5    1    4    4  502    0  0.14218168078E+02  0.25145357575E+02 -0.40429647652E+03  0.40535438352E+03  0.47000000000E+01 0.  1.
         -5    1    4    4    0  502  0.83840068915E+02  0.80294677938E+02 -0.24133129952E+03  0.26784189102E+03  0.47000000000E+01 0.  1.
<mgrwt>
<rscale>  0 0.38250127E+03</rscale>
<asrwt>0</asrwt>
<pdfrwt beam="1">  1       21 0.39370864E-02 0.38250127E+03</pdfrwt>
<pdfrwt beam="2">  1       21 0.21988932E+00 0.38250127E+03</pdfrwt>
<totfact> 0.36727482E+04</totfact>
</mgrwt>
</event>
<event>
 8    1  0.9974463E-006  0.6034461E+03  0.7546771E-02  0.9898282E-01
         21   -1    0    0  504  503  0.00000000000E+00  0.00000000000E+00  0.10103035236E+04  0.10103035236E+04  0.00000000000E+00 0.  1.
         21   -1    0    0  503  504 -0.00000000000E+00 -0.00000000000E+00 -0.90108367910E+02  0.90108367910E+02  0.00000000000E+00 0.  1.
         25    2    1    2    0    0 -0.14107034440E+03  0.10178224809E+03  0.84757661346E+03  0.87422683977E+03  0.12500393435E+03 0.  0.
         25    2    1    2    0    0  0.14107034440E+03 -0.10178224809E+03  0.72618542267E+02  0.22618505177E+03  0.12500302744E+03 0.  0.
          5    1    3    3  501    0  0.96014473180E+01  0.49144258489E+02  0.13722371809E+03  0.14614987081E+03  0.47000000000E+01 0.  1.
         -5    1    3    3    0  501 -0.15067179172E+03  0.52637989604E+02  0.71035289537E+03  0.72807696896E+03  0.47000000000E+01 0.  1.
          5    1    4    4  502    0  0.65091428200E+02 -0.30514244082E+02  0.95302006590E+02  0.11946788513E+03  0.47000000000E+01 0. -1.
         -5    1    4    4    0  502  0.75978916197E+02 -0.71268004011E+02 -0.22683464324E+02  0.10671716664E+03  0.47000000000E+01 0. -1.
<mgrwt>
<rscale>  0 0.60344611E+03</rscale>
<asrwt>0</asrwt>
<pdfrwt beam="1">  1       21 0.15543130E+00 0.60344611E+03</pdfrwt>
<pdfrwt beam="2">  1       21 0.13862827E-01 0.60344611E+03</pdfrwt>
<totfact> 0.10420651E+04</totfact>
</mgrwt>
</event>
<event>
 8    1  0.9974463E-006  0.7410810E+03  0.7546771E-02  0.9649448E-01
         21   -1    0    0  504  503  0.00000000000E+00  0.00000000000E+00  0.20244877556E+04  0.20244877556E+04  0.00000000000E+00 0. -1.
         21   -1    0    0  503  504 -0.00000000000E+00 -0.00000000000E+00 -0.67819746403E+02  0.67819746403E+02  0.00000000000E+00 0. -1.
         25    2    1    2    0    0  0.30457749227E+03  0.16197757603E+03  0.11242224236E+04  0.11825843313E+04  0.12500183629E+03 0.  0.
         25    2    1    2    0    0 -0.30457749227E+03 -0.16197757603E+03  0.83244558563E+03  0.90972317069E+03  0.12500564118E+03 0.  0.
          5    1    3    3  501    0  0.48004324661E+02  0.12289559956E+01  0.65136198460E+02  0.81060100350E+02  0.47000000000E+01 0. -1.
         -5    1    3    3    0  501  0.25657316761E+03  0.16074862004E+03  0.10590862251E+04  0.11015242310E+04  0.47000000000E+01 0. -1.
          5    1    4    4  502    0 -0.12470903053E+03 -0.13674853168E+03  0.43055549776E+03  0.46867113188E+03  0.47000000000E+01 0.  1.
         -5    1    4    4    0  502 -0.17986846174E+03 -0.25229044348E+02  0.40189008787E+03  0.44105203881E+03  0.47000000000E+01 0.  1.
<mgrwt>
<rscale>  0 0.74108096E+03</rscale>
<asrwt>0</asrwt>
<pdfrwt beam="1">  1       21 0.31145961E+00 0.74108096E+03</pdfrwt>
<pdfrwt beam="2">  1       21 0.10433809E-01 0.74108096E+03</pdfrwt>
<totfact> 0.16004264E+03</totfact>
</mgrwt>
</event>
<event>
 8    1  0.9974463E-006  0.3285479E+03  0.7546771E-02  0.1071781E+00
         21   -1    0    0  504  503  0.00000000000E+00  0.00000000000E+00  0.55901080549E+03  0.55901080549E+03  0.00000000000E+00 0.  1.
         21   -1    0    0  503  504 -0.00000000000E+00 -0.00000000000E+00 -0.48274430950E+02  0.48274430950E+02  0.00000000000E+00 0.  1.
         25    2    1    2    0    0 -0.90846677472E+02 -0.35051004405E+02  0.17527272310E+03  0.23628080196E+03  0.12500559265E+03 0.  0.
         25    2    1    2    0    0  0.90846677472E+02  0.35051004405E+02  0.33546365145E+03  0.37100443449E+03  0.12500694880E+03 0.  0.
          5    1    3    3  501    0  0.12522806134E+02  0.23628537345E+02  0.35533593205E+01  0.27383294415E+02  0.47000000000E+01 0. -1.
         -5    1    3    3    0  501 -0.10336948361E+03 -0.58679541751E+02  0.17171936378E+03  0.20889750754E+03  0.47000000000E+01 0. -1.
          5    1    4    4  502    0  0.60732711196E+02  0.18374177525E+02  0.32970466959E+03  0.33578762896E+03  0.47000000000E+01 0. -1.
         -5    1    4    4    0  502  0.30113966277E+02  0.16676826881E+02  0.57589818534E+01  0.35216805530E+02  0.47000000000E+01 0. -1.
<mgrwt>
<rscale>  0 0.32854789E+03</rscale>
<asrwt>0</asrwt>
<pdfrwt beam="1">  1       21 0.86001658E-01 0.32854789E+03</pdfrwt>
<pdfrwt beam="2">  1       21 0.74268359E-02 0.32854789E+03</pdfrwt>
<totfact> 0.15293711E+05</totfact>
</mgrwt>
</event>
<event>
 8    1  0.9974463E-006  0.3100509E+03  0.7546771E-02  0.1080321E+00
         21   -1    0    0  504  503  0.00000000000E+00  0.00000000000E+00  0.33765424731E+02  0.33765424731E+02  0.00000000000E+00 0. -1.
         21   -1    0    0  503  504 -0.00000000000E+00 -0.00000000000E+00 -0.71176048017E+03  0.71176048017E+03  0.00000000000E+00 0. -1.
         25    2    1    2    0    0  0.20070752737E+02 -0.43027650663E+02 -0.52761789522E+03  0.54429766340E+03  0.12500035676E+03 0.  0.
         25    2    1    2    0    0 -0.20070752737E+02  0.43027650663E+02 -0.15037716022E+03  0.20122824150E+03  0.12500120409E+03 0.  0.
          5    1    3    3  501    0  0.69623104068E+02 -0.44088906095E+02 -0.28989164782E+03  0.30141411005E+03  0.47000000000E+01 0. -1.
         -5    1    3    3    0  501 -0.49552351331E+02  0.10612554324E+01 -0.23772624741E+03  0.24288355336E+03  0.47000000000E+01 0. -1.
          5    1    4    4  502    0 -0.72308501668E+01  0.28268179951E+01 -0.15785218066E+03  0.15811286169E+03  0.47000000000E+01 0.  1.
         -5    1    4    4    0  502 -0.12839902570E+02  0.40200832668E+02  0.74750204421E+01  0.43115379806E+02  0.47000000000E+01 0.  1.
<mgrwt>
<rscale>  0 0.31005093E+03</rscale>
<asrwt>0</asrwt>
<pdfrwt beam="1">  1       21 0.51946806E-02 0.31005093E+03</pdfrwt>
<pdfrwt beam="2">  1       21 0.10950161E+00 0.31005093E+03</pdfrwt>
<totfact> 0.16031575E+05</totfact>
</mgrwt>
</event>
<event>
 8    1  0.9974463E-006  0.3048286E+03  0.7546771E-02  0.1082851E+00
         21   -1    0    0  504  503  0.00000000000E+00  0.00000000000E+00  0.14144355277E+03  0.14144355277E+03  0.00000000000E+00 0. -1.
         21   -1    0    0  503  504 -0.00000000000E+00 -0.00000000000E+00 -0.16423594455E+03  0.16423594455E+03  0.00000000000E+00 0. -1.
         25    2    1    2    0    0 -0.13749749583E+02 -0.26020961059E+02  0.70925468993E+02  0.14670021243E+03  0.12499753656E+03 0.  0.
         25    2    1    2    0    0  0.13749749583E+02  0.26020961059E+02 -0.93717860776E+02  0.15897928489E+03  0.12500091827E+03 0.  0.
          5    1    3    3  501    0 -0.11149346164E+01 -0.76001876035E+02  0.35865924752E+02  0.84178279849E+02  0.47000000000E+01 0. -1.
         -5    1    3    3    0  501 -0.12634814967E+02  0.49980914976E+02  0.35059544242E+02  0.62521932580E+02  0.47000000000E+01 0. -1.
          5    1    4    4  502    0 -0.34070582308E+02 -0.23076394434E+02  0.16429097748E+01  0.41450135240E+02  0.47000000000E+01 0. -1.
         -5    1    4    4    0  502  0.47820331891E+02  0.49097355493E+02 -0.95360770551E+02  0.11752914965E+03  0.47000000000E+01 0. -1.
<mgrwt>
<rscale>  0 0.30482858E+03</rscale>
<asrwt>0</asrwt>
<pdfrwt beam="1">  1       21 0.21760547E-01 0.30482858E+03</pdfrwt>
<pdfrwt beam="2">  1       21 0.25267068E-01 0.30482858E+03</pdfrwt>
<totfact> 0.28494386E+05</totfact>
</mgrwt>
</event>
<event>
 8    1  0.9974463E-006  0.2768264E+03  0.7546771E-02  0.1097435E+00
         21   -1    0    0  504  503  0.00000000000E+00  0.00000000000E+00  0.18053279428E+03  0.18053279428E+03  0.00000000000E+00 0.  1.
         21   -1    0    0  503  504 -0.00000000000E+00 -0.00000000000E+00 -0.10612038070E+03  0.10612038070E+03  0.00000000000E+00 0.  1.
         25    2    1    2    0    0 -0.73572156715E+01 -0.10082208290E+02  0.97411168297E+02  0.15895625921E+03  0.12498950791E+03 0.  0.
         25    2    1    2    0    0  0.73572156715E+01  0.10082208290E+02 -0.22998754708E+02  0.12769691577E+03  0.12498711946E+03 0.  0.
          5    1    3    3  501    0 -0.58699308777E+02  0.14228770771E+02  0.77951882575E+02  0.98725137455E+02  0.47000000000E+01 0.  1.
         -5    1    3    3    0  501  0.51342093106E+02 -0.24310979062E+02  0.19459285722E+02  0.60231121758E+02  0.47000000000E+01 0.  1.
          5    1    4    4  502    0  0.61504832384E+02 -0.17758921741E+02 -0.70089509088E+01  0.64571194048E+02  0.47000000000E+01 0. -1.
         -5    1    4    4    0  502 -0.54147616712E+02  0.27841130032E+02 -0.15989803799E+02  0.63125721719E+02  0.47000000000E+01 0. -1.
<mgrwt>
<rscale>  0 0.27682636E+03</rscale>
<asrwt>0</asrwt>
<pdfrwt beam="1">  1       21 0.27774276E-01 0.27682636E+03</pdfrwt>
<pdfrwt beam="2">  1       21 0.16326212E-01 0.27682636E+03</pdfrwt>
<totfact> 0.40864625E+05</totfact>
</mgrwt>
</event>
<event>
 8    1  0.9974463E-006  0.2885425E+03  0.7546771E-02  0.1091113E+00
         21   -1    0    0  504  503  0.00000000000E+00  0.00000000000E+00  0.21718401091E+03  0.21718401091E+03  0.00000000000E+00 0.  1.
         21   -1    0    0  503  504 -0.00000000000E+00 -0.00000000000E+00 -0.95836655678E+02  0.95836655678E+02  0.00000000000E+00 0.  1.
         25    2    1    2    0    0 -0.17231713474E+02  0.25253696357E+02  0.13143541082E+03  0.18394160039E+03  0.12499825602E+03 0.  0.
         25    2    1    2    0    0  0.17231713474E+02 -0.25253696357E+02 -0.10088055580E+02  0.12907906620E+03  0.12499982135E+03 0.  0.
          5    1    3    3  501    0 -0.42637166123E+02  0.33929388278E+02  0.53601034685E+01  0.54954090231E+02  0.47000000000E+01 0.  1.
         -5    1    3    3    0  501  0.25405452649E+02 -0.86756919209E+01  0.12607530735E+03  0.12898751016E+03  0.47000000000E+01 0.  1.
          5    1    4    4  502    0  0.51826624027E+02 -0.57986568133E+02  0.70817398894E+01  0.78234788181E+02  0.47000000000E+01 0. -1.
         -5    1    4    4    0  502 -0.34594910553E+02  0.32732871776E+02 -0.17169795469E+02  0.50844278020E+02  0.47000000000E+01 0. -1.
<mgrwt>
<rscale>  0 0.28854247E+03</rscale>
<asrwt>0</asrwt>
<pdfrwt beam="1">  1       21 0.33412925E-01 0.28854247E+03</pdfrwt>
<pdfrwt beam="2">  1       21 0.14744101E-01 0.28854247E+03</pdfrwt>
<totfact> 0.34179961E+05</totfact>
</mgrwt>
</event>
<event>
 8    1  0.9974463E-006  0.2916791E+03  0.7546771E-02  0.1089476E+00
         21   -1    0    0  504  503  0.00000000000E+00  0.00000000000E+00  0.14519473526E+04  0.14519473526E+04  0.00000000000E+00 0. -1.
         21   -1    0    0  503  504 -0.00000000000E+00 -0.00000000000E+00 -0.14648720486E+02  0.14648720486E+02  0.00000000000E+00 0. -1.
         25    2    1    2    0    0  0.49685378071E+02 -0.17576208619E+02  0.44938171964E+03  0.46940966496E+03  0.12499577474E+03 0.  0.
         25    2    1    2    0    0 -0.49685378071E+02  0.17576208619E+02  0.98791691249E+03  0.99718640815E+03  0.12499338666E+03 0.  0.
          5    1    3    3  501    0  0.28270749606E+01 -0.12361047764E+02 -0.35699927443E+01  0.13986518611E+02  0.47000000000E+01 0.  1.
         -5    1    3    3    0  501  0.46858303111E+02 -0.52151608549E+01  0.45295171239E+03  0.45542314635E+03  0.47000000000E+01 0.  1.
          5    1    4    4  502    0  0.22981347578E+02  0.50637638055E+01  0.41875795762E+02  0.48264441477E+02  0.47000000000E+01 0. -1.
         -5    1    4    4    0  502 -0.72666725649E+02  0.12512444814E+02  0.94604111673E+03  0.94892196667E+03  0.47000000000E+01 0. -1.
<mgrwt>
<rscale>  0 0.29167908E+03</rscale>
<asrwt>0</asrwt>
<pdfrwt beam="1">  1       21 0.22337640E+00 0.29167908E+03</pdfrwt>
<pdfrwt beam="2">  1       21 0.22536505E-02 0.29167908E+03</pdfrwt>
<totfact> 0.92152451E+04</totfact>
</mgrwt>
</event>
<event>
 8    1  0.9974463E-006  0.2709697E+03  0.7546771E-02  0.1100726E+00
         21   -1    0    0  504  503  0.00000000000E+00  0.00000000000E+00  0.15507780813E+03  0.15507780813E+03  0.00000000000E+00 0. -1.
         21   -1    0    0  503  504 -0.00000000000E+00 -0.00000000000E+00 -0.11836730975E+03  0.11836730975E+03  0.00000000000E+00 0. -1.
         25    2    1    2    0    0  0.37907535344E+02 -0.33844322444E+02  0.30788216371E+02  0.13838851441E+03  0.12498418803E+03 0.  0.
         25    2    1    2    0    0 -0.37907535344E+02  0.33844322444E+02  0.59222820116E+01  0.13505660346E+03  0.12499117296E+03 0.  0.
          5    1    3    3  501    0  0.86986752782E+01 -0.73482562602E+02  0.45242751311E+02  0.86858220707E+02  0.47000000000E+01 0. -1.
         -5    1    3    3    0  501  0.29208860066E+02  0.39638240159E+02 -0.14454534941E+02  0.51530293707E+02  0.47000000000E+01 0. -1.
          5    1    4    4  502    0 -0.35983751564E+02  0.58211865800E+02  0.49691913825E+02  0.84704356418E+02  0.47000000000E+01 0. -1.
         -5    1    4    4    0  502 -0.19237837800E+01 -0.24367543356E+02 -0.43769631814E+02  0.50352247044E+02  0.47000000000E+01 0. -1.
<mgrwt>
<rscale>  0 0.27096969E+03</rscale>
<asrwt>0</asrwt>
<pdfrwt beam="1">  1       21 0.23858124E-01 0.27096969E+03</pdfrwt>
<pdfrwt beam="2">  1       21 0.18210355E-01 0.27096969E+03</pdfrwt>
<totfact> 0.44790242E+05</totfact>
</mgrwt>
</event>
<event>
 8    1  0.9974463E-006  0.2740598E+03  0.7546771E-02  0.1098978E+00
         21   -1    0    0  504  503  0.00000000000E+00  0.00000000000E+00  0.75986314867E+02  0.75986314867E+02  0.00000000000E+00 0. -1.
         21   -1    0    0  503  504 -0.00000000000E+00 -0.00000000000E+00 -0.24711281962E+03  0.24711281962E+03  0.00000000000E+00 0. -1.
         25    2    1    2    0    0 -0.51086807459E+02  0.20471527543E+02 -0.72638957664E+02  0.15468105069E+03  0.12498345464E+03 0.  0.
         25    2    1    2    0    0  0.51086807459E+02 -0.20471527543E+02 -0.98487547086E+02  0.16841808380E+03  0.12504362712E+03 0.  0.
          5    1    3    3  501    0 -0.80830813266E+02 -0.17488468644E+02 -0.24505599238E+02  0.86383339266E+02  0.47000000000E+01 0.  1.
         -5    1    3    3    0  501  0.29744005807E+02  0.37959996186E+02 -0.48133358426E+02  0.68297711421E+02  0.47000000000E+01 0.  1.
          5    1    4    4  502    0  0.67124268731E+02  0.34007732790E+01 -0.17612375974E+01  0.67397512339E+02  0.47000000000E+01 0. -1.
         -5    1    4    4    0  502 -0.16037461273E+02 -0.23872300822E+02 -0.96726309489E+02  0.10102057146E+03  0.47000000000E+01 0. -1.
<mgrwt>
<rscale>  0 0.27405979E+03</rscale>
<asrwt>0</asrwt>
<pdfrwt beam="1">  1       21 0.11690202E-01 0.27405979E+03</pdfrwt>
<pdfrwt beam="2">  1       21 0.38017357E-01 0.27405979E+03</pdfrwt>
<totfact> 0.40325565E+05</totfact>
</mgrwt>
</event>
<event>
 8    1  0.9974463E-006  0.6301001E+03  0.7546771E-02  0.9844853E-01
         21   -1    0    0  504  503  0.00000000000E+00  0.00000000000E+00  0.13842855789E+04  0.13842855789E+04  0.00000000000E+00 0.  1.
         21   -1    0    0  503  504 -0.00000000000E+00 -0.00000000000E+00 -0.71702358655E+02  0.71702358655E+02  0.00000000000E+00 0.  1.
         25    2    1    2    0    0 -0.22557974742E+03 -0.16394424951E+03  0.83329378000E+03  0.88756268006E+03  0.12500019145E+03 0.  0.
         25    2    1    2    0    0  0.22557974742E+03  0.16394424951E+03  0.47928944024E+03  0.56842525748E+03  0.12499986572E+03 0.  0.
          5    1    3    3  501    0 -0.19965093624E+03 -0.76296725600E+02  0.60085055236E+03  0.63775007876E+03  0.47000000000E+01 0. -1.
         -5    1    3    3    0  501 -0.25928811173E+02 -0.87647523912E+02  0.23244322764E+03  0.24981260131E+03  0.47000000000E+01 0. -1.
          5    1    4    4  502    0  0.18791589602E+02 -0.64635893269E+01  0.11148786003E+03  0.11334255494E+03  0.47000000000E+01 0. -1.
         -5    1    4    4    0  502  0.20678815782E+03  0.17040783884E+03  0.36780158021E+03  0.45508270255E+03  0.47000000000E+01 0. -1.
<mgrwt>
<rscale>  0 0.63010012E+03</rscale>
<asrwt>0</asrwt>
<pdfrwt beam="1">  1       21 0.21296699E+00 0.63010012E+03</pdfrwt>
<pdfrwt beam="2">  1       21 0.11031133E-01 0.63010012E+03</pdfrwt>
<totfact> 0.61617562E+03</totfact>
</mgrwt>
</event>
<event>
 8    1  0.9974463E-006  0.4138664E+03  0.7546771E-02  0.1039081E+00
         21   -1    0    0  504  503  0.00000000000E+00  0.00000000000E+00  0.28027069541E+03  0.28027069541E+03  0.00000000000E+00 0. -1.
         21   -1    0    0  503  504 -0.00000000000E+00 -0.00000000000E+00 -0.15278566644E+03  0.15278566644E+03  0.00000000000E+00 0. -1.
         25    2    1    2    0    0  0.16093329865E+03  0.25908235459E+02  0.89872309161E+02  0.22422562322E+03  0.12501733830E+03 0.  0.
         25    2    1    2    0    0 -0.16093329865E+03 -0.25908235459E+02  0.37612719803E+02  0.20883073863E+03  0.12499918970E+03 0.  0.
          5    1    3    3  501    0  0.11977132728E+03  0.67903946887E+02  0.31669781100E+02  0.14135480847E+03  0.47000000000E+01 0.  1.
         -5    1    3    3    0  501  0.41161971368E+02 -0.41995711428E+02  0.58202528061E+02  0.82870814754E+02  0.47000000000E+01 0.  1.
          5    1    4    4  502    0  0.10886101844E+02 -0.28358730357E+02  0.18486816508E+02  0.35868888823E+02  0.47000000000E+01 0. -1.
         -5    1    4    4    0  502 -0.17181940050E+03  0.24504948979E+01  0.19125903296E+02  0.17296184981E+03  0.47000000000E+01 0. -1.
<mgrwt>
<rscale>  0 0.41386638E+03</rscale>
<asrwt>0</asrwt>
<pdfrwt beam="1">  1       21 0.43118569E-01 0.41386638E+03</pdfrwt>
<pdfrwt beam="2">  1       21 0.23505487E-01 0.41386638E+03</pdfrwt>
<totfact> 0.82489661E+04</totfact>
</mgrwt>
</event>
<event>
 8    1  0.9974463E-006  0.2580433E+03  0.7546771E-02  0.1108325E+00
         21   -1    0    0  504  503  0.00000000000E+00  0.00000000000E+00  0.44019301331E+03  0.44019301331E+03  0.00000000000E+00 0.  1.
         21   -1    0    0  503  504 -0.00000000000E+00 -0.00000000000E+00 -0.37816548708E+02  0.37816548708E+02  0.00000000000E+00 0.  1.
         25    2    1    2    0    0  0.28062346058E+02 -0.14994598632E+02  0.19825104821E+03  0.23654269802E+03  0.12504653780E+03 0.  0.
         25    2    1    2    0    0 -0.28062346058E+02  0.14994598632E+02  0.20412541639E+03  0.24146686400E+03  0.12500690996E+03 0.  0.
          5    1    3    3  501    0  0.54288695793E+02  0.24585720265E+02  0.41715677897E+02  0.72897242158E+02  0.47000000000E+01 0. -1.
         -5    1    3    3    0  501 -0.26226349735E+02 -0.39580318897E+02  0.15653537032E+03  0.16364545586E+03  0.47000000000E+01 0. -1.
          5    1    4    4  502    0 -0.42971965504E+02 -0.35838042496E+02  0.16810268801E+03  0.17723306358E+03  0.47000000000E+01 0. -1.
         -5    1    4    4    0  502  0.14909619446E+02  0.50832641128E+02  0.36022728372E+02  0.64233800412E+02  0.47000000000E+01 0. -1.
<mgrwt>
<rscale>  0 0.25804326E+03</rscale>
<asrwt>0</asrwt>
<pdfrwt beam="1">  1       21 0.67721998E-01 0.25804326E+03</pdfrwt>
<pdfrwt beam="2">  1       21 0.58179309E-02 0.25804326E+03</pdfrwt>
<totfact> 0.40797613E+05</totfact>
</mgrwt>
</event>
<event>
 8    1  0.9974463E-006  0.3133739E+03  0.7546771E-02  0.1078740E+00
         21   -1    0    0  504  503  0.00000000000E+00  0.00000000000E+00  0.50271659514E+03  0.50271659514E+03  0.00000000000E+00 0. -1.
         21   -1    0    0  503  504 -0.00000000000E+00 -0.00000000000E+00 -0.48836276862E+02  0.48836276862E+02  0.00000000000E+00 0. -1.
         25    2    1    2    0    0 -0.73374140400E+02 -0.59468760500E+02  0.22654699852E+03  0.27546371322E+03  0.12504565890E+03 0.  0.
         25    2    1    2    0    0  0.73374140400E+02  0.59468760500E+02  0.22733331976E+03  0.27608915878E+03  0.12499794946E+03 0.  0.
          5    1    3    3  501    0 -0.36617270846E+02 -0.84157326450E+02  0.78488487195E+02  0.12085451064E+03  0.47000000000E+01 0.  1.
         -5    1    3    3    0  501 -0.36756869555E+02  0.24688565950E+02  0.14805851133E+03  0.15460920258E+03  0.47000000000E+01 0.  1.
          5    1    4    4  502    0  0.95215825718E+02  0.49982820630E+02  0.10154032039E+03  0.14797588482E+03  0.47000000000E+01 0.  1.
         -5    1    4    4    0  502 -0.21841685318E+02  0.94859398704E+01  0.12579299937E+03  0.12811327395E+03  0.47000000000E+01 0.  1.
<mgrwt>
<rscale>  0 0.31337394E+03</rscale>
<asrwt>0</asrwt>
<pdfrwt beam="1">  1       21 0.77341011E-01 0.31337394E+03</pdfrwt>
<pdfrwt beam="2">  1       21 0.75132737E-02 0.31337394E+03</pdfrwt>
<totfact> 0.19198598E+05</totfact>
</mgrwt>
</event>
<event>
 8    1  0.9974463E-006  0.3927425E+03  0.7546771E-02  0.1046322E+00
         21   -1    0    0  504  503  0.00000000000E+00  0.00000000000E+00  0.11294986680E+03  0.11294986680E+03  0.00000000000E+00 0.  1.
         21   -1    0    0  503  504 -0.00000000000E+00 -0.00000000000E+00 -0.34140515606E+03  0.34140515606E+03  0.00000000000E+00 0.  1.
         25    2    1    2    0    0 -0.57591340424E+02  0.13196226927E+03 -0.59896175440E+02  0.19985841940E+03  0.12500013188E+03 0.  0.
         25    2    1    2    0    0  0.57591340424E+02 -0.13196226927E+03 -0.16855911382E+03  0.25449660345E+03  0.12500217323E+03 0.  0.
          5    1    3    3  501    0 -0.76774828644E+02  0.72887776913E+02 -0.81761569252E+02  0.13384336570E+03  0.47000000000E+01 0. -1.
         -5    1    3    3    0  501  0.19183488220E+02  0.59074492361E+02  0.21865393811E+02  0.66015053696E+02  0.47000000000E+01 0. -1.
          5    1    4    4  502    0 -0.26784839268E+02 -0.75790106544E+01 -0.67917210629E+02  0.73550707112E+02  0.47000000000E+01 0. -1.
         -5    1    4    4    0  502  0.84376179692E+02 -0.12438325862E+03 -0.10064190319E+03  0.18094589634E+03  0.47000000000E+01 0. -1.
<mgrwt>
<rscale>  0 0.39274250E+03</rscale>
<asrwt>0</asrwt>
<pdfrwt beam="1">  1       21 0.17376903E-01 0.39274250E+03</pdfrwt>
<pdfrwt beam="2">  1       21 0.52523870E-01 0.39274250E+03</pdfrwt>
<totfact> 0.97098015E+04</totfact>
</mgrwt>
</event>
<event>
 8    1  0.9974463E-006  0.3134814E+03  0.7546771E-02  0.1078689E+00
         21   -1    0    0  504  503  0.00000000000E+00  0.00000000000E+00  0.87125263872E+02  0.87125263872E+02  0.00000000000E+00 0.  1.
         21   -1    0    0  503  504 -0.00000000000E+00 -0.00000000000E+00 -0.28198080622E+03  0.28198080622E+03  0.00000000000E+00 0.  1.
         25    2    1    2    0    0  0.64007563322E+01  0.31980644999E+02  0.70840749982E+01  0.12937896565E+03  0.12500000520E+03 0.  0.
         25    2    1    2    0    0 -0.64007563322E+01 -0.31980644999E+02 -0.20193961735E+03  0.23972710444E+03  0.12500297681E+03 0.  0.
          5    1    3    3  501    0 -0.42950291449E+02 -0.24466522803E+02  0.19289003358E+02  0.53268132350E+02  0.47000000000E+01 0. -1.
         -5    1    3    3    0  501  0.49351047781E+02  0.56447167801E+02 -0.12204928359E+02  0.76110833303E+02  0.47000000000E+01 0. -1.
          5    1    4    4  502    0  0.24718465875E+02  0.17351806876E+02 -0.17065931733E+03  0.17337468197E+03  0.47000000000E+01 0.  1.
         -5    1    4    4    0  502 -0.31119222207E+02 -0.49332451874E+02 -0.31280300024E+02  0.66352422475E+02  0.47000000000E+01 0.  1.
<mgrwt>
<rscale>  0 0.31348143E+03</rscale>
<asrwt>0</asrwt>
<pdfrwt beam="1">  1       21 0.13403887E-01 0.31348143E+03</pdfrwt>
<pdfrwt beam="2">  1       21 0.43381662E-01 0.31348143E+03</pdfrwt>
<totfact> 0.23842368E+05</totfact>
</mgrwt>
</event>
<event>
 8    1  0.9974463E-006  0.5137530E+03  0.7546771E-02  0.1010250E+00
         21   -1    0    0  504  503  0.00000000000E+00  0.00000000000E+00  0.13853481738E+03  0.13853481738E+03  0.00000000000E+00 0.  1.
         21   -1    0    0  503  504 -0.00000000000E+00 -0.00000000000E+00 -0.47631013838E+03  0.47631013838E+03  0.00000000000E+00 0.  1.
         25    2    1    2    0    0 -0.60494716808E+02 -0.49246075729E+01 -0.42744718821E+03  0.44946183431E+03  0.12498391606E+03 0.  0.
         25    2    1    2    0    0  0.60494716808E+02  0.49246075729E+01  0.89671867200E+02  0.16538312145E+03  0.12500668211E+03 0.  0.
          5    1    3    3  501    0 -0.57172746102E+02  0.41092353156E+02 -0.36454705134E+03  0.37131381205E+03  0.47000000000E+01 0.  1.
         -5    1    3    3    0  501 -0.33219707066E+01 -0.46016960729E+02 -0.62900136871E+02  0.78148022256E+02  0.47000000000E+01 0.  1.
          5    1    4    4  502    0  0.74778653888E+02 -0.23608366920E+02  0.10379646579E+03  0.13017295563E+03  0.47000000000E+01 0. -1.
         -5    1    4    4    0  502 -0.14283937080E+02  0.28532974493E+02 -0.14124598593E+02  0.35210165824E+02  0.47000000000E+01 0. -1.
<mgrwt>
<rscale>  0 0.51375301E+03</rscale>
<asrwt>0</asrwt>
<pdfrwt beam="1">  1       21 0.21313049E-01 0.51375301E+03</pdfrwt>
<pdfrwt beam="2">  1       21 0.73278483E-01 0.51375301E+03</pdfrwt>
<totfact> 0.30826849E+04</totfact>
</mgrwt>
</event>
<event>
 8    1  0.9974463E-006  0.2753204E+03  0.7546771E-02  0.1098273E+00
         21   -1    0    0  504  503  0.00000000000E+00  0.00000000000E+00  0.10352646278E+03  0.10352646278E+03  0.00000000000E+00 0. -1.
         21   -1    0    0  503  504 -0.00000000000E+00 -0.00000000000E+00 -0.18304816478E+03  0.18304816478E+03  0.00000000000E+00 0. -1.
         25    2    1    2    0    0  0.25623069459E+01 -0.52074777269E+02 -0.14111592507E+02  0.13617083401E+03  0.12500004459E+03 0.  0.
         25    2    1    2    0    0 -0.25623069459E+01  0.52074777269E+02 -0.65410109489E+02  0.15040379355E+03  0.12499788337E+03 0.  0.
          5    1    3    3  501    0 -0.39424393566E+02  0.25266015930E+02 -0.88481980333E+01  0.47885644796E+02  0.47000000000E+01 0.  1.
         -5    1    3    3    0  501  0.41986700512E+02 -0.77340793200E+02 -0.52633944736E+01  0.88285189211E+02  0.47000000000E+01 0.  1.
          5    1    4    4  502    0 -0.49798984294E+02  0.13684445869E+02  0.10580457478E+02  0.52926732148E+02  0.47000000000E+01 0.  1.
         -5    1    4    4    0  502  0.47236677348E+02  0.38390331401E+02 -0.75990566966E+02  0.97477061403E+02  0.47000000000E+01 0.  1.
<mgrwt>
<rscale>  0 0.27532039E+03</rscale>
<asrwt>0</asrwt>
<pdfrwt beam="1">  1       21 0.15927148E-01 0.27532039E+03</pdfrwt>
<pdfrwt beam="2">  1       21 0.28161256E-01 0.27532039E+03</pdfrwt>
<totfact> 0.41648030E+05</totfact>
</mgrwt>
</event>
<event>
 8    1  0.9974463E-006  0.2633454E+03  0.7546771E-02  0.1105150E+00
         21   -1    0    0  504  503  0.00000000000E+00  0.00000000000E+00  0.23764365257E+02  0.23764365257E+02  0.00000000000E+00 0. -1.
         21   -1    0    0  503  504 -0.00000000000E+00 -0.00000000000E+00 -0.72956739646E+03  0.72956739646E+03  0.00000000000E+00 0. -1.
         25    2    1    2    0    0 -0.16921425080E+02  0.29993892612E+02 -0.41870068566E+03  0.43831588649E+03  0.12499833581E+03 0.  0.
         25    2    1    2    0    0  0.16921425080E+02 -0.29993892612E+02 -0.28710234555E+03  0.31501587523E+03  0.12498510555E+03 0.  0.
          5    1    3    3  501    0  0.50315049603E+02 -0.35803199135E+01 -0.22170109249E+03  0.22741567078E+03  0.47000000000E+01 0.  1.
         -5    1    3    3    0  501 -0.67236474683E+02  0.33574212526E+02 -0.19699959317E+03  0.21090021571E+03  0.47000000000E+01 0.  1.
          5    1    4    4  502    0 -0.39505339709E+01  0.45499461453E+02 -0.65962281531E+02  0.80367408170E+02  0.47000000000E+01 0.  1.
         -5    1    4    4    0  502  0.20871959050E+02 -0.75493354065E+02 -0.22114006401E+03  0.23464846706E+03  0.47000000000E+01 0.  1.
<mgrwt>
<rscale>  0 0.26334545E+03</rscale>
<asrwt>0</asrwt>
<pdfrwt beam="1">  1       21 0.36560561E-02 0.26334545E+03</pdfrwt>
<pdfrwt beam="2">  1       21 0.11224114E+00 0.26334545E+03</pdfrwt>
<totfact> 0.27733943E+05</totfact>
</mgrwt>
</event>
<event>
 8    1  0.9974463E-006  0.3156727E+03  0.7546771E-02  0.1077658E+00
         21   -1    0    0  504  503  0.00000000000E+00  0.00000000000E+00  0.13092999186E+03  0.13092999186E+03  0.00000000000E+00 0.  1.
         21   -1    0    0  503  504 -0.00000000000E+00 -0.00000000000E+00 -0.19027198341E+03  0.19027198341E+03  0.00000000000E+00 0.  1.
         25    2    1    2    0    0  0.11430353853E+02 -0.77623529500E+02 -0.86623227168E+02  0.17111834065E+03  0.12498735017E+03 0.  0.
         25    2    1    2    0    0 -0.11430353853E+02  0.77623529500E+02  0.27281235620E+02  0.15008363462E+03  0.12499906496E+03 0.  0.
          5    1    3    3  501    0  0.64518278459E+02 -0.60055341084E+02 -0.35280180961E+02  0.95058052876E+02  0.47000000000E+01 0.  1.
         -5    1    3    3    0  501 -0.53087924605E+02 -0.17568188417E+02 -0.51343046207E+02  0.76060287779E+02  0.47000000000E+01 0.  1.
          5    1    4    4  502    0 -0.47165570076E+02  0.30802082298E+02 -0.33178059561E+02  0.65545655163E+02  0.47000000000E+01 0. -1.
         -5    1    4    4    0  502  0.35735216223E+02  0.46821447202E+02  0.60459295181E+02  0.84537979455E+02  0.47000000000E+01 0. -1.
<mgrwt>
<rscale>  0 0.31567267E+03</rscale>
<asrwt>0</asrwt>
<pdfrwt beam="1">  1       21 0.20143076E-01 0.31567267E+03</pdfrwt>
<pdfrwt beam="2">  1       21 0.29272613E-01 0.31567267E+03</pdfrwt>
<totfact> 0.24713397E+05</totfact>
</mgrwt>
</event>
<event>
 8    1  0.9974463E-006  0.2820688E+03  0.7546771E-02  0.1094564E+00
         21   -1    0    0  504  503  0.00000000000E+00  0.00000000000E+00  0.48849912778E+03  0.48849912778E+03  0.00000000000E+00 0. -1.
         21   -1    0    0  503  504 -0.00000000000E+00 -0.00000000000E+00 -0.40717978130E+02  0.40717978130E+02  0.00000000000E+00 0. -1.
         25    2    1    2    0    0  0.55901384744E+02  0.25930853972E+01  0.16070493651E+03  0.21114511452E+03  0.12499797540E+03 0.  0.
         25    2    1    2    0    0 -0.55901384744E+02 -0.25930853972E+01  0.28707621313E+03  0.31807199139E+03  0.12500140261E+03 0.  0.
          5    1    3    3  501    0 -0.12705080213E+01 -0.44862164400E+02  0.15055156046E+02  0.47570744254E+02  0.47000000000E+01 0.  1.
         -5    1    3    3    0  501  0.57171892766E+02  0.47455249797E+02  0.14564978047E+03  0.16357437026E+03  0.47000000000E+01 0.  1.
          5    1    4    4  502    0 -0.49568168707E+01  0.18952737003E+02  0.25113123342E+03  0.25193801355E+03  0.47000000000E+01 0. -1.
         -5    1    4    4    0  502 -0.50944567874E+02 -0.21545822400E+02  0.35944979717E+02  0.66133977845E+02  0.47000000000E+01 0. -1.
<mgrwt>
<rscale>  0 0.28206876E+03</rscale>
<asrwt>0</asrwt>
<pdfrwt beam="1">  1       21 0.75153708E-01 0.28206876E+03</pdfrwt>
<pdfrwt beam="2">  1       21 0.62643047E-02 0.28206876E+03</pdfrwt>
<totfact> 0.28319033E+05</totfact>
</mgrwt>
</event>
<event>
 8    1  0.9974463E-006  0.3278778E+03  0.7546771E-02  0.1072080E+00
         21   -1    0    0  504  503  0.00000000000E+00  0.00000000000E+00  0.90199966187E+03  0.90199966187E+03  0.00000000000E+00 0. -1.
         21   -1    0    0  503  504 -0.00000000000E+00 -0.00000000000E+00 -0.29795977760E+02  0.29795977760E+02  0.00000000000E+00 0. -1.
         25    2    1    2    0    0  0.81232035889E+01 -0.10542223803E+03  0.41252250198E+03  0.44382626682E+03  0.12500842280E+03 0.  0.
         25    2    1    2    0    0 -0.81232035889E+01  0.10542223803E+03  0.45968118213E+03  0.48796937281E+03  0.12500993916E+03 0.  0.
          5    1    3    3  501    0 -0.44872320242E+02 -0.21171217770E+02  0.62729356828E+02  0.80117462477E+02  0.47000000000E+01 0. -1.
         -5    1    3    3    0  501  0.52995523831E+02 -0.84251020256E+02  0.34979314515E+03  0.36370880434E+03  0.47000000000E+01 0. -1.
          5    1    4    4  502    0  0.52858381465E+02  0.16067506888E+02  0.15494106280E+03  0.16456304631E+03  0.47000000000E+01 0.  1.
         -5    1    4    4    0  502 -0.60981585054E+02  0.89354731139E+02  0.30474011932E+03  0.32340632650E+03  0.47000000000E+01 0.  1.
<mgrwt>
<rscale>  0 0.32787779E+03</rscale>
<asrwt>0</asrwt>
<pdfrwt beam="1">  1       21 0.13876916E+00 0.32787779E+03</pdfrwt>
<pdfrwt beam="2">  1       21 0.45839973E-02 0.32787779E+03</pdfrwt>
<totfact> 0.10848599E+05</totfact>
</mgrwt>
</event>
<event>
 8    1  0.9974463E-006  0.3467093E+03  0.7546771E-02  0.1063974E+00
         21   -1    0    0  504  503  0.00000000000E+00  0.00000000000E+00  0.39896038715E+03  0.39896038715E+03  0.00000000000E+00 0.  1.
         21   -1    0    0  503  504 -0.00000000000E+00 -0.00000000000E+00 -0.75325376443E+02  0.75325376443E+02  0.00000000000E+00 0.  1.
         25    2    1    2    0    0  0.59589372977E+02  0.38166499272E+02  0.29044601903E+02  0.14654624857E+03  0.12499855612E+03 0.  0.
         25    2    1    2    0    0 -0.59589372977E+02 -0.38166499272E+02  0.29459040880E+03  0.32773951502E+03  0.12498842230E+03 0.  0.
          5    1    3    3  501    0  0.98315908698E+02  0.25312506951E+02  0.13038213374E+02  0.10246377857E+03  0.47000000000E+01 0. -1.
         -5    1    3    3    0  501 -0.38726535721E+02  0.12853992321E+02  0.16006388528E+02  0.44082470000E+02  0.47000000000E+01 0. -1.
          5    1    4    4  502    0 -0.43808819759E+02 -0.82015440406E+02  0.15857710798E+03  0.18388728702E+03  0.47000000000E+01 0. -1.
         -5    1    4    4    0  502 -0.15780553218E+02  0.43848941135E+02  0.13601330083E+03  0.14385222800E+03  0.47000000000E+01 0. -1.
<mgrwt>
<rscale>  0 0.34670934E+03</rscale>
<asrwt>0</asrwt>
<pdfrwt beam="1">  1       21 0.61378520E-01 0.34670934E+03</pdfrwt>
<pdfrwt beam="2">  1       21 0.11588520E-01 0.34670934E+03</pdfrwt>
<totfact> 0.14755637E+05</totfact>
</mgrwt>
</event>
<event>
 8    1  0.9974463E-006  0.3646404E+03  0.7546771E-02  0.1056761E+00
         21   -1    0    0  504  503  0.00000000000E+00  0.00000000000E+00  0.11296914253E+03  0.11296914253E+03  0.00000000000E+00 0. -1.
         21   -1    0    0  503  504 -0.00000000000E+00 -0.00000000000E+00 -0.29424547358E+03  0.29424547358E+03  0.00000000000E+00 0. -1.
         25    2    1    2    0    0  0.16468736228E+01 -0.80912911923E+02 -0.20811761300E+03  0.25590192492E+03  0.12499297111E+03 0.  0.
         25    2    1    2    0    0 -0.16468736228E+01  0.80912911923E+02  0.26841281958E+02  0.15131269119E+03  0.12500185835E+03 0.  0.
          5    1    3    3  501    0 -0.32675949129E+02  0.22329095576E+02 -0.50744833938E+02  0.64524680023E+02  0.47000000000E+01 0. -1.
         -5    1    3    3    0  501  0.34322822752E+02 -0.10324200750E+03 -0.15737277907E+03  0.19137724490E+03  0.47000000000E+01 0. -1.
          5    1    4    4  502    0  0.41682010578E+01 -0.27350225535E+02 -0.18594634605E+02  0.33663914998E+02  0.47000000000E+01 0. -1.
         -5    1    4    4    0  502 -0.58150746807E+01  0.10826313746E+03  0.45435916563E+02  0.11764877619E+03  0.47000000000E+01 0. -1.
<mgrwt>
<rscale>  0 0.36464042E+03</rscale>
<asrwt>0</asrwt>
<pdfrwt beam="1">  1       21 0.17379868E-01 0.36464042E+03</pdfrwt>
<pdfrwt beam="2">  1       21 0.45268534E-01 0.36464042E+03</pdfrwt>
<totfact> 0.13365163E+05</totfact>
</mgrwt>
</event>
<event>
 8    1  0.9974463E-006  0.3727691E+03  0.7546771E-02  0.1053639E+00
         21   -1    0    0  504  503  0.00000000000E+00  0.00000000000E+00  0.31953355529E+02  0.31953355529E+02  0.00000000000E+00 0.  1.
         21   -1    0    0  503  504 -0.00000000000E+00 -0.00000000000E+00 -0.10871845404E+04  0.10871845404E+04  0.00000000000E+00 0.  1.
         25    2    1    2    0    0  0.90050565702E+02 -0.62576581978E+02 -0.27485752132E+03  0.32124481710E+03  0.12500656978E+03 0.  0.
         25    2    1    2    0    0 -0.90050565702E+02  0.62576581978E+02 -0.78037366355E+03  0.79789307884E+03  0.12500150996E+03 0.  0.
          5    1    3    3  501    0  0.82546190661E+02 -0.97422366954E+02 -0.23554344923E+03  0.26796977003E+03  0.47000000000E+01 0.  1.
         -5    1    3    3    0  501  0.75043750414E+01  0.34845784976E+02 -0.39314072094E+02  0.53275047067E+02  0.47000000000E+01 0.  1.
          5    1    4    4  502    0  0.17851963126E+01  0.18487799303E+02 -0.11625686212E+02  0.22410538343E+02  0.47000000000E+01 0. -1.
         -5    1    4    4    0  502 -0.91835762015E+02  0.44088782676E+02 -0.76874797734E+03  0.77548254049E+03  0.47000000000E+01 0. -1.
<mgrwt>
<rscale>  0 0.37276907E+03</rscale>
<asrwt>0</asrwt>
<pdfrwt beam="1">  1       21 0.49159009E-02 0.37276907E+03</pdfrwt>
<pdfrwt beam="2">  1       21 0.16725916E+00 0.37276907E+03</pdfrwt>
<totfact> 0.57218626E+04</totfact>
</mgrwt>
</event>
<event>
 8    1  0.9974463E-006  0.2816169E+03  0.7546771E-02  0.1094809E+00
         21   -1    0    0  504  503  0.00000000000E+00  0.00000000000E+00  0.25649820967E+03  0.25649820967E+03  0.00000000000E+00 0. -1.
         21   -1    0    0  503  504 -0.00000000000E+00 -0.00000000000E+00 -0.77298853320E+02  0.77298853320E+02  0.00000000000E+00 0. -1.
         25    2    1    2    0    0  0.57649558068E+01  0.64252717521E+02  0.82050794199E+02  0.16284189430E+03  0.12499401300E+03 0.  0.
         25    2    1    2    0    0 -0.57649558068E+01 -0.64252717521E+02  0.97148562152E+02  0.17095516869E+03  0.12500472051E+03 0.  0.
          5    1    3    3  501    0 -0.43843256005E+02  0.18659335340E+02 -0.97590384813E+01  0.48864411636E+02  0.47000000000E+01 0.  1.
         -5    1    3    3    0  501  0.49608211812E+02  0.45593382181E+02  0.91809832681E+02  0.11397748267E+03  0.47000000000E+01 0.  1.
          5    1    4    4  502    0  0.19263696315E+01 -0.90533683862E+02  0.25628890722E+02  0.94228386664E+02  0.47000000000E+01 0. -1.
         -5    1    4    4    0  502 -0.76913254383E+01  0.26280966341E+02  0.71519671430E+02  0.76726782027E+02  0.47000000000E+01 0. -1.
<mgrwt>
<rscale>  0 0.28161689E+03</rscale>
<asrwt>0</asrwt>
<pdfrwt beam="1">  1       21 0.39461263E-01 0.28161689E+03</pdfrwt>
<pdfrwt beam="2">  1       21 0.11892131E-01 0.28161689E+03</pdfrwt>
<totfact> 0.36201966E+05</totfact>
</mgrwt>
</event>
<event>
 8    1  0.9974463E-006  0.3133930E+03  0.7546771E-02  0.1078731E+00
         21   -1    0    0  504  503  0.00000000000E+00  0.00000000000E+00  0.10369603329E+04  0.10369603329E+04  0.00000000000E+00 0. -1.
         21   -1    0    0  503  504 -0.00000000000E+00 -0.00000000000E+00 -0.23678621658E+02  0.23678621658E+02  0.00000000000E+00 0. -1.
         25    2    1    2    0    0  0.90654603459E+02 -0.16329351683E+02  0.57794855154E+03  0.59844331089E+03  0.12499985306E+03 0.  0.
         25    2    1    2    0    0 -0.90654603459E+02  0.16329351683E+02  0.43533315967E+03  0.46219564364E+03  0.12499979294E+03 0.  0.
          5    1    3    3  501    0  0.28260003791E+02  0.21920404678E+02  0.33990285868E+02  0.49563711411E+02  0.47000000000E+01 0.  1.
         -5    1    3    3    0  501  0.62394599668E+02 -0.38249756361E+02  0.54395826567E+03  0.54887959948E+03  0.47000000000E+01 0.  1.
          5    1    4    4  502    0  0.26512090802E+02  0.99960001915E+01  0.16466105250E+03  0.16714713037E+03  0.47000000000E+01 0. -1.
         -5    1    4    4    0  502 -0.11716669426E+03  0.63333514912E+01  0.27067210717E+03  0.29504851327E+03  0.47000000000E+01 0. -1.
<mgrwt>
<rscale>  0 0.31339299E+03</rscale>
<asrwt>0</asrwt>
<pdfrwt beam="1">  1       21 0.15953232E+00 0.31339299E+03</pdfrwt>
<pdfrwt beam="2">  1       21 0.36428657E-02 0.31339299E+03</pdfrwt>
<totfact> 0.11073448E+05</totfact>
</mgrwt>
</event>
<event>
 8    1  0.9974463E-006  0.3511876E+03  0.7546771E-02  0.1062129E+00
         21   -1    0    0  504  503  0.00000000000E+00  0.00000000000E+00  0.69308867275E+02  0.69308867275E+02  0.00000000000E+00 0.  1.
         21   -1    0    0  503  504 -0.00000000000E+00 -0.00000000000E+00 -0.44486627415E+03  0.44486627415E+03  0.00000000000E+00 0.  1.
         25    2    1    2    0    0  0.61261588761E+02  0.86389485043E+02 -0.95261166791E+02  0.18951146772E+03  0.12499512437E+03 0.  0.
         25    2    1    2    0    0 -0.61261588761E+02 -0.86389485043E+02 -0.28029624009E+03  0.32466367370E+03  0.12499757371E+03 0.  0.
          5    1    3    3  501    0 -0.23426319994E+02  0.12508420308E+02 -0.68885859758E+02  0.73977055373E+02  0.47000000000E+01 0. -1.
         -5    1    3    3    0  501  0.84687908755E+02  0.73881064736E+02 -0.26375307033E+02  0.11553441235E+03  0.47000000000E+01 0. -1.
          5    1    4    4  502    0 -0.44428960312E+02 -0.59087965591E+01 -0.15981705301E+02  0.47815805917E+02  0.47000000000E+01 0.  1.
         -5    1    4    4    0  502 -0.16832628449E+02 -0.80480688484E+02 -0.26431453478E+03  0.27684786779E+03  0.47000000000E+01 0.  1.
<mgrwt>
<rscale>  0 0.35118757E+03</rscale>
<asrwt>0</asrwt>
<pdfrwt beam="1">  1       21 0.10662903E-01 0.35118757E+03</pdfrwt>
<pdfrwt beam="2">  1       21 0.68440962E-01 0.35118757E+03</pdfrwt>
<totfact> 0.13466840E+05</totfact>
</mgrwt>
</event>
<event>
 8    1  0.9974463E-006  0.2537243E+03  0.7546771E-02  0.1110974E+00
         21   -1    0    0  504  503  0.00000000000E+00  0.00000000000E+00  0.58428604547E+02  0.58428604547E+02  0.00000000000E+00 0.  1.
         21   -1    0    0  503  504 -0.00000000000E+00 -0.00000000000E+00 -0.27544741995E+03  0.27544741995E+03  0.00000000000E+00 0.  1.
         25    2    1    2    0    0 -0.72107882304E+01 -0.15435024307E+02 -0.90880077625E+02  0.15548034174E+03  0.12499885086E+03 0.  0.
         25    2    1    2    0    0  0.72107882304E+01  0.15435024307E+02 -0.12613873778E+03  0.17839568276E+03  0.12499521197E+03 0.  0.
          5    1    3    3  501    0  0.33559068870E+02 -0.33149574235E+02  0.69600768318E+01  0.47912817125E+02  0.47000000000E+01 0.  1.
         -5    1    3    3    0  501 -0.40769857100E+02  0.17714549928E+02 -0.97840154457E+02  0.10756752461E+03  0.47000000000E+01 0.  1.
          5    1    4    4  502    0 -0.14536647222E+02  0.64889060532E+02 -0.94388722151E+02  0.11555615587E+03  0.47000000000E+01 0. -1.
         -5    1    4    4    0  502  0.21747435453E+02 -0.49454036225E+02 -0.31750015625E+02  0.62839526892E+02  0.47000000000E+01 0. -1.
<mgrwt>
<rscale>  0 0.25372433E+03</rscale>
<asrwt>0</asrwt>
<pdfrwt beam="1">  1       21 0.89890161E-02 0.25372433E+03</pdfrwt>
<pdfrwt beam="2">  1       21 0.42376526E-01 0.25372433E+03</pdfrwt>
<totfact> 0.51826362E+05</totfact>
</mgrwt>
</event>
<event>
 8    1  0.9974463E-006  0.2863647E+03  0.7546771E-02  0.1092263E+00
         21   -1    0    0  504  503  0.00000000000E+00  0.00000000000E+00  0.66829820996E+03  0.66829820996E+03  0.00000000000E+00 0.  1.
         21   -1    0    0  503  504 -0.00000000000E+00 -0.00000000000E+00 -0.30676706500E+02  0.30676706500E+02  0.00000000000E+00 0.  1.
         25    2    1    2    0    0 -0.63209514030E+01  0.51572737160E+02  0.20500634357E+03  0.24566656637E+03  0.12499903713E+03 0.  0.
         25    2    1    2    0    0  0.63209514030E+01 -0.51572737160E+02  0.43261515989E+03  0.45330835009E+03  0.12503152423E+03 0.  0.
          5    1    3    3  501    0  0.16295238865E+02 -0.22788838066E+02  0.22777069025E+01  0.28498138514E+02  0.47000000000E+01 0.  1.
         -5    1    3    3    0  501 -0.22616190268E+02  0.74361575225E+02  0.20272863667E+03  0.21716842786E+03  0.47000000000E+01 0.  1.
          5    1    4    4  502    0 -0.54198889467E+02 -0.51180870546E+02  0.23769856576E+03  0.24915798059E+03  0.47000000000E+01 0.  1.
         -5    1    4    4    0  502  0.60519840870E+02 -0.39186661327E+00  0.19491659413E+03  0.20415036950E+03  0.47000000000E+01 0.  1.
<mgrwt>
<rscale>  0 0.28636472E+03</rscale>
<asrwt>0</asrwt>
<pdfrwt beam="1">  1       21 0.10281510E+00 0.28636472E+03</pdfrwt>
<pdfrwt beam="2">  1       21 0.47194938E-02 0.28636472E+03</pdfrwt>
<totfact> 0.22159846E+05</totfact>
</mgrwt>
</event>
<event>
 8    1  0.9974463E-006  0.2922243E+03  0.7546771E-02  0.1089194E+00
         21   -1    0    0  504  503  0.00000000000E+00  0.00000000000E+00  0.42728493922E+02  0.42728493922E+02  0.00000000000E+00 0. -1.
         21   -1    0    0  503  504 -0.00000000000E+00 -0.00000000000E+00 -0.49963745654E+03  0.49963745654E+03  0.00000000000E+00 0. -1.
         25    2    1    2    0    0  0.49423457118E+01  0.43094225507E+02 -0.11340094852E+03  0.17425683597E+03  0.12499652277E+03 0.  0.
         25    2    1    2    0    0 -0.49423457118E+01 -0.43094225507E+02 -0.34350801410E+03  0.36810911449E+03  0.12500010146E+03 0.  0.
          5    1    3    3  501    0 -0.55807276698E+01 -0.72201197426E+01  0.24741246962E+02  0.26786077572E+02  0.47000000000E+01 0.  1.
         -5    1    3    3    0  501  0.10523073382E+02  0.50314345249E+02 -0.13814219548E+03  0.14747075840E+03  0.47000000000E+01 0.  1.
          5    1    4    4  502    0  0.42760799764E+02 -0.46550776186E+02 -0.89962255913E+02  0.11004889027E+03  0.47000000000E+01 0. -1.
         -5    1    4    4    0  502 -0.47703145476E+02  0.34565506792E+01 -0.25354575819E+03  0.25806022423E+03  0.47000000000E+01 0. -1.
<mgrwt>
<rscale>  0 0.29222427E+03</rscale>
<asrwt>0</asrwt>
<pdfrwt beam="1">  1       21 0.65736142E-02 0.29222427E+03</pdfrwt>
<pdfrwt beam="2">  1       21 0.76867304E-01 0.29222427E+03</pdfrwt>
<totfact> 0.24697573E+05</totfact>
</mgrwt>
</event>
<event>
 8    1  0.9974463E-006  0.2878198E+03  0.7546771E-02  0.1091493E+00
         21   -1    0    0  504  503  0.00000000000E+00  0.00000000000E+00  0.12234019454E+04  0.12234019454E+04  0.00000000000E+00 0. -1.
         21   -1    0    0  503  504 -0.00000000000E+00 -0.00000000000E+00 -0.16928252041E+02  0.16928252041E+02  0.00000000000E+00 0. -1.
         25    2    1    2    0    0  0.47212508413E+02  0.10400561797E+02  0.37731897298E+03  0.40041338962E+03  0.12499633028E+03 0.  0.
         25    2    1    2    0    0 -0.47212508413E+02 -0.10400561797E+02  0.82915472036E+03  0.83991680780E+03  0.12500200434E+03 0.  0.
          5    1    3    3  501    0  0.72642433017E+02  0.18936723189E+02  0.36081080003E+03  0.36856755959E+03  0.47000000000E+01 0. -1.
         -5    1    3    3    0  501 -0.25429924604E+02 -0.85361613928E+01  0.16508172946E+02  0.31845830036E+02  0.47000000000E+01 0. -1.
          5    1    4    4  502    0 -0.65703539628E+02  0.99517977426E+01  0.78409879197E+03  0.78692375677E+03  0.47000000000E+01 0.  1.
         -5    1    4    4    0  502  0.18491031215E+02 -0.20352359539E+02  0.45055928390E+02  0.52993051028E+02  0.47000000000E+01 0.  1.
<mgrwt>
<rscale>  0 0.28781978E+03</rscale>
<asrwt>0</asrwt>
<pdfrwt beam="1">  1       21 0.18821561E+00 0.28781978E+03</pdfrwt>
<pdfrwt beam="2">  1       21 0.26043474E-02 0.28781978E+03</pdfrwt>
<totfact> 0.12263507E+05</totfact>
</mgrwt>
</event>
<event>
 8    1  0.9974463E-006  0.4838355E+03  0.7546771E-02  0.1018086E+00
         21   -1    0    0  504  503  0.00000000000E+00  0.00000000000E+00  0.16053662456E+03  0.16053662456E+03  0.00000000000E+00 0.  1.
         21   -1    0    0  503  504 -0.00000000000E+00 -0.00000000000E+00 -0.36455348668E+03  0.36455348668E+03  0.00000000000E+00 0.  1.
         25    2    1    2    0    0 -0.43397834072E+02  0.17432544459E+03 -0.21388320383E+03  0.30601397619E+03  0.12500318442E+03 0.  0.
         25    2    1    2    0    0  0.43397834072E+02 -0.17432544459E+03  0.98663417136E+01  0.21907613505E+03  0.12499710243E+03 0.  0.
          5    1    3    3  501    0 -0.42265913369E+02  0.18200672761E+03 -0.22445067433E+03  0.29208398028E+03  0.47000000000E+01 0.  1.
         -5    1    3    3    0  501 -0.11319207025E+01 -0.76812830289E+01  0.10567470499E+02  0.13929995915E+02  0.47000000000E+01 0.  1.
          5    1    4    4  502    0  0.58600299483E+02 -0.16433776418E+03  0.44104000074E+02  0.18002263374E+03  0.47000000000E+01 0.  1.
         -5    1    4    4    0  502 -0.15202465412E+02 -0.99876804058E+01 -0.34237658360E+02  0.39053501309E+02  0.47000000000E+01 0.  1.
<mgrwt>
<rscale>  0 0.48383545E+03</rscale>
<asrwt>0</asrwt>
<pdfrwt beam="1">  1       21 0.24697942E-01 0.48383545E+03</pdfrwt>
<pdfrwt beam="2">  1       21 0.56085152E-01 0.48383545E+03</pdfrwt>
<totfact> 0.42269462E+04</totfact>
</mgrwt>
</event>
<event>
 8    1  0.9974463E-006  0.3134433E+03  0.7546771E-02  0.1078707E+00
         21   -1    0    0  504  503  0.00000000000E+00  0.00000000000E+00  0.89166381483E+03  0.89166381483E+03  0.00000000000E+00 0. -1.
         21   -1    0    0  503  504 -0.00000000000E+00 -0.00000000000E+00 -0.27545894069E+02  0.27545894069E+02  0.00000000000E+00 0. -1.
         25    2    1    2    0    0  0.14215631473E+02  0.17779710161E+01  0.70606719533E+03  0.71719024854E+03  0.12500289164E+03 0.  0.
         25    2    1    2    0    0 -0.14215631473E+02 -0.17779710161E+01  0.15805072543E+03  0.20201946036E+03  0.12500634062E+03 0.  0.
          5    1    3    3  501    0 -0.47050160333E+02 -0.19664866106E+02  0.45313868231E+03  0.45602322304E+03  0.47000000000E+01 0. -1.
         -5    1    3    3    0  501  0.61265791806E+02  0.21442837122E+02  0.25292851302E+03  0.26116702550E+03  0.47000000000E+01 0. -1.
          5    1    4    4  502    0  0.39559295799E+01  0.31866020940E+02 -0.64330073301E+01  0.33084229668E+02  0.47000000000E+01 0. -1.
         -5    1    4    4    0  502 -0.18171561053E+02 -0.33643991957E+02  0.16448373276E+03  0.16893523069E+03  0.47000000000E+01 0. -1.
<mgrwt>
<rscale>  0 0.31344331E+03</rscale>
<asrwt>0</asrwt>
<pdfrwt beam="1">  1       21 0.13717903E+00 0.31344331E+03</pdfrwt>
<pdfrwt beam="2">  1       21 0.42378305E-02 0.31344331E+03</pdfrwt>
<totfact> 0.12835453E+05</totfact>
</mgrwt>
</event>
<event>
 8    1  0.9974463E-006  0.3548538E+03  0.7546771E-02  0.1060640E+00
         21   -1    0    0  504  503  0.00000000000E+00  0.00000000000E+00  0.12675562058E+03  0.12675562058E+03  0.00000000000E+00 0. -1.
         21   -1    0    0  503  504 -0.00000000000E+00 -0.00000000000E+00 -0.24835428213E+03  0.24835428213E+03  0.00000000000E+00 0. -1.
         25    2    1    2    0    0 -0.16506316779E+02  0.76375627487E+02  0.43576805427E+02  0.15371943157E+03  0.12500012282E+03 0.  0.
         25    2    1    2    0    0  0.16506316779E+02 -0.76375627487E+02 -0.16517546698E+03  0.22139047113E+03  0.12500044339E+03 0.  0.
          5    1    3    3  501    0 -0.40260568548E+02  0.34628036225E+02  0.77972203087E+02  0.94455114879E+02  0.47000000000E+01 0. -1.
         -5    1    3    3    0  501  0.23754251769E+02  0.41747591262E+02 -0.34395397659E+02  0.59264316696E+02  0.47000000000E+01 0. -1.
          5    1    4    4  502    0 -0.17585222432E+02 -0.96501613737E+02 -0.14881525305E+03  0.17829714255E+03  0.47000000000E+01 0. -1.
         -5    1    4    4    0  502  0.34091539211E+02  0.20125986250E+02 -0.16360213929E+02  0.43093328580E+02  0.47000000000E+01 0. -1.
<mgrwt>
<rscale>  0 0.35485378E+03</rscale>
<asrwt>0</asrwt>
<pdfrwt beam="1">  1       21 0.19500865E-01 0.35485378E+03</pdfrwt>
<pdfrwt beam="2">  1       21 0.38208350E-01 0.35485378E+03</pdfrwt>
<totfact> 0.15299649E+05</totfact>
</mgrwt>
</event>
<event>
 8    1  0.9974463E-006  0.2577578E+03  0.7546771E-02  0.1108498E+00
         21   -1    0    0  504  503  0.00000000000E+00  0.00000000000E+00  0.16807543463E+03  0.16807543463E+03  0.00000000000E+00 0.  1.
         21   -1    0    0  503  504 -0.00000000000E+00 -0.00000000000E+00 -0.98823302075E+02  0.98823302075E+02  0.00000000000E+00 0.  1.
         25    2    1    2    0    0  0.58464528509E+01  0.30830933867E+02  0.34521639970E+02  0.13342038517E+03  0.12499811222E+03 0.  0.
         25    2    1    2    0    0 -0.58464528509E+01 -0.30830933867E+02  0.34730492587E+02  0.13347835154E+03  0.12500214286E+03 0.  0.
          5    1    3    3  501    0  0.20928070201E+02  0.14847664857E+01  0.76704211825E+02  0.79660622427E+02  0.47000000000E+01 0. -1.
         -5    1    3    3    0  501 -0.15081617351E+02  0.29346167381E+02 -0.42182571854E+02  0.53759762742E+02  0.47000000000E+01 0. -1.
          5    1    4    4  502    0  0.16627489699E+02 -0.73838101639E+02  0.41868962552E+01  0.75948395425E+02  0.47000000000E+01 0. -1.
         -5    1    4    4    0  502 -0.22473942550E+02  0.43007167772E+02  0.30543596332E+02  0.57529956113E+02  0.47000000000E+01 0. -1.
<mgrwt>
<rscale>  0 0.25775779E+03</rscale>
<asrwt>0</asrwt>
<pdfrwt beam="1">  1       21 0.25857759E-01 0.25775779E+03</pdfrwt>
<pdfrwt beam="2">  1       21 0.15203585E-01 0.25775779E+03</pdfrwt>
<totfact> 0.53699817E+05</totfact>
</mgrwt>
</event>
<event>
 8    1  0.9974463E-006  0.4650960E+03  0.7546771E-02  0.1023314E+00
         21   -1    0    0  504  503  0.00000000000E+00  0.00000000000E+00  0.97641884633E+02  0.97641884633E+02  0.00000000000E+00 0. -1.
         21   -1    0    0  503  504 -0.00000000000E+00 -0.00000000000E+00 -0.55384610333E+03  0.55384610333E+03  0.00000000000E+00 0. -1.
         25    2    1    2    0    0  0.16613576632E+03  0.25920133069E+02 -0.86779357995E+02  0.22678129753E+03  0.12500461505E+03 0.  0.
         25    2    1    2    0    0 -0.16613576632E+03 -0.25920133069E+02 -0.36942486070E+03  0.42470669044E+03  0.12501239558E+03 0.  0.
          5    1    3    3  501    0  0.86901707300E+02  0.36766727408E+02  0.16673960794E+02  0.95936489119E+02  0.47000000000E+01 0. -1.
         -5    1    3    3    0  501  0.79234059025E+02 -0.10846594339E+02 -0.10345331879E+03  0.13084480841E+03  0.47000000000E+01 0. -1.
          5    1    4    4  502    0 -0.96454486147E+02 -0.15863913508E+02 -0.32930369714E+03  0.34353769312E+03  0.47000000000E+01 0.  1.
         -5    1    4    4    0  502 -0.69681280178E+02 -0.10056219561E+02 -0.40121163566E+02  0.81168997314E+02  0.47000000000E+01 0.  1.
<mgrwt>
<rscale>  0 0.46509602E+03</rscale>
<asrwt>0</asrwt>
<pdfrwt beam="1">  1       21 0.15021828E-01 0.46509602E+03</pdfrwt>
<pdfrwt beam="2">  1       21 0.85207093E-01 0.46509602E+03</pdfrwt>
<totfact> 0.42553886E+04</totfact>
</mgrwt>
</event>
<event>
 8    1  0.9974463E-006  0.3363644E+03  0.7546771E-02  0.1068355E+00
         21   -1    0    0  504  503  0.00000000000E+00  0.00000000000E+00  0.39073152953E+02  0.39073152953E+02  0.00000000000E+00 0.  1.
         21   -1    0    0  503  504 -0.00000000000E+00 -0.00000000000E+00 -0.72390509133E+03  0.72390509133E+03  0.00000000000E+00 0.  1.
         25    2    1    2    0    0 -0.87716467803E+02 -0.35181331414E+02 -0.48093698428E+03  0.50582308101E+03  0.12499880649E+03 0.  0.
         25    2    1    2    0    0  0.87716467803E+02  0.35181331414E+02 -0.20389495410E+03  0.25715516328E+03  0.12499488346E+03 0.  0.
          5    1    3    3  501    0 -0.12594064813E+02 -0.71693242564E+02 -0.23328729080E+03  0.24442500189E+03  0.47000000000E+01 0. -1.
         -5    1    3    3    0  501 -0.75122402989E+02  0.36511911150E+02 -0.24764969348E+03  0.26139807912E+03  0.47000000000E+01 0. -1.
          5    1    4    4  502    0  0.34034073146E+02 -0.46445177013E+02 -0.61244447540E+02  0.84192903247E+02  0.47000000000E+01 0. -1.
         -5    1    4    4    0  502  0.53682394657E+02  0.81626508426E+02 -0.14265050656E+03  0.17296226003E+03  0.47000000000E+01 0. -1.
<mgrwt>
<rscale>  0 0.33636441E+03</rscale>
<asrwt>0</asrwt>
<pdfrwt beam="1">  1       21 0.60112545E-02 0.33636441E+03</pdfrwt>
<pdfrwt beam="2">  1       21 0.11137001E+00 0.33636441E+03</pdfrwt>
<totfact> 0.11873937E+05</totfact>
</mgrwt>
</event>
<event>
 8    1  0.9974463E-006  0.2836260E+03  0.7546771E-02  0.1093725E+00
         21   -1    0    0  504  503  0.00000000000E+00  0.00000000000E+00  0.89784567897E+03  0.89784567897E+03  0.00000000000E+00 0.  1.
         21   -1    0    0  503  504 -0.00000000000E+00 -0.00000000000E+00 -0.22399093800E+02  0.22399093800E+02  0.00000000000E+00 0.  1.
         25    2    1    2    0    0 -0.30642296712E+02 -0.55850591801E+02  0.50467353081E+03  0.52381374145E+03  0.12500889601E+03 0.  0.
         25    2    1    2    0    0  0.30642296712E+02  0.55850591801E+02  0.37077305436E+03  0.39643103132E+03  0.12500666302E+03 0.  0.
          5    1    3    3  501    0 -0.12453559163E+02  0.40227953676E+02  0.14720732058E+03  0.15318441378E+03  0.47000000000E+01 0. -1.
         -5    1    3    3    0  501 -0.18188737549E+02 -0.96078545477E+02  0.35746621023E+03  0.37062932767E+03  0.47000000000E+01 0. -1.
          5    1    4    4  502    0  0.42032084667E+02 -0.28095474279E+02  0.92612190627E+02  0.10561798933E+03  0.47000000000E+01 0.  1.
         -5    1    4    4    0  502 -0.11389787955E+02  0.83946066080E+02  0.27816086373E+03  0.29081304199E+03  0.47000000000E+01 0.  1.
<mgrwt>
<rscale>  0 0.28362602E+03</rscale>
<asrwt>0</asrwt>
<pdfrwt beam="1">  1       21 0.13813008E+00 0.28362602E+03</pdfrwt>
<pdfrwt beam="2">  1       21 0.34460151E-02 0.28362602E+03</pdfrwt>
<totfact> 0.18031973E+05</totfact>
</mgrwt>
</event>
<event>
 8    1  0.9974463E-006  0.2622604E+03  0.7546771E-02  0.1105793E+00
         21   -1    0    0  504  503  0.00000000000E+00  0.00000000000E+00  0.16611358378E+04  0.16611358378E+04  0.00000000000E+00 0. -1.
         21   -1    0    0  503  504 -0.00000000000E+00 -0.00000000000E+00 -0.10351430677E+02  0.10351430677E+02  0.00000000000E+00 0. -1.
         25    2    1    2    0    0 -0.20735413078E+02  0.20096239376E+01  0.61085944181E+03  0.62386594963E+03  0.12500187805E+03 0.  0.
         25    2    1    2    0    0  0.20735413078E+02 -0.20096239376E+01  0.10399249654E+04  0.10476213189E+04  0.12502998952E+03 0.  0.
          5    1    3    3  501    0  0.25677071052E+02 -0.44767036807E+02  0.15975457928E+03  0.16794944228E+03  0.47000000000E+01 0. -1.
         -5    1    3    3    0  501 -0.46412484129E+02  0.46776660745E+02  0.45110486253E+03  0.45591650735E+03  0.47000000000E+01 0. -1.
          5    1    4    4  502    0  0.13678944678E+01 -0.61012637510E+02  0.39753404339E+03  0.40221862056E+03  0.47000000000E+01 0.  1.
         -5    1    4    4    0  502  0.19367518610E+02  0.59003013572E+02  0.64239092196E+03  0.64540269832E+03  0.47000000000E+01 0.  1.
<mgrwt>
<rscale>  0 0.26226042E+03</rscale>
<asrwt>0</asrwt>
<pdfrwt beam="1">  1       21 0.25555915E+00 0.26226042E+03</pdfrwt>
<pdfrwt beam="2">  1       21 0.15925291E-02 0.26226042E+03</pdfrwt>
<totfact> 0.10520495E+05</totfact>
</mgrwt>
</event>
<event>
 8    1  0.9974463E-006  0.3440016E+03  0.7546771E-02  0.1065104E+00
         21   -1    0    0  504  503  0.00000000000E+00  0.00000000000E+00  0.44039975108E+03  0.44039975108E+03  0.00000000000E+00 0. -1.
         21   -1    0    0  503  504 -0.00000000000E+00 -0.00000000000E+00 -0.67175950259E+02  0.67175950259E+02  0.00000000000E+00 0. -1.
         25    2    1    2    0    0 -0.46201492329E+02  0.10453933964E+03  0.23078382974E+03  0.28626267020E+03  0.12498835488E+03 0.  0.
         25    2    1    2    0    0  0.46201492329E+02 -0.10453933964E+03  0.14243997109E+03  0.22131303114E+03  0.12500904353E+03 0.  0.
          5    1    3    3  501    0  0.79265921809E+01  0.75718448496E+02  0.40657668873E+02  0.86436394790E+02  0.47000000000E+01 0. -1.
         -5    1    3    3    0  501 -0.54128084510E+02  0.28820891143E+02  0.19012616086E+03  0.19982627541E+03  0.47000000000E+01 0. -1.
          5    1    4    4  502    0 -0.39217909437E+02 -0.33695757091E+02  0.19074102770E+02  0.55311480391E+02  0.47000000000E+01 0.  1.
         -5    1    4    4    0  502  0.85419401766E+02 -0.70843582547E+02  0.12336586832E+03  0.16600155075E+03  0.47000000000E+01 0.  1.
<mgrwt>
<rscale>  0 0.34400158E+03</rscale>
<asrwt>0</asrwt>
<pdfrwt beam="1">  1       21 0.67753806E-01 0.34400158E+03</pdfrwt>
<pdfrwt beam="2">  1       21 0.10334762E-01 0.34400158E+03</pdfrwt>
<totfact> 0.14591351E+05</totfact>
</mgrwt>
</event>
<event>
 8    1  0.9974463E-006  0.2701925E+03  0.7546771E-02  0.1101169E+00
         21   -1    0    0  504  503  0.00000000000E+00  0.00000000000E+00  0.37398109699E+03  0.37398109699E+03  0.00000000000E+00 0.  1.
         21   -1    0    0  503  504 -0.00000000000E+00 -0.00000000000E+00 -0.48801927643E+02  0.48801927643E+02  0.00000000000E+00 0.  1.
         25    2    1    2    0    0  0.44454246445E+02  0.63754715353E+01  0.20120052810E+03  0.24108921596E+03  0.12500212350E+03 0.  0.
         25    2    1    2    0    0 -0.44454246445E+02 -0.63754715353E+01  0.12397864125E+03  0.18169380867E+03  0.12500043984E+03 0.  0.
          5    1    3    3  501    0  0.81495547365E+02  0.23832896112E+02  0.96808380594E+02  0.12885450606E+03  0.47000000000E+01 0. -1.
         -5    1    3    3    0  501 -0.37041300920E+02 -0.17457424576E+02  0.10439214751E+03  0.11223470991E+03  0.47000000000E+01 0. -1.
          5    1    4    4  502    0  0.15080659181E-02 -0.35068812458E+02  0.12360839485E+03  0.12857272995E+03  0.47000000000E+01 0.  1.
         -5    1    4    4    0  502 -0.44455754511E+02  0.28693340923E+02  0.37024639831E+00  0.53121078725E+02  0.47000000000E+01 0.  1.
<mgrwt>
<rscale>  0 0.27019251E+03</rscale>
<asrwt>0</asrwt>
<pdfrwt beam="1">  1       21 0.57535551E-01 0.27019251E+03</pdfrwt>
<pdfrwt beam="2">  1       21 0.75079891E-02 0.27019251E+03</pdfrwt>
<totfact> 0.37311303E+05</totfact>
</mgrwt>
</event>
<event>
 8    1  0.9974463E-006  0.3699063E+03  0.7546771E-02  0.1054729E+00
         21   -1    0    0  504  503  0.00000000000E+00  0.00000000000E+00  0.97475047728E+02  0.97475047728E+02  0.00000000000E+00 0. -1.
         21   -1    0    0  503  504 -0.00000000000E+00 -0.00000000000E+00 -0.35093764791E+03  0.35093764791E+03  0.00000000000E+00 0. -1.
         25    2    1    2    0    0  0.59959409749E+02 -0.51539142790E+02  0.78615480591E+01  0.14812953175E+03  0.12501655963E+03 0.  0.
         25    2    1    2    0    0 -0.59959409749E+02  0.51539142790E+02 -0.26132414824E+03  0.30028316389E+03  0.12501301534E+03 0.  0.
          5    1    3    3  501    0  0.42112312575E+02 -0.57477564749E+02  0.59514504225E+02  0.92957966485E+02  0.47000000000E+01 0. -1.
         -5    1    3    3    0  501  0.17847097175E+02  0.59384219595E+01 -0.51652956165E+02  0.55171565263E+02  0.47000000000E+01 0.  1.
          5    1    4    4  502    0 -0.90978740055E+02  0.95577253977E+01 -0.19742729827E+03  0.21764215897E+03  0.47000000000E+01 0. -1.
         -5    1    4    4    0  502  0.31019330306E+02  0.41981417392E+02 -0.63896849970E+02  0.82641004925E+02  0.47000000000E+01 0. -1.
<mgrwt>
<rscale>  0 0.36990628E+03</rscale>
<asrwt>0</asrwt>
<pdfrwt beam="1">  1       21 0.14996161E-01 0.36990628E+03</pdfrwt>
<pdfrwt beam="2">  1       21 0.53990407E-01 0.36990628E+03</pdfrwt>
<totfact> 0.12099611E+05</totfact>
</mgrwt>
</event>
<event>
 8    1  0.9974463E-006  0.3588404E+03  0.7546771E-02  0.1059044E+00
         21   -1    0    0  504  503  0.00000000000E+00  0.00000000000E+00  0.11375528436E+03  0.11375528436E+03  0.00000000000E+00 0.  1.
         21   -1    0    0  503  504 -0.00000000000E+00 -0.00000000000E+00 -0.28298996511E+03  0.28298996511E+03  0.00000000000E+00 0.  1.
         25    2    1    2    0    0  0.96720359121E+02 -0.16007839358E+02 -0.17682013861E+03  0.23770267437E+03  0.12500448471E+03 0.  0.
         25    2    1    2    0    0 -0.96720359121E+02  0.16007839358E+02  0.75854578567E+01  0.15904257509E+03  0.12500369087E+03 0.  0.
          5    1    3    3  501    0  0.45976025500E+02 -0.17114251512E+02 -0.18000519921E+03  0.18662972504E+03  0.47000000000E+01 0. -1.
         -5    1    3    3    0  501  0.50744333621E+02  0.11064121538E+01  0.31850606025E+01  0.51072949333E+02  0.47000000000E+01 0. -1.
          5    1    4    4  502    0  0.18809862139E+02 -0.93106714753E+01 -0.28126291710E+02  0.35407312838E+02  0.47000000000E+01 0. -1.
         -5    1    4    4    0  502 -0.11553022126E+03  0.25318510833E+02  0.35711749567E+02  0.12363526225E+03  0.47000000000E+01 0. -1.
<mgrwt>
<rscale>  0 0.35884038E+03</rscale>
<asrwt>0</asrwt>
<pdfrwt beam="1">  1       21 0.17500813E-01 0.35884038E+03</pdfrwt>
<pdfrwt beam="2">  1       21 0.43536918E-01 0.35884038E+03</pdfrwt>
<totfact> 0.14325676E+05</totfact>
</mgrwt>
</event>
<event>
 8    1  0.9974463E-006  0.3608686E+03  0.7546771E-02  0.1058240E+00
         21   -1    0    0  504  503  0.00000000000E+00  0.00000000000E+00  0.41533820779E+03  0.41533820779E+03  0.00000000000E+00 0.  1.
         21   -1    0    0  503  504 -0.00000000000E+00 -0.00000000000E+00 -0.78385584311E+02  0.78385584311E+02  0.00000000000E+00 0.  1.
         25    2    1    2    0    0  0.12950780209E+02  0.87132876168E+02  0.37469170529E+02  0.15744540936E+03  0.12500102948E+03 0.  0.
         25    2    1    2    0    0 -0.12950780209E+02 -0.87132876168E+02  0.29948345295E+03  0.33627838274E+03  0.12503180111E+03 0.  0.
          5    1    3    3  501    0  0.38855965728E+02  0.76079779349E+02  0.72575574942E+02  0.11219279378E+03  0.47000000000E+01 0. -1.
         -5    1    3    3    0  501 -0.25905185519E+02  0.11053096818E+02 -0.35106404412E+02  0.45252615580E+02  0.47000000000E+01 0. -1.
          5    1    4    4  502    0  0.37921052962E+02 -0.20315990562E+02  0.26765162553E+02  0.50884277107E+02  0.47000000000E+01 0.  1.
         -5    1    4    4    0  502 -0.50871833171E+02 -0.66816885606E+02  0.27271829040E+03  0.28539410563E+03  0.47000000000E+01 0.  1.
<mgrwt>
<rscale>  0 0.36086855E+03</rscale>
<asrwt>0</asrwt>
<pdfrwt beam="1">  1       21 0.63898184E-01 0.36086855E+03</pdfrwt>
<pdfrwt beam="2">  1       21 0.12059321E-01 0.36086855E+03</pdfrwt>
<totfact> 0.12529160E+05</totfact>
</mgrwt>
</event>
<event>
 8    1  0.9974463E-006  0.2595984E+03  0.7546771E-02  0.1107385E+00
         21   -1    0    0  504  503  0.00000000000E+00  0.00000000000E+00  0.96935934233E+03  0.96935934233E+03  0.00000000000E+00 0.  1.
         21   -1    0    0  503  504 -0.00000000000E+00 -0.00000000000E+00 -0.17380378434E+02  0.17380378434E+02  0.00000000000E+00 0.  1.
         25    2    1    2    0    0  0.29879749208E+02  0.77941223749E+00  0.40692323757E+03  0.42673825284E+03  0.12500243305E+03 0.  0.
         25    2    1    2    0    0 -0.29879749208E+02 -0.77941223749E+00  0.54505572633E+03  0.56000146793E+03  0.12498996910E+03 0.  0.
          5    1    3    3  501    0 -0.29080271731E+02  0.91119344779E+01  0.31874973473E+03  0.32023768196E+03  0.47000000000E+01 0.  1.
         -5    1    3    3    0  501  0.58960020940E+02 -0.83325222404E+01  0.88173502836E+02  0.10650057088E+03  0.47000000000E+01 0.  1.
          5    1    4    4  502    0 -0.36961195385E+02  0.44025396446E+02  0.12720455545E+03  0.13966908900E+03  0.47000000000E+01 0. -1.
         -5    1    4    4    0  502  0.70814461760E+01 -0.44804808684E+02  0.41785117089E+03  0.42033237892E+03  0.47000000000E+01 0. -1.
<mgrwt>
<rscale>  0 0.25959840E+03</rscale>
<asrwt>0</asrwt>
<pdfrwt beam="1">  1       21 0.14913216E+00 0.25959840E+03</pdfrwt>
<pdfrwt beam="2">  1       21 0.26739051E-02 0.25959840E+03</pdfrwt>
<totfact> 0.22664353E+05</totfact>
</mgrwt>
</event>
<event>
 8    1  0.9974463E-006  0.3381544E+03  0.7546771E-02  0.1067585E+00
         21   -1    0    0  504  503  0.00000000000E+00  0.00000000000E+00  0.17427132368E+03  0.17427132368E+03  0.00000000000E+00 0. -1.
         21   -1    0    0  503  504 -0.00000000000E+00 -0.00000000000E+00 -0.16403789347E+03  0.16403789347E+03  0.00000000000E+00 0. -1.
         25    2    1    2    0    0 -0.85358602103E+02 -0.70828941996E+02 -0.20556864847E+02  0.16837437068E+03  0.12499805611E+03 0.  0.
         25    2    1    2    0    0  0.85358602103E+02  0.70828941996E+02  0.30790295063E+02  0.16993484647E+03  0.12500791893E+03 0.  0.
          5    1    3    3  501    0 -0.35295490173E+01  0.31996321922E+02 -0.17283554877E+02  0.36837936994E+02  0.47000000000E+01 0.  1.
         -5    1    3    3    0  501 -0.81829053086E+02 -0.10282526392E+03 -0.32733099700E+01  0.13153643369E+03  0.47000000000E+01 0.  1.
          5    1    4    4  502    0 -0.14036001325E+02 -0.10856927309E+02  0.36726054139E+02  0.41058193536E+02  0.47000000000E+01 0.  1.
         -5    1    4    4    0  502  0.99394603428E+02  0.81685869305E+02 -0.59357590765E+01  0.12887665293E+03  0.47000000000E+01 0.  1.
<mgrwt>
<rscale>  0 0.33815441E+03</rscale>
<asrwt>0</asrwt>
<pdfrwt beam="1">  1       21 0.26810973E-01 0.33815441E+03</pdfrwt>
<pdfrwt beam="2">  1       21 0.25236599E-01 0.33815441E+03</pdfrwt>
<totfact> 0.18984853E+05</totfact>
</mgrwt>
</event>
<event>
 8    1  0.9974463E-006  0.3817883E+03  0.7546771E-02  0.1050275E+00
         21   -1    0    0  504  503  0.00000000000E+00  0.00000000000E+00  0.29562744316E+03  0.29562744316E+03  0.00000000000E+00 0.  1.
         21   -1    0    0  503  504 -0.00000000000E+00 -0.00000000000E+00 -0.12326517947E+03  0.12326517947E+03  0.00000000000E+00 0.  1.
         25    2    1    2    0    0  0.31023615402E+02  0.92898530652E+02 -0.30064067742E+02  0.16161180447E+03  0.12498770126E+03 0.  0.
         25    2    1    2    0    0 -0.31023615402E+02 -0.92898530652E+02  0.20242633143E+03  0.25728081816E+03  0.12499759208E+03 0.  0.
          5    1    3    3  501    0  0.58888871387E+02  0.20853054163E+02 -0.51731485758E+02  0.81246450137E+02  0.47000000000E+01 0. -1.
         -5    1    3    3    0  501 -0.27865255985E+02  0.72045476489E+02  0.21667418017E+02  0.80365354333E+02  0.47000000000E+01 0. -1.
          5    1    4    4  502    0 -0.19725368783E+02  0.18986535093E+02  0.25528868232E+01  0.27895983933E+02  0.47000000000E+01 0.  1.
         -5    1    4    4    0  502 -0.11298246620E+02 -0.11188506575E+03  0.19987344461E+03  0.22938483423E+03  0.47000000000E+01 0.  1.
<mgrwt>
<rscale>  0 0.38178827E+03</rscale>
<asrwt>0</asrwt>
<pdfrwt beam="1">  1       21 0.45481145E-01 0.38178827E+03</pdfrwt>
<pdfrwt beam="2">  1       21 0.18963874E-01 0.38178827E+03</pdfrwt>
<totfact> 0.11194605E+05</totfact>
</mgrwt>
</event>
<event>
 8    1  0.9974463E-006  0.3253637E+03  0.7546771E-02  0.1073207E+00
         21   -1    0    0  504  503  0.00000000000E+00  0.00000000000E+00  0.52936264071E+02  0.52936264071E+02  0.00000000000E+00 0.  1.
         21   -1    0    0  503  504 -0.00000000000E+00 -0.00000000000E+00 -0.49994804572E+03  0.49994804572E+03  0.00000000000E+00 0.  1.
         25    2    1    2    0    0  0.27716301718E+01 -0.20293646750E+02 -0.50034650265E+02  0.13618839889E+03  0.12499719890E+03 0.  0.
         25    2    1    2    0    0 -0.27716301718E+01  0.20293646750E+02 -0.39697713139E+03  0.41669591090E+03  0.12500050114E+03 0.  0.
          5    1    3    3  501    0 -0.27410240376E+02 -0.58019904922E+02 -0.58445950189E+02  0.86923240495E+02  0.47000000000E+01 0. -1.
         -5    1    3    3    0  501  0.30181870548E+02  0.37726258171E+02  0.84112999242E+01  0.49265158396E+02  0.47000000000E+01 0. -1.
          5    1    4    4  502    0  0.13343154142E+02  0.30949669935E+02 -0.20568955056E+02  0.39762969503E+02  0.47000000000E+01 0.  1.
         -5    1    4    4    0  502 -0.16114784314E+02 -0.10656023185E+02 -0.37640817633E+03  0.37693294140E+03  0.47000000000E+01 0.  1.
<mgrwt>
<rscale>  0 0.32536368E+03</rscale>
<asrwt>0</asrwt>
<pdfrwt beam="1">  1       21 0.81440403E-02 0.32536368E+03</pdfrwt>
<pdfrwt beam="2">  1       21 0.76915087E-01 0.32536368E+03</pdfrwt>
<totfact> 0.16826431E+05</totfact>
</mgrwt>
</event>
<event>
 8    1  0.9974463E-006  0.2829697E+03  0.7546771E-02  0.1094078E+00
         21   -1    0    0  504  503  0.00000000000E+00  0.00000000000E+00  0.31357937714E+02  0.31357937714E+02  0.00000000000E+00 0.  1.
         21   -1    0    0  503  504 -0.00000000000E+00 -0.00000000000E+00 -0.63837000118E+03  0.63837000118E+03  0.00000000000E+00 0.  1.
         25    2    1    2    0    0 -0.64990446915E+02 -0.12874316594E+02 -0.30639601560E+03  0.33747988223E+03  0.12499858525E+03 0.  0.
         25    2    1    2    0    0  0.64990446915E+02  0.12874316594E+02 -0.30061604786E+03  0.33224805666E+03  0.12501702566E+03 0.  0.
          5    1    3    3  501    0 -0.76228039508E+02  0.15609942771E+02 -0.90805936243E+02  0.11967536245E+03  0.47000000000E+01 0.  1.
         -5    1    3    3    0  501  0.11237592593E+02 -0.28484259366E+02 -0.21559007936E+03  0.21780451978E+03  0.47000000000E+01 0.  1.
          5    1    4    4  502    0  0.73794173297E+02 -0.14746801047E+02 -0.80943179391E+02  0.11062068723E+03  0.47000000000E+01 0.  1.
         -5    1    4    4    0  502 -0.88037263821E+01  0.27621117641E+02 -0.21967286847E+03  0.22162736943E+03  0.47000000000E+01 0.  1.
<mgrwt>
<rscale>  0 0.28296973E+03</rscale>
<asrwt>0</asrwt>
<pdfrwt beam="1">  1       21 0.48242985E-02 0.28296973E+03</pdfrwt>
<pdfrwt beam="2">  1       21 0.98210762E-01 0.28296973E+03</pdfrwt>
<totfact> 0.23850480E+05</totfact>
</mgrwt>
</event>
<event>
 8    1  0.9974463E-006  0.2602145E+03  0.7546771E-02  0.1107014E+00
         21   -1    0    0  504  503  0.00000000000E+00  0.00000000000E+00  0.25280030150E+02  0.25280030150E+02  0.00000000000E+00 0.  1.
         21   -1    0    0  503  504 -0.00000000000E+00 -0.00000000000E+00 -0.66961527289E+03  0.66961527289E+03  0.00000000000E+00 0.  1.
         25    2    1    2    0    0  0.61818910894E+01  0.34879268605E+01 -0.22777816291E+03  0.25992953519E+03  0.12502035978E+03 0.  0.
         25    2    1    2    0    0 -0.61818910894E+01 -0.34879268605E+01 -0.41655707983E+03  0.43496576784E+03  0.12500014810E+03 0.  0.
          5    1    3    3  501    0  0.40665150582E+01 -0.14865333743E+02  0.11561990274E+02  0.19831397104E+02  0.47000000000E+01 0.  1.
         -5    1    3    3    0  501  0.21153760312E+01  0.18353260604E+02 -0.23934015318E+03  0.24009813809E+03  0.47000000000E+01 0.  1.
          5    1    4    4  502    0  0.40212369201E+02 -0.40353680914E+02 -0.12556609376E+03  0.13796516989E+03  0.47000000000E+01 0.  1.
         -5    1    4    4    0  502 -0.46394260291E+02  0.36865754054E+02 -0.29099098607E+03  0.29700059795E+03  0.47000000000E+01 0.  1.
<mgrwt>
<rscale>  0 0.26021448E+03</rscale>
<asrwt>0</asrwt>
<pdfrwt beam="1">  1       21 0.38892353E-02 0.26021448E+03</pdfrwt>
<pdfrwt beam="2">  1       21 0.10301774E+00 0.26021448E+03</pdfrwt>
<totfact> 0.30817346E+05</totfact>
</mgrwt>
</event>
<event>
 8    1  0.9974463E-006  0.3047864E+03  0.7546771E-02  0.1082872E+00
         21   -1    0    0  504  503  0.00000000000E+00  0.00000000000E+00  0.52493234458E+03  0.52493234458E+03  0.00000000000E+00 0. -1.
         21   -1    0    0  503  504 -0.00000000000E+00 -0.00000000000E+00 -0.44241308131E+02  0.44241308131E+02  0.00000000000E+00 0. -1.
         25    2    1    2    0    0 -0.46946637022E+02  0.73307920403E+02  0.23147527419E+03  0.27709167651E+03  0.12498382578E+03 0.  0.
         25    2    1    2    0    0  0.46946637022E+02 -0.73307920403E+02  0.24921576226E+03  0.29208197621E+03  0.12500138696E+03 0.  0.
          5    1    3    3  501    0  0.17888890617E+02  0.79237527450E+02  0.16474772738E+03  0.18374575326E+03  0.47000000000E+01 0. -1.
         -5    1    3    3    0  501 -0.64835527640E+02 -0.59296070476E+01  0.66727546814E+02  0.93345923252E+02  0.47000000000E+01 0. -1.
          5    1    4    4  502    0  0.70570100889E+02 -0.43239720085E+02  0.23789897983E+03  0.25192821822E+03  0.47000000000E+01 0. -1.
         -5    1    4    4    0  502 -0.23623463867E+02 -0.30068200318E+02  0.11316782428E+02  0.40153757980E+02  0.47000000000E+01 0. -1.
<mgrwt>
<rscale>  0 0.30478644E+03</rscale>
<asrwt>0</asrwt>
<pdfrwt beam="1">  1       21 0.80758818E-01 0.30478644E+03</pdfrwt>
<pdfrwt beam="2">  1       21 0.68063554E-02 0.30478644E+03</pdfrwt>
<totfact> 0.20712302E+05</totfact>
</mgrwt>
</event>
<event>
 8    1  0.9974463E-006  0.2673006E+03  0.7546771E-02  0.1102835E+00
         21   -1    0    0  504  503  0.00000000000E+00  0.00000000000E+00  0.13462302143E+03  0.13462302143E+03  0.00000000000E+00 0. -1.
         21   -1    0    0  503  504 -0.00000000000E+00 -0.00000000000E+00 -0.13268456792E+03  0.13268456792E+03  0.00000000000E+00 0. -1.
         25    2    1    2    0    0  0.59365741449E+01  0.13799055836E+02  0.45821157264E+02  0.13397970332E+03  0.12500130237E+03 0.  0.
         25    2    1    2    0    0 -0.59365741449E+01 -0.13799055836E+02 -0.43882703754E+02  0.13332788602E+03  0.12499990659E+03 0.  0.
          5    1    3    3  501    0 -0.57161201032E+02  0.75386481541E+01  0.39581066953E+02  0.70092688496E+02  0.47000000000E+01 0.  1.
         -5    1    3    3    0  501  0.63097775177E+02  0.62604076816E+01  0.62400903112E+01  0.63887014829E+02  0.47000000000E+01 0.  1.
          5    1    4    4  502    0  0.28328642195E+02 -0.55722895605E+02  0.12245135127E+01  0.62698823725E+02  0.47000000000E+01 0. -1.
         -5    1    4    4    0  502 -0.34265216339E+02  0.41923839769E+02 -0.45107217267E+02  0.70629062300E+02  0.47000000000E+01 0. -1.
<mgrwt>
<rscale>  0 0.26730056E+03</rscale>
<asrwt>0</asrwt>
<pdfrwt beam="1">  1       21 0.20711234E-01 0.26730056E+03</pdfrwt>
<pdfrwt beam="2">  1       21 0.20413010E-01 0.26730056E+03</pdfrwt>
<totfact> 0.47343564E+05</totfact>
</mgrwt>
</event>
<event>
 8    1  0.9974463E-006  0.4167305E+03  0.7546771E-02  0.1038136E+00
         21   -1    0    0  504  503  0.00000000000E+00  0.00000000000E+00  0.26308497668E+03  0.26308497668E+03  0.00000000000E+00 0.  1.
         21   -1    0    0  503  504 -0.00000000000E+00 -0.00000000000E+00 -0.16502685406E+03  0.16502685406E+03  0.00000000000E+00 0.  1.
         25    2    1    2    0    0 -0.15739051803E+03  0.51969588318E+02  0.67147494474E+02  0.21819365636E+03  0.12500828926E+03 0.  0.
         25    2    1    2    0    0  0.15739051803E+03 -0.51969588318E+02  0.30910628142E+02  0.20991817439E+03  0.12505022882E+03 0.  0.
          5    1    3    3  501    0 -0.38737394635E+02 -0.37558188857E+02 -0.19848064134E+01  0.54196242949E+02  0.47000000000E+01 0. -1.
         -5    1    3    3    0  501 -0.11865312340E+03  0.89527777175E+02  0.69132300887E+02  0.16399741341E+03  0.47000000000E+01 0. -1.
          5    1    4    4  502    0  0.51107893616E+01  0.20805391170E+02  0.34681035320E+02  0.41034725301E+02  0.47000000000E+01 0.  1.
         -5    1    4    4    0  502  0.15227972867E+03 -0.72774979488E+02 -0.37704071783E+01  0.16888344908E+03  0.47000000000E+01 0.  1.
<mgrwt>
<rscale>  0 0.41673054E+03</rscale>
<asrwt>0</asrwt>
<pdfrwt beam="1">  1       21 0.40474612E-01 0.41673054E+03</pdfrwt>
<pdfrwt beam="2">  1       21 0.25388747E-01 0.41673054E+03</pdfrwt>
<totfact> 0.80936802E+04</totfact>
</mgrwt>
</event>
<event>
 8    1  0.9974463E-006  0.3344920E+03  0.7546771E-02  0.1069166E+00
         21   -1    0    0  504  503  0.00000000000E+00  0.00000000000E+00  0.55283760014E+02  0.55283760014E+02  0.00000000000E+00 0. -1.
         21   -1    0    0  503  504 -0.00000000000E+00 -0.00000000000E+00 -0.50595739161E+03  0.50595739161E+03  0.00000000000E+00 0. -1.
         25    2    1    2    0    0 -0.65260505156E+02  0.59304454839E+02 -0.11188338676E+03  0.18951586826E+03  0.12498968034E+03 0.  0.
         25    2    1    2    0    0  0.65260505156E+02 -0.59304454839E+02 -0.33879024483E+03  0.37172528336E+03  0.12499961760E+03 0.  0.
          5    1    3    3  501    0 -0.10024082952E+03  0.27509374359E+02 -0.88350340481E+02  0.13650224263E+03  0.47000000000E+01 0.  1.
         -5    1    3    3    0  501  0.34980324360E+02  0.31795080480E+02 -0.23533046283E+02  0.53013625630E+02  0.47000000000E+01 0.  1.
          5    1    4    4  502    0  0.72581233622E+02 -0.80817388856E+02 -0.17307428649E+03  0.20439247652E+03  0.47000000000E+01 0.  1.
         -5    1    4    4    0  502 -0.73207284658E+01  0.21512934017E+02 -0.16571595834E+03  0.16733280684E+03  0.47000000000E+01 0.  1.
<mgrwt>
<rscale>  0 0.33449201E+03</rscale>
<asrwt>0</asrwt>
<pdfrwt beam="1">  1       21 0.85051941E-02 0.33449201E+03</pdfrwt>
<pdfrwt beam="2">  1       21 0.77839597E-01 0.33449201E+03</pdfrwt>
<totfact> 0.15135264E+05</totfact>
</mgrwt>
</event>
<event>
 8    1  0.9974463E-006  0.2784531E+03  0.7546771E-02  0.1096537E+00
         21   -1    0    0  504  503  0.00000000000E+00  0.00000000000E+00  0.22115601076E+03  0.22115601076E+03  0.00000000000E+00 0. -1.
         21   -1    0    0  503  504 -0.00000000000E+00 -0.00000000000E+00 -0.87648678559E+02  0.87648678559E+02  0.00000000000E+00 0. -1.
         25    2    1    2    0    0  0.54095358172E+02 -0.22035443882E+02  0.87418575093E+02  0.16333643012E+03  0.12499965428E+03 0.  0.
         25    2    1    2    0    0 -0.54095358172E+02  0.22035443882E+02  0.46088757109E+02  0.14546825920E+03  0.12499988936E+03 0.  0.
          5    1    3    3  501    0  0.35531862508E+02 -0.69685959292E+02  0.79042670310E+02  0.11130354849E+03  0.47000000000E+01 0. -1.
         -5    1    3    3    0  501  0.18563495664E+02  0.47650515410E+02  0.83759047829E+01  0.52032881633E+02  0.47000000000E+01 0. -1.
          5    1    4    4  502    0 -0.65900880495E+02  0.43152154081E+01 -0.25258393672E+02  0.70863414996E+02  0.47000000000E+01 0. -1.
         -5    1    4    4    0  502  0.11805522323E+02  0.17720228474E+02  0.71347150781E+02  0.74604844206E+02  0.47000000000E+01 0. -1.
<mgrwt>
<rscale>  0 0.27845310E+03</rscale>
<asrwt>0</asrwt>
<pdfrwt beam="1">  1       21 0.34024001E-01 0.27845310E+03</pdfrwt>
<pdfrwt beam="2">  1       21 0.13484412E-01 0.27845310E+03</pdfrwt>
<totfact> 0.38887138E+05</totfact>
</mgrwt>
</event>
<event>
 8    1  0.9974463E-006  0.2860583E+03  0.7546771E-02  0.1092425E+00
         21   -1    0    0  504  503  0.00000000000E+00  0.00000000000E+00  0.93632025133E+02  0.93632025133E+02  0.00000000000E+00 0. -1.
         21   -1    0    0  503  504 -0.00000000000E+00 -0.00000000000E+00 -0.21848655855E+03  0.21848655855E+03  0.00000000000E+00 0. -1.
         25    2    1    2    0    0 -0.14059581571E+02 -0.66738559286E+02 -0.47929861267E+02  0.15024713261E+03  0.12500088850E+03 0.  0.
         25    2    1    2    0    0  0.14059581571E+02  0.66738559286E+02 -0.76924672147E+02  0.16187145107E+03  0.12503301307E+03 0.  0.
          5    1    3    3  501    0 -0.11567369519E+02 -0.99832264959E+02 -0.12349573387E+02  0.10136511790E+03  0.47000000000E+01 0.  1.
         -5    1    3    3    0  501 -0.24922120519E+01  0.33093705673E+02 -0.35580287880E+02  0.48882014706E+02  0.47000000000E+01 0.  1.
          5    1    4    4  502    0 -0.23115991044E+02  0.32988625273E+02  0.25359591221E+02  0.47830924163E+02  0.47000000000E+01 0.  1.
         -5    1    4    4    0  502  0.37175572615E+02  0.33749934013E+02 -0.10228426337E+03  0.11404052691E+03  0.47000000000E+01 0.  1.
<mgrwt>
<rscale>  0 0.28605831E+03</rscale>
<asrwt>0</asrwt>
<pdfrwt beam="1">  1       21 0.14404927E-01 0.28605831E+03</pdfrwt>
<pdfrwt beam="2">  1       21 0.33613316E-01 0.28605831E+03</pdfrwt>
<totfact> 0.35263994E+05</totfact>
</mgrwt>
</event>
<event>
 8    1  0.9974463E-006  0.5296221E+03  0.7546771E-02  0.1006324E+00
         21   -1    0    0  504  503  0.00000000000E+00  0.00000000000E+00  0.75611251362E+03  0.75611251362E+03  0.00000000000E+00 0.  1.
         21   -1    0    0  503  504 -0.00000000000E+00 -0.00000000000E+00 -0.92743975405E+02  0.92743975405E+02  0.00000000000E+00 0.  1.
         25    2    1    2    0    0  0.90998419202E+01  0.19295444133E+03  0.54179234802E+03  0.58862417715E+03  0.12500099999E+03 0.  0.
         25    2    1    2    0    0 -0.90998419202E+01 -0.19295444133E+03  0.12157619019E+03  0.26023231187E+03  0.12500345022E+03 0.  0.
          5    1    3    3  501    0  0.25181857116E+02  0.14877136296E+03  0.24267667702E+03  0.28579906216E+03  0.47000000000E+01 0.  1.
         -5    1    3    3    0  501 -0.16082015196E+02  0.44183078377E+02  0.29911567101E+03  0.30282511499E+03  0.47000000000E+01 0.  1.
          5    1    4    4  502    0 -0.61988300347E+02 -0.72453289316E+02  0.30872536917E+02  0.10033559711E+03  0.47000000000E+01 0.  1.
         -5    1    4    4    0  502  0.52888458427E+02 -0.12050115202E+03  0.90703653273E+02  0.15989671476E+03  0.47000000000E+01 0.  1.
<mgrwt>
<rscale>  0 0.52962206E+03</rscale>
<asrwt>0</asrwt>
<pdfrwt beam="1">  1       21 0.11632500E+00 0.52962206E+03</pdfrwt>
<pdfrwt beam="2">  1       21 0.14268304E-01 0.52962206E+03</pdfrwt>
<totfact> 0.21637915E+04</totfact>
</mgrwt>
</event>
<event>
 8    1  0.9974463E-006  0.4456676E+03  0.7546771E-02  0.1029022E+00
         21   -1    0    0  504  503  0.00000000000E+00  0.00000000000E+00  0.53960006464E+02  0.53960006464E+02  0.00000000000E+00 0.  1.
         21   -1    0    0  503  504 -0.00000000000E+00 -0.00000000000E+00 -0.92021665743E+03  0.92021665743E+03  0.00000000000E+00 0.  1.
         25    2    1    2    0    0 -0.67712857450E+02  0.16948297815E+03 -0.49184465545E+03  0.53929715351E+03  0.12498297379E+03 0.  0.
         25    2    1    2    0    0  0.67712857450E+02 -0.16948297815E+03 -0.37441199551E+03  0.43487951039E+03  0.12500534079E+03 0.  0.
          5    1    3    3  501    0 -0.51532688569E+02  0.10586959698E+02 -0.66461993003E+02  0.84893982241E+02  0.47000000000E+01 0.  1.
         -5    1    3    3    0  501 -0.16180168880E+02  0.15889601845E+03 -0.42538266245E+03  0.45440317127E+03  0.47000000000E+01 0.  1.
          5    1    4    4  502    0  0.59931717162E+02 -0.13459937327E+03 -0.16039313699E+03  0.21784593271E+03  0.47000000000E+01 0. -1.
         -5    1    4    4    0  502  0.77811402879E+01 -0.34883604876E+02 -0.21401885852E+03  0.21703357767E+03  0.47000000000E+01 0. -1.
<mgrwt>
<rscale>  0 0.44566757E+03</rscale>
<asrwt>0</asrwt>
<pdfrwt beam="1">  1       21 0.83015397E-02 0.44566757E+03</pdfrwt>
<pdfrwt beam="2">  1       21 0.14157179E+00 0.44566757E+03</pdfrwt>
<totfact> 0.35424098E+04</totfact>
</mgrwt>
</event>
<event>
 8    1  0.9974463E-006  0.3938775E+03  0.7546771E-02  0.1045921E+00
         21   -1    0    0  504  503  0.00000000000E+00  0.00000000000E+00  0.48903275281E+03  0.48903275281E+03  0.00000000000E+00 0.  1.
         21   -1    0    0  503  504 -0.00000000000E+00 -0.00000000000E+00 -0.79309351715E+02  0.79309351715E+02  0.00000000000E+00 0.  1.
         25    2    1    2    0    0 -0.41094764299E+02  0.38895232525E+02  0.40871083497E+03  0.43112813554E+03  0.12500121545E+03 0.  0.
         25    2    1    2    0    0  0.41094764299E+02 -0.38895232525E+02  0.10125661221E+01  0.13721396899E+03  0.12500011691E+03 0.  0.
          5    1    3    3  501    0 -0.74056566953E+02  0.61636053229E+02  0.27222352088E+03  0.28880982235E+03  0.47000000000E+01 0.  1.
         -5    1    3    3    0  501  0.32961802653E+02 -0.22740820704E+02  0.13648731410E+03  0.14231831319E+03  0.47000000000E+01 0.  1.
          5    1    4    4  502    0  0.19431677733E+02 -0.36733744357E+02  0.60582935808E+02  0.73616167960E+02  0.47000000000E+01 0.  1.
         -5    1    4    4    0  502  0.21663086567E+02 -0.21614881679E+01 -0.59570369686E+02  0.63597801025E+02  0.47000000000E+01 0.  1.
<mgrwt>
<rscale>  0 0.39387750E+03</rscale>
<asrwt>0</asrwt>
<pdfrwt beam="1">  1       21 0.75235807E-01 0.39387750E+03</pdfrwt>
<pdfrwt beam="2">  1       21 0.12201439E-01 0.39387750E+03</pdfrwt>
<totfact> 0.84459129E+04</totfact>
</mgrwt>
</event>
<event>
 8    1  0.9974463E-006  0.2602784E+03  0.7546771E-02  0.1106976E+00
         21   -1    0    0  504  503  0.00000000000E+00  0.00000000000E+00  0.13988046326E+04  0.13988046326E+04  0.00000000000E+00 0. -1.
         21   -1    0    0  503  504 -0.00000000000E+00 -0.00000000000E+00 -0.12107629375E+02  0.12107629375E+02  0.00000000000E+00 0. -1.
         25    2    1    2    0    0 -0.23651730629E+02  0.23166013358E+02  0.77286180598E+03  0.78360453580E+03  0.12499851541E+03 0.  0.
         25    2    1    2    0    0  0.23651730629E+02 -0.23166013358E+02  0.61383519723E+03  0.62730772616E+03  0.12500106159E+03 0.  0.
          5    1    3    3  501    0  0.87316997703E+01 -0.48627980771E+02  0.34134204499E+03  0.34493101451E+03  0.47000000000E+01 0. -1.
         -5    1    3    3    0  501 -0.32383430400E+02  0.71793994129E+02  0.43151976098E+03  0.43867352129E+03  0.47000000000E+01 0. -1.
          5    1    4    4  502    0  0.21952171866E+02 -0.72231811977E+02  0.44627821776E+03  0.45264298311E+03  0.47000000000E+01 0. -1.
         -5    1    4    4    0  502  0.16995587631E+01  0.49065798619E+02  0.16755697947E+03  0.17466474305E+03  0.47000000000E+01 0. -1.
<mgrwt>
<rscale>  0 0.26027837E+03</rscale>
<asrwt>0</asrwt>
<pdfrwt beam="1">  1       21 0.21520058E+00 0.26027837E+03</pdfrwt>
<pdfrwt beam="2">  1       21 0.18627133E-02 0.26027837E+03</pdfrwt>
<totfact> 0.14373672E+05</totfact>
</mgrwt>
</event>
<event>
 8    1  0.9974463E-006  0.2641277E+03  0.7546771E-02  0.1104688E+00
         21   -1    0    0  504  503  0.00000000000E+00  0.00000000000E+00  0.21527695400E+02  0.21527695400E+02  0.00000000000E+00 0.  1.
         21   -1    0    0  503  504 -0.00000000000E+00 -0.00000000000E+00 -0.81015925329E+03  0.81015925329E+03  0.00000000000E+00 0.  1.
         25    2    1    2    0    0 -0.22322363748E+02  0.18452590787E+02 -0.49265926385E+03  0.50909399130E+03  0.12499902277E+03 0.  0.
         25    2    1    2    0    0  0.22322363748E+02 -0.18452590787E+02 -0.29597229404E+03  0.32259295739E+03  0.12501132463E+03 0.  0.
          5    1    3    3  501    0  0.15106739259E+02  0.65770782261E+02 -0.24777448597E+03  0.25684293891E+03  0.47000000000E+01 0.  1.
         -5    1    3    3    0  501 -0.37429103006E+02 -0.47318191474E+02 -0.24488477787E+03  0.25225105239E+03  0.47000000000E+01 0.  1.
          5    1    4    4  502    0  0.13975008461E+02  0.27830579905E+02 -0.26320173820E+03  0.26507939760E+03  0.47000000000E+01 0. -1.
         -5    1    4    4    0  502  0.83473552863E+01 -0.46283170692E+02 -0.32770555843E+02  0.57513559791E+02  0.47000000000E+01 0. -1.
<mgrwt>
<rscale>  0 0.26412771E+03</rscale>
<asrwt>0</asrwt>
<pdfrwt beam="1">  1       21 0.33119533E-02 0.26412771E+03</pdfrwt>
<pdfrwt beam="2">  1       21 0.12463988E+00 0.26412771E+03</pdfrwt>
<totfact> 0.25217700E+05</totfact>
</mgrwt>
</event>
<event>
 8    1  0.9974463E-006  0.2868609E+03  0.7546771E-02  0.1092000E+00
         21   -1    0    0  504  503  0.00000000000E+00  0.00000000000E+00  0.13002790151E+03  0.13002790151E+03  0.00000000000E+00 0.  1.
         21   -1    0    0  503  504 -0.00000000000E+00 -0.00000000000E+00 -0.15821450693E+03  0.15821450693E+03  0.00000000000E+00 0.  1.
         25    2    1    2    0    0  0.67037992488E+00  0.45486083745E+02 -0.67997642176E+02  0.14939012418E+03  0.12499718651E+03 0.  0.
         25    2    1    2    0    0 -0.67037992488E+00 -0.45486083745E+02  0.39811036752E+02  0.13885228426E+03  0.12500241987E+03 0.  0.
          5    1    3    3  501    0 -0.13944155068E+02  0.39704248626E+02 -0.10265576367E+03  0.11104576819E+03  0.47000000000E+01 0. -1.
         -5    1    3    3    0  501  0.14614534993E+02  0.57818351188E+01  0.34658121491E+02  0.38344355982E+02  0.47000000000E+01 0. -1.
          5    1    4    4  502    0 -0.27930899360E+02 -0.27811507480E+02 -0.37657491838E+02  0.54715553355E+02  0.47000000000E+01 0. -1.
         -5    1    4    4    0  502  0.27260519435E+02 -0.17674576264E+02  0.77468528590E+02  0.84136730908E+02  0.47000000000E+01 0. -1.
<mgrwt>
<rscale>  0 0.28686094E+03</rscale>
<asrwt>0</asrwt>
<pdfrwt beam="1">  1       21 0.20004293E-01 0.28686094E+03</pdfrwt>
<pdfrwt beam="2">  1       21 0.24340693E-01 0.28686094E+03</pdfrwt>
<totfact> 0.36034756E+05</totfact>
</mgrwt>
</event>
<event>
 8    1  0.9974463E-006  0.2698709E+03  0.7546771E-02  0.1101353E+00
         21   -1    0    0  504  503  0.00000000000E+00  0.00000000000E+00  0.62721345903E+02  0.62721345903E+02  0.00000000000E+00 0.  1.
         21   -1    0    0  503  504 -0.00000000000E+00 -0.00000000000E+00 -0.29029323230E+03  0.29029323230E+03  0.00000000000E+00 0.  1.
         25    2    1    2    0    0 -0.11910022524E+02 -0.37068254148E+02 -0.71115218286E+02  0.14900887889E+03  0.12502146861E+03 0.  0.
         25    2    1    2    0    0  0.11910022524E+02  0.37068254148E+02 -0.15645666811E+03  0.20400569932E+03  0.12499492891E+03 0.  0.
          5    1    3    3  501    0  0.29997549889E+01 -0.41360888269E+02 -0.10415531910E+03  0.11220580246E+03  0.47000000000E+01 0. -1.
         -5    1    3    3    0  501 -0.14909777513E+02  0.42926341207E+01  0.33040100813E+02  0.36803076432E+02  0.47000000000E+01 0. -1.
          5    1    4    4  502    0  0.29099726776E+02  0.51658816179E+01  0.11544977700E+02  0.32075799934E+02  0.47000000000E+01 0. -1.
         -5    1    4    4    0  502 -0.17189704252E+02  0.31902372530E+02 -0.16800164581E+03  0.17192989938E+03  0.47000000000E+01 0. -1.
<mgrwt>
<rscale>  0 0.26987095E+03</rscale>
<asrwt>0</asrwt>
<pdfrwt beam="1">  1       21 0.96494380E-02 0.26987095E+03</pdfrwt>
<pdfrwt beam="2">  1       21 0.44660496E-01 0.26987095E+03</pdfrwt>
<totfact> 0.40907326E+05</totfact>
</mgrwt>
</event>
<event>
 8    1  0.9974463E-006  0.2913230E+03  0.7546771E-02  0.1089660E+00
         21   -1    0    0  504  503  0.00000000000E+00  0.00000000000E+00  0.77390890154E+02  0.77390890154E+02  0.00000000000E+00 0.  1.
         21   -1    0    0  503  504 -0.00000000000E+00 -0.00000000000E+00 -0.27415716758E+03  0.27415716758E+03  0.00000000000E+00 0.  1.
         25    2    1    2    0    0 -0.44250904414E+02  0.56518128786E+02 -0.73122505865E+02  0.16163970178E+03  0.12501220303E+03 0.  0.
         25    2    1    2    0    0  0.44250904414E+02 -0.56518128786E+02 -0.12364377157E+03  0.18990835595E+03  0.12499983996E+03 0.  0.
          5    1    3    3  501    0 -0.79762417093E+02  0.36283281418E+01 -0.45751949742E+02  0.92144120001E+02  0.47000000000E+01 0. -1.
         -5    1    3    3    0  501  0.35511512679E+02  0.52889800644E+02 -0.27370556123E+02  0.69495581783E+02  0.47000000000E+01 0. -1.
          5    1    4    4  502    0  0.37117841114E+02 -0.30943547366E+02 -0.14664092042E+03  0.15446969539E+03  0.47000000000E+01 0.  1.
         -5    1    4    4    0  502  0.71330632998E+01 -0.25574581420E+02  0.22997148856E+02  0.35438660561E+02  0.47000000000E+01 0.  1.
<mgrwt>
<rscale>  0 0.29132296E+03</rscale>
<asrwt>0</asrwt>
<pdfrwt beam="1">  1       21 0.11906291E-01 0.29132296E+03</pdfrwt>
<pdfrwt beam="2">  1       21 0.42178026E-01 0.29132296E+03</pdfrwt>
<totfact> 0.31465113E+05</totfact>
</mgrwt>
</event>
<event>
 8    1  0.9974463E-006  0.2509882E+03  0.7546771E-02  0.1112682E+00
         21   -1    0    0  504  503  0.00000000000E+00  0.00000000000E+00  0.73390848101E+02  0.73390848101E+02  0.00000000000E+00 0. -1.
         21   -1    0    0  503  504 -0.00000000000E+00 -0.00000000000E+00 -0.21458760515E+03  0.21458760515E+03  0.00000000000E+00 0. -1.
         25    2    1    2    0    0 -0.16812116163E+01  0.59138192762E+01 -0.59910261755E+02  0.13874931187E+03  0.12499732937E+03 0.  0.
         25    2    1    2    0    0  0.16812116163E+01 -0.59138192762E+01 -0.81286495297E+02  0.14922914138E+03  0.12499617030E+03 0.  0.
          5    1    3    3  501    0  0.17518877382E+02 -0.53692545207E+02 -0.79237673666E+01  0.57224789775E+02  0.47000000000E+01 0.  1.
         -5    1    3    3    0  501 -0.19200088998E+02  0.59606364483E+02 -0.51986494389E+02  0.81524522098E+02  0.47000000000E+01 0.  1.
          5    1    4    4  502    0 -0.28892874184E+02  0.29523178833E+02 -0.92024530313E+02  0.10098029732E+03  0.47000000000E+01 0. -1.
         -5    1    4    4    0  502  0.30574085800E+02 -0.35436998109E+02  0.10738035016E+02  0.48248844064E+02  0.47000000000E+01 0. -1.
<mgrwt>
<rscale>  0 0.25098818E+03</rscale>
<asrwt>0</asrwt>
<pdfrwt beam="1">  1       21 0.11290900E-01 0.25098818E+03</pdfrwt>
<pdfrwt beam="2">  1       21 0.33013477E-01 0.25098818E+03</pdfrwt>
<totfact> 0.57175713E+05</totfact>
</mgrwt>
</event>
<event>
 8    1  0.9974463E-006  0.2977311E+03  0.7546771E-02  0.1086380E+00
         21   -1    0    0  504  503  0.00000000000E+00  0.00000000000E+00  0.41733707533E+03  0.41733707533E+03  0.00000000000E+00 0. -1.
         21   -1    0    0  503  504 -0.00000000000E+00 -0.00000000000E+00 -0.53100857317E+02  0.53100857317E+02  0.00000000000E+00 0. -1.
         25    2    1    2    0    0 -0.78843885138E+02  0.14327869468E+02  0.19903682505E+03  0.24831834578E+03  0.12499878824E+03 0.  0.
         25    2    1    2    0    0  0.78843885138E+02 -0.14327869468E+02  0.16519939296E+03  0.22211958686E+03  0.12499850145E+03 0.  0.
          5    1    3    3  501    0 -0.42559959876E+02 -0.52234713916E+02  0.62224197961E+02  0.91835485159E+02  0.47000000000E+01 0. -1.
         -5    1    3    3    0  501 -0.36283925261E+02  0.66562583384E+02  0.13681262709E+03  0.15648286062E+03  0.47000000000E+01 0. -1.
          5    1    4    4  502    0  0.50656843701E+02  0.53166471363E+02  0.66502460979E+02  0.99183954384E+02  0.47000000000E+01 0.  1.
         -5    1    4    4    0  502  0.28187041437E+02 -0.67494340831E+02  0.98696931983E+02  0.12293563248E+03  0.47000000000E+01 0.  1.
<mgrwt>
<rscale>  0 0.29773113E+03</rscale>
<asrwt>0</asrwt>
<pdfrwt beam="1">  1       21 0.64205702E-01 0.29773113E+03</pdfrwt>
<pdfrwt beam="2">  1       21 0.81693629E-02 0.29773113E+03</pdfrwt>
<totfact> 0.25207656E+05</totfact>
</mgrwt>
</event>
<event>
 8    1  0.9974463E-006  0.2898007E+03  0.7546771E-02  0.1090453E+00
         21   -1    0    0  504  503  0.00000000000E+00  0.00000000000E+00  0.59243055057E+03  0.59243055057E+03  0.00000000000E+00 0.  1.
         21   -1    0    0  503  504 -0.00000000000E+00 -0.00000000000E+00 -0.35440619041E+02  0.35440619041E+02  0.00000000000E+00 0.  1.
         25    2    1    2    0    0 -0.44975322233E+02 -0.56955421000E+02  0.25635307985E+03  0.29429563147E+03  0.12500527013E+03 0.  0.
         25    2    1    2    0    0  0.44975322233E+02  0.56955421000E+02  0.30063685168E+03  0.33357553814E+03  0.12499369372E+03 0.  0.
          5    1    3    3  501    0 -0.21828858827E+01 -0.59024311689E+02  0.24157156251E+03  0.24873187205E+03  0.47000000000E+01 0. -1.
         -5    1    3    3    0  501 -0.42792436351E+02  0.20688906890E+01  0.14781517347E+02  0.45563759421E+02  0.47000000000E+01 0. -1.
          5    1    4    4  502    0 -0.10288365296E+02 -0.27982968910E+02  0.14276782251E+03  0.14592339824E+03  0.47000000000E+01 0.  1.
         -5    1    4    4    0  502  0.55263687529E+02  0.84938389910E+02  0.15786902916E+03  0.18765213990E+03  0.47000000000E+01 0.  1.
<mgrwt>
<rscale>  0 0.28980066E+03</rscale>
<asrwt>0</asrwt>
<pdfrwt beam="1">  1       21 0.91143154E-01 0.28980066E+03</pdfrwt>
<pdfrwt beam="2">  1       21 0.54524034E-02 0.28980066E+03</pdfrwt>
<totfact> 0.23041382E+05</totfact>
</mgrwt>
</event>
<event>
 8    1  0.9974463E-006  0.2645097E+03  0.7546771E-02  0.1104464E+00
         21   -1    0    0  504  503  0.00000000000E+00  0.00000000000E+00  0.31542508905E+02  0.31542508905E+02  0.00000000000E+00 0. -1.
         21   -1    0    0  503  504 -0.00000000000E+00 -0.00000000000E+00 -0.55453234210E+03  0.55453234210E+03  0.00000000000E+00 0. -1.
         25    2    1    2    0    0  0.42449532341E+02  0.79857952151E+01 -0.26155650200E+03  0.29309213924E+03  0.12500185047E+03 0.  0.
         25    2    1    2    0    0 -0.42449532341E+02 -0.79857952151E+01 -0.26143333119E+03  0.29298271177E+03  0.12500298803E+03 0.  0.
          5    1    3    3  501    0  0.10720547222E+02  0.65386584644E+02 -0.12655390052E+03  0.14292765765E+03  0.47000000000E+01 0.  1.
         -5    1    3    3    0  501  0.31728985119E+02 -0.57400789429E+02 -0.13500260148E+03  0.15016448159E+03  0.47000000000E+01 0.  1.
          5    1    4    4  502    0 -0.29914980866E+02  0.54854274894E+02 -0.17043805404E+03  0.18159052238E+03  0.47000000000E+01 0. -1.
         -5    1    4    4    0  502 -0.12534551476E+02 -0.62840070109E+02 -0.90995277154E+02  0.11139218939E+03  0.47000000000E+01 0. -1.
<mgrwt>
<rscale>  0 0.26450967E+03</rscale>
<asrwt>0</asrwt>
<pdfrwt beam="1">  1       21 0.48526935E-02 0.26450967E+03</pdfrwt>
<pdfrwt beam="2">  1       21 0.85312671E-01 0.26450967E+03</pdfrwt>
<totfact> 0.33001693E+05</totfact>
</mgrwt>
</event>
<event>
 8    1  0.9974463E-006  0.2800962E+03  0.7546771E-02  0.1095636E+00
         21   -1    0    0  504  503  0.00000000000E+00  0.00000000000E+00  0.14162663581E+03  0.14162663581E+03  0.00000000000E+00 0.  1.
         21   -1    0    0  503  504 -0.00000000000E+00 -0.00000000000E+00 -0.13848719889E+03  0.13848719889E+03  0.00000000000E+00 0.  1.
         25    2    1    2    0    0 -0.60584405926E+02 -0.16817922937E+02  0.74511799877E+01  0.14012549187E+03  0.12500528235E+03 0.  0.
         25    2    1    2    0    0  0.60584405926E+02  0.16817922937E+02 -0.43117430659E+01  0.13998834283E+03  0.12499932890E+03 0.  0.
          5    1    3    3  501    0  0.15852142668E+02 -0.56367907647E+01 -0.43898729124E+02  0.47246716881E+02  0.47000000000E+01 0.  1.
         -5    1    3    3    0  501 -0.76436548594E+02 -0.11181132172E+02  0.51349909112E+02  0.92878774989E+02  0.47000000000E+01 0.  1.
          5    1    4    4  502    0  0.14397346769E+02 -0.22927690407E+02 -0.54415803813E+02  0.60960087647E+02  0.47000000000E+01 0.  1.
         -5    1    4    4    0  502  0.46187059158E+02  0.39745613344E+02  0.50104060747E+02  0.79028255181E+02  0.47000000000E+01 0.  1.
<mgrwt>
<rscale>  0 0.28009624E+03</rscale>
<asrwt>0</asrwt>
<pdfrwt beam="1">  1       21 0.21788713E-01 0.28009624E+03</pdfrwt>
<pdfrwt beam="2">  1       21 0.21305723E-01 0.28009624E+03</pdfrwt>
<totfact> 0.39574864E+05</totfact>
</mgrwt>
</event>
<event>
 8    1  0.9974463E-006  0.3584744E+03  0.7546771E-02  0.1059190E+00
         21   -1    0    0  504  503  0.00000000000E+00  0.00000000000E+00  0.38180666160E+02  0.38180666160E+02  0.00000000000E+00 0. -1.
         21   -1    0    0  503  504 -0.00000000000E+00 -0.00000000000E+00 -0.84142014134E+03  0.84142014134E+03  0.00000000000E+00 0. -1.
         25    2    1    2    0    0  0.56201620226E+02  0.11397641845E+03 -0.44759126450E+03  0.48178032683E+03  0.12500038873E+03 0.  0.
         25    2    1    2    0    0 -0.56201620226E+02 -0.11397641845E+03 -0.35564821068E+03  0.39782048067E+03  0.12500495593E+03 0.  0.
          5    1    3    3  501    0  0.43823939443E+02  0.45554115706E+02 -0.57718337652E+02  0.85727542992E+02  0.47000000000E+01 0.  1.
         -5    1    3    3    0  501  0.12377680783E+02  0.68422302740E+02 -0.38987292685E+03  0.39605278383E+03  0.47000000000E+01 0.  1.
          5    1    4    4  502    0 -0.34625619232E+02 -0.14932182487E+02 -0.12531902551E+02  0.40013024912E+02  0.47000000000E+01 0.  1.
         -5    1    4    4    0  502 -0.21576000993E+02 -0.99044235958E+02 -0.34311630813E+03  0.35780745576E+03  0.47000000000E+01 0.  1.
<mgrwt>
<rscale>  0 0.35847444E+03</rscale>
<asrwt>0</asrwt>
<pdfrwt beam="1">  1       21 0.58739493E-02 0.35847444E+03</pdfrwt>
<pdfrwt beam="2">  1       21 0.12944924E+00 0.35847444E+03</pdfrwt>
<totfact> 0.84100044E+04</totfact>
</mgrwt>
</event>
<event>
 8    1  0.9974463E-006  0.5470570E+03  0.7546771E-02  0.1002177E+00
         21   -1    0    0  504  503  0.00000000000E+00  0.00000000000E+00  0.10583995675E+04  0.10583995675E+04  0.00000000000E+00 0.  1.
         21   -1    0    0  503  504 -0.00000000000E+00 -0.00000000000E+00 -0.70689596247E+02  0.70689596247E+02  0.00000000000E+00 0.  1.
         25    2    1    2    0    0 -0.41262094998E+02  0.14351120331E+03  0.97411516645E+02  0.21774170852E+03  0.12499768836E+03 0.  0.
         25    2    1    2    0    0  0.41262094998E+02 -0.14351120331E+03  0.89029845461E+03  0.91134745523E+03  0.12499927967E+03 0.  0.
          5    1    3    3  501    0 -0.77305154546E+02  0.63177543739E+02  0.23467313711E+02  0.10266593284E+03  0.47000000000E+01 0.  1.
         -5    1    3    3    0  501  0.36043059549E+02  0.80333659568E+02  0.73944202933E+02  0.11507577568E+03  0.47000000000E+01 0.  1.
          5    1    4    4  502    0 -0.29106755018E+02  0.31042941329E+01  0.92727939677E+02  0.97351942078E+02  0.47000000000E+01 0.  1.
         -5    1    4    4    0  502  0.70368850015E+02 -0.14661549744E+03  0.79757051493E+03  0.81399551315E+03  0.47000000000E+01 0.  1.
<mgrwt>
<rscale>  0 0.54705699E+03</rscale>
<asrwt>0</asrwt>
<pdfrwt beam="1">  1       21 0.16283069E+00 0.54705699E+03</pdfrwt>
<pdfrwt beam="2">  1       21 0.10875323E-01 0.54705699E+03</pdfrwt>
<totfact> 0.14476971E+04</totfact>
</mgrwt>
</event>
<event>
 8    1  0.9974463E-006  0.2597129E+03  0.7546771E-02  0.1107316E+00
         21   -1    0    0  504  503  0.00000000000E+00  0.00000000000E+00  0.56162455997E+03  0.56162455997E+03  0.00000000000E+00 0.  1.
         21   -1    0    0  503  504 -0.00000000000E+00 -0.00000000000E+00 -0.30024854465E+02  0.30024854465E+02  0.00000000000E+00 0.  1.
         25    2    1    2    0    0  0.51769175961E+01 -0.33730175459E+02  0.24633827833E+03  0.27833829322E+03  0.12500053157E+03 0.  0.
         25    2    1    2    0    0 -0.51769175961E+01  0.33730175459E+02  0.28526142718E+03  0.31331112121E+03  0.12500100650E+03 0.  0.
          5    1    3    3  501    0  0.59272672112E+02 -0.12003652367E+02  0.17976947354E+03  0.18972741221E+03  0.47000000000E+01 0. -1.
         -5    1    3    3    0  501 -0.54095754516E+02 -0.21726523093E+02  0.66568804788E+02  0.88610881009E+02  0.47000000000E+01 0. -1.
          5    1    4    4  502    0  0.11129923569E+02  0.18380789347E+02 -0.46633158528E+01  0.22484775526E+02  0.47000000000E+01 0.  1.
         -5    1    4    4    0  502 -0.16306841165E+02  0.15349386112E+02  0.28992474303E+03  0.29082634568E+03  0.47000000000E+01 0.  1.
<mgrwt>
<rscale>  0 0.25971289E+03</rscale>
<asrwt>0</asrwt>
<pdfrwt beam="1">  1       21 0.86403771E-01 0.25971289E+03</pdfrwt>
<pdfrwt beam="2">  1       21 0.46192088E-02 0.25971289E+03</pdfrwt>
<totfact> 0.34890242E+05</totfact>
</mgrwt>
</event>
<event>
 8    1  0.9974463E-006  0.2685946E+03  0.7546771E-02  0.1102087E+00
         21   -1    0    0  504  503  0.00000000000E+00  0.00000000000E+00  0.45968383354E+03  0.45968383354E+03  0.00000000000E+00 0.  1.
         21   -1    0    0  503  504 -0.00000000000E+00 -0.00000000000E+00 -0.39235140284E+02  0.39235140284E+02  0.00000000000E+00 0.  1.
         25    2    1    2    0    0  0.26672475933E+02  0.21686510516E+02  0.27535288533E+03  0.30434572085E+03  0.12500152251E+03 0.  0.
         25    2    1    2    0    0 -0.26672475933E+02 -0.21686510516E+02  0.14509580793E+03  0.19457325298E+03  0.12499692630E+03 0.  0.
          5    1    3    3  501    0  0.20168574825E+01  0.58734154511E+02  0.58979338373E+02  0.83393171034E+02  0.47000000000E+01 0. -1.
         -5    1    3    3    0  501  0.24655618450E+02 -0.37047643995E+02  0.21637354696E+03  0.22095254981E+03  0.47000000000E+01 0. -1.
          5    1    4    4  502    0 -0.54663051063E+02 -0.59848597173E+02  0.80266739359E+02  0.11416979978E+03  0.47000000000E+01 0.  1.
         -5    1    4    4    0  502  0.27990575130E+02  0.38162086657E+02  0.64829068569E+02  0.80403453194E+02  0.47000000000E+01 0.  1.
<mgrwt>
<rscale>  0 0.26859456E+03</rscale>
<asrwt>0</asrwt>
<pdfrwt beam="1">  1       21 0.70720586E-01 0.26859456E+03</pdfrwt>
<pdfrwt beam="2">  1       21 0.60361757E-02 0.26859456E+03</pdfrwt>
<totfact> 0.34704755E+05</totfact>
</mgrwt>
</event>
<event>
 8    1  0.9974463E-006  0.3204490E+03  0.7546771E-02  0.1075443E+00
         21   -1    0    0  504  503  0.00000000000E+00  0.00000000000E+00  0.48992652791E+03  0.48992652791E+03  0.00000000000E+00 0.  1.
         21   -1    0    0  503  504 -0.00000000000E+00 -0.00000000000E+00 -0.52399454948E+02  0.52399454948E+02  0.00000000000E+00 0.  1.
         25    2    1    2    0    0 -0.60970165255E+02 -0.56563966409E+01  0.35306576743E+03  0.37951250421E+03  0.12499979538E+03 0.  0.
         25    2    1    2    0    0  0.60970165255E+02  0.56563966409E+01  0.84461305533E+02  0.16281347865E+03  0.12500064329E+03 0.  0.
          5    1    3    3  501    0  0.97011115701E+01  0.46075417028E+02  0.82757130796E+02  0.95330416539E+02  0.47000000000E+01 0. -1.
         -5    1    3    3    0  501 -0.70671276825E+02 -0.51731813669E+02  0.27030863664E+03  0.28418208767E+03  0.47000000000E+01 0. -1.
          5    1    4    4  502    0  0.26462393513E+02 -0.38877917398E+02 -0.13984675447E+02  0.49289064497E+02  0.47000000000E+01 0. -1.
         -5    1    4    4    0  502  0.34507771743E+02  0.44534314039E+02  0.98445980980E+02  0.11352441415E+03  0.47000000000E+01 0. -1.
<mgrwt>
<rscale>  0 0.32044895E+03</rscale>
<asrwt>0</asrwt>
<pdfrwt beam="1">  1       21 0.75373309E-01 0.32044895E+03</pdfrwt>
<pdfrwt beam="2">  1       21 0.80614549E-02 0.32044895E+03</pdfrwt>
<totfact> 0.17957080E+05</totfact>
</mgrwt>
</event>
<event>
 8    1  0.9974463E-006  0.3045138E+03  0.7546771E-02  0.1083006E+00
         21   -1    0    0  504  503  0.00000000000E+00  0.00000000000E+00  0.83398954956E+03  0.83398954956E+03  0.00000000000E+00 0.  1.
         21   -1    0    0  503  504 -0.00000000000E+00 -0.00000000000E+00 -0.27796710826E+02  0.27796710826E+02  0.00000000000E+00 0.  1.
         25    2    1    2    0    0 -0.10402639883E+02  0.79202837267E+02  0.30598794175E+03  0.34004765931E+03  0.12498994261E+03 0.  0.
         25    2    1    2    0    0  0.10402639883E+02 -0.79202837267E+02  0.50020489698E+03  0.52173860108E+03  0.12499969818E+03 0.  0.
          5    1    3    3  501    0  0.43239481104E+02 -0.86768395523E+01  0.75445238913E+02  0.87515794834E+02  0.47000000000E+01 0. -1.
         -5    1    3    3    0  501 -0.53642120988E+02  0.87879676819E+02  0.23054270284E+03  0.25253186447E+03  0.47000000000E+01 0. -1.
          5    1    4    4  502    0  0.61876445549E+01 -0.97304931159E+02  0.49074713650E+03  0.50036124806E+03  0.47000000000E+01 0. -1.
         -5    1    4    4    0  502  0.42149953285E+01  0.18102093892E+02  0.94577604793E+01  0.21377353021E+02  0.47000000000E+01 0. -1.
<mgrwt>
<rscale>  0 0.30451382E+03</rscale>
<asrwt>0</asrwt>
<pdfrwt beam="1">  1       21 0.12830607E+00 0.30451382E+03</pdfrwt>
<pdfrwt beam="2">  1       21 0.42764177E-02 0.30451382E+03</pdfrwt>
<totfact> 0.15054453E+05</totfact>
</mgrwt>
</event>
<event>
 8    1  0.9974463E-006  0.2943867E+03  0.7546771E-02  0.1088081E+00
         21   -1    0    0  504  503  0.00000000000E+00  0.00000000000E+00  0.44882599100E+02  0.44882599100E+02  0.00000000000E+00 0.  1.
         21   -1    0    0  503  504 -0.00000000000E+00 -0.00000000000E+00 -0.48272329503E+03  0.48272329503E+03  0.00000000000E+00 0.  1.
         25    2    1    2    0    0 -0.12171326776E+02 -0.75767032545E+02 -0.19678364686E+03  0.24543129151E+03  0.12499572299E+03 0.  0.
         25    2    1    2    0    0  0.12171326776E+02  0.75767032545E+02 -0.24105704906E+03  0.28217460262E+03  0.12500088416E+03 0.  0.
          5    1    3    3  501    0 -0.12990982789E+02 -0.70811446940E+02 -0.29400792281E+02  0.77907144976E+02  0.47000000000E+01 0. -1.
         -5    1    3    3    0  501  0.81965601319E+00 -0.49555856057E+01 -0.16738285458E+03  0.16752414654E+03  0.47000000000E+01 0. -1.
          5    1    4    4  502    0 -0.23490783161E+02  0.12192277458E+02 -0.19271657607E+03  0.19458221197E+03  0.47000000000E+01 0. -1.
         -5    1    4    4    0  502  0.35662109936E+02  0.63574755087E+02 -0.48340472992E+02  0.87592390643E+02  0.47000000000E+01 0. -1.
<mgrwt>
<rscale>  0 0.29438666E+03</rscale>
<asrwt>0</asrwt>
<pdfrwt beam="1">  1       21 0.69050155E-02 0.29438666E+03</pdfrwt>
<pdfrwt beam="2">  1       21 0.74265120E-01 0.29438666E+03</pdfrwt>
<totfact> 0.24496381E+05</totfact>
</mgrwt>
</event>
<event>
 8    1  0.9974463E-006  0.3099203E+03  0.7546771E-02  0.1080384E+00
         21   -1    0    0  504  503  0.00000000000E+00  0.00000000000E+00  0.85626957886E+02  0.85626957886E+02  0.00000000000E+00 0.  1.
         21   -1    0    0  503  504 -0.00000000000E+00 -0.00000000000E+00 -0.28043328280E+03  0.28043328280E+03  0.00000000000E+00 0.  1.
         25    2    1    2    0    0 -0.79656287670E+02 -0.86215539721E+01 -0.14983500928E+03  0.21092529679E+03  0.12497797990E+03 0.  0.
         25    2    1    2    0    0  0.79656287670E+02  0.86215539721E+01 -0.44971315637E+02  0.15513494390E+03  0.12499990492E+03 0.  0.
          5    1    3    3  501    0  0.11803229042E+02 -0.17955710562E+02  0.11765455984E+02  0.24944733154E+02  0.47000000000E+01 0. -1.
         -5    1    3    3    0  501 -0.91459516712E+02  0.93341565903E+01 -0.16160046526E+03  0.18598056363E+03  0.47000000000E+01 0. -1.
          5    1    4    4  502    0  0.67928793228E+02 -0.42952052126E+02  0.70315516681E+01  0.80812947292E+02  0.47000000000E+01 0. -1.
         -5    1    4    4    0  502  0.11727494443E+02  0.51573606098E+02 -0.52002867305E+02  0.74321996608E+02  0.47000000000E+01 0. -1.
<mgrwt>
<rscale>  0 0.30992031E+03</rscale>
<asrwt>0</asrwt>
<pdfrwt beam="1">  1       21 0.13173378E-01 0.30992031E+03</pdfrwt>
<pdfrwt beam="2">  1       21 0.43143582E-01 0.30992031E+03</pdfrwt>
<totfact> 0.24907919E+05</totfact>
</mgrwt>
</event>
<event>
 8    1  0.9974463E-006  0.2613080E+03  0.7546771E-02  0.1106360E+00
         21   -1    0    0  504  503  0.00000000000E+00  0.00000000000E+00  0.32331113790E+03  0.32331113790E+03  0.00000000000E+00 0. -1.
         21   -1    0    0  503  504 -0.00000000000E+00 -0.00000000000E+00 -0.52798891686E+02  0.52798891686E+02  0.00000000000E+00 0. -1.
         25    2    1    2    0    0 -0.29658909146E+02  0.23730252694E+02  0.13267468497E+03  0.18620323961E+03  0.12500519439E+03 0.  0.
         25    2    1    2    0    0  0.29658909146E+02 -0.23730252694E+02  0.13783756124E+03  0.18990678997E+03  0.12499047886E+03 0.  0.
          5    1    3    3  501    0 -0.32636305234E+01  0.52986934516E+02  0.62063422699E+01  0.53655150713E+02  0.47000000000E+01 0. -1.
         -5    1    3    3    0  501 -0.26395278622E+02 -0.29256681822E+02  0.12646834270E+03  0.13254808890E+03  0.47000000000E+01 0. -1.
          5    1    4    4  502    0  0.42026104139E+02 -0.70180054393E+02  0.79425146456E+02  0.11411344072E+03  0.47000000000E+01 0.  1.
         -5    1    4    4    0  502 -0.12367194993E+02  0.46449801699E+02  0.58412414785E+02  0.75793349253E+02  0.47000000000E+01 0.  1.
<mgrwt>
<rscale>  0 0.26130802E+03</rscale>
<asrwt>0</asrwt>
<pdfrwt beam="1">  1       21 0.49740174E-01 0.26130802E+03</pdfrwt>
<pdfrwt beam="2">  1       21 0.81229066E-02 0.26130802E+03</pdfrwt>
<totfact> 0.44362544E+05</totfact>
</mgrwt>
</event>
<event>
 8    1  0.9974463E-006  0.3643465E+03  0.7546771E-02  0.1056876E+00
         21   -1    0    0  504  503  0.00000000000E+00  0.00000000000E+00  0.23273808694E+02  0.23273808694E+02  0.00000000000E+00 0. -1.
         21   -1    0    0  503  504 -0.00000000000E+00 -0.00000000000E+00 -0.14259419892E+04  0.14259419892E+04  0.00000000000E+00 0. -1.
         25    2    1    2    0    0  0.94835234481E+02 -0.47835603145E+02 -0.38614082771E+03  0.41953755821E+03  0.12500022920E+03 0.  0.
         25    2    1    2    0    0 -0.94835234481E+02  0.47835603145E+02 -0.10165273528E+04  0.10296782396E+04  0.12500980625E+03 0.  0.
          5    1    3    3  501    0  0.94869306852E+02 -0.53846749332E+02 -0.16255186380E+03  0.19581842666E+03  0.47000000000E+01 0.  1.
         -5    1    3    3    0  501 -0.34072371020E-01  0.60111461865E+01 -0.22358896391E+03  0.22371913155E+03  0.47000000000E+01 0.  1.
          5    1    4    4  502    0 -0.80129972487E+02  0.70141835033E+02 -0.44811667803E+03  0.46062059946E+03  0.47000000000E+01 0.  1.
         -5    1    4    4    0  502 -0.14705261995E+02 -0.22306231888E+02 -0.56841067473E+03  0.56905764019E+03  0.47000000000E+01 0.  1.
<mgrwt>
<rscale>  0 0.36434654E+03</rscale>
<asrwt>0</asrwt>
<pdfrwt beam="1">  1       21 0.35805847E-02 0.36434654E+03</pdfrwt>
<pdfrwt beam="2">  1       21 0.21937577E+00 0.36434654E+03</pdfrwt>
<totfact> 0.43761151E+04</totfact>
</mgrwt>
</event>
<event>
 8    1  0.9974463E-006  0.4138107E+03  0.7546771E-02  0.1039100E+00
         21   -1    0    0  504  503  0.00000000000E+00  0.00000000000E+00  0.19133663484E+03  0.19133663484E+03  0.00000000000E+00 0. -1.
         21   -1    0    0  503  504 -0.00000000000E+00 -0.00000000000E+00 -0.22374088067E+03  0.22374088067E+03  0.00000000000E+00 0. -1.
         25    2    1    2    0    0  0.30261524001E+02  0.61425648006E+02 -0.16664901229E+03  0.21928508680E+03  0.12500074371E+03 0.  0.
         25    2    1    2    0    0 -0.30261524001E+02 -0.61425648006E+02  0.13424476646E+03  0.19579242871E+03  0.12499659097E+03 0.  0.
          5    1    3    3  501    0  0.61270677992E+02  0.71667670114E+02 -0.15977778550E+03  0.18558389386E+03  0.47000000000E+01 0. -1.
         -5    1    3    3    0  501 -0.31009153991E+02 -0.10242022108E+02 -0.68712267919E+01  0.33701192942E+02  0.47000000000E+01 0. -1.
          5    1    4    4  502    0  0.43546059499E+02 -0.90438654403E+01  0.17560499558E+02  0.48046976437E+02  0.47000000000E+01 0.  1.
         -5    1    4    4    0  502 -0.73807583501E+02 -0.52381782566E+02  0.11668426690E+03  0.14774545228E+03  0.47000000000E+01 0.  1.
<mgrwt>
<rscale>  0 0.41381072E+03</rscale>
<asrwt>0</asrwt>
<pdfrwt beam="1">  1       21 0.29436405E-01 0.41381072E+03</pdfrwt>
<pdfrwt beam="2">  1       21 0.34421674E-01 0.41381072E+03</pdfrwt>
<totfact> 0.84269083E+04</totfact>
</mgrwt>
</event>
<event>
 8    1  0.9974463E-006  0.2680146E+03  0.7546771E-02  0.1102421E+00
         21   -1    0    0  504  503  0.00000000000E+00  0.00000000000E+00  0.17108782521E+03  0.17108782521E+03  0.00000000000E+00 0. -1.
         21   -1    0    0  503  504 -0.00000000000E+00 -0.00000000000E+00 -0.10496340655E+03  0.10496340655E+03  0.00000000000E+00 0. -1.
         25    2    1    2    0    0 -0.79373740740E+01  0.43733173295E+02  0.13606300687E+02  0.13337018487E+03  0.12500752954E+03 0.  0.
         25    2    1    2    0    0  0.79373740740E+01 -0.43733173295E+02  0.52518117970E+02  0.14268104689E+03  0.12499654424E+03 0.  0.
          5    1    3    3  501    0  0.28584612867E+02  0.57364640421E+02  0.48759408857E+02  0.80668159862E+02  0.47000000000E+01 0.  1.
         -5    1    3    3    0  501 -0.36521986941E+02 -0.13631467126E+02 -0.35153108170E+02  0.52702025010E+02  0.47000000000E+01 0.  1.
          5    1    4    4  502    0 -0.38847639956E+02  0.24229836056E+02  0.35931134314E+02  0.58389729392E+02  0.47000000000E+01 0.  1.
         -5    1    4    4    0  502  0.46785014030E+02 -0.67963009351E+02  0.16586983656E+02  0.84291317493E+02  0.47000000000E+01 0.  1.
<mgrwt>
<rscale>  0 0.26801463E+03</rscale>
<asrwt>0</asrwt>
<pdfrwt beam="1">  1       21 0.26321204E-01 0.26801463E+03</pdfrwt>
<pdfrwt beam="2">  1       21 0.16148216E-01 0.26801463E+03</pdfrwt>
<totfact> 0.46358120E+05</totfact>
</mgrwt>
</event>
<event>
 8    1  0.9974463E-006  0.2752143E+03  0.7546771E-02  0.1098332E+00
         21   -1    0    0  504  503  0.00000000000E+00  0.00000000000E+00  0.46945616043E+02  0.46945616043E+02  0.00000000000E+00 0. -1.
         21   -1    0    0  503  504 -0.00000000000E+00 -0.00000000000E+00 -0.40335458925E+03  0.40335458925E+03  0.00000000000E+00 0. -1.
         25    2    1    2    0    0 -0.34951908996E+02 -0.36599701651E+02 -0.22304481753E+03  0.26064344747E+03  0.12499936791E+03 0.  0.
         25    2    1    2    0    0  0.34951908996E+02  0.36599701651E+02 -0.13336415567E+03  0.18965675782E+03  0.12499005427E+03 0.  0.
          5    1    3    3  501    0  0.25084235054E+02  0.33661466316E+02 -0.74026844467E+02  0.85231313873E+02  0.47000000000E+01 0.  1.
         -5    1    3    3    0  501 -0.60036144049E+02 -0.70261167967E+02 -0.14901797307E+03  0.17541213360E+03  0.47000000000E+01 0.  1.
          5    1    4    4  502    0 -0.38353074510E+01 -0.32634402223E+02 -0.96458743148E+02  0.10201025890E+03  0.47000000000E+01 0. -1.
         -5    1    4    4    0  502  0.38787216447E+02  0.69234103874E+02 -0.36905412522E+02  0.87646498917E+02  0.47000000000E+01 0. -1.
<mgrwt>
<rscale>  0 0.27521431E+03</rscale>
<asrwt>0</asrwt>
<pdfrwt beam="1">  1       21 0.72224024E-02 0.27521431E+03</pdfrwt>
<pdfrwt beam="2">  1       21 0.62054553E-01 0.27521431E+03</pdfrwt>
<totfact> 0.33861829E+05</totfact>
</mgrwt>
</event>
<event>
 8    1  0.9974463E-006  0.6611058E+03  0.7546771E-02  0.9786160E-01
         21   -1    0    0  504  503  0.00000000000E+00  0.00000000000E+00  0.46055696644E+03  0.46055696644E+03  0.00000000000E+00 0. -1.
         21   -1    0    0  503  504 -0.00000000000E+00 -0.00000000000E+00 -0.23724582684E+03  0.23724582684E+03  0.00000000000E+00 0. -1.
         25    2    1    2    0    0  0.71525630856E+02  0.27691279644E+03 -0.32194539342E+01  0.31213662565E+03  0.12498918147E+03 0.  0.
         25    2    1    2    0    0 -0.71525630856E+02 -0.27691279644E+03  0.22653059353E+03  0.38566616763E+03  0.12500268136E+03 0.  0.
          5    1    3    3  501    0  0.74015837900E+02  0.28806830582E+03 -0.10764306680E+02  0.29765693907E+03  0.47000000000E+01 0. -1.
         -5    1    3    3    0  501 -0.24902070446E+01 -0.11155509373E+02  0.75448527463E+01  0.14479686580E+02  0.47000000000E+01 0. -1.
          5    1    4    4  502    0 -0.98495060069E+01 -0.13725869862E+03  0.17873778015E+03  0.22562412807E+03  0.47000000000E+01 0.  1.
         -5    1    4    4    0  502 -0.61676124849E+02 -0.13965409783E+03  0.47792813377E+02  0.16004203956E+03  0.47000000000E+01 0.  1.
<mgrwt>
<rscale>  0 0.66110580E+03</rscale>
<asrwt>0</asrwt>
<pdfrwt beam="1">  1       21 0.70854918E-01 0.66110580E+03</pdfrwt>
<pdfrwt beam="2">  1       21 0.36499358E-01 0.66110580E+03</pdfrwt>
<totfact> 0.11122838E+04</totfact>
</mgrwt>
</event>
<event>
 8    1  0.9974463E-006  0.2682690E+03  0.7546771E-02  0.1102274E+00
         21   -1    0    0  504  503  0.00000000000E+00  0.00000000000E+00  0.17047483711E+03  0.17047483711E+03  0.00000000000E+00 0. -1.
         21   -1    0    0  503  504 -0.00000000000E+00 -0.00000000000E+00 -0.10554089708E+03  0.10554089708E+03  0.00000000000E+00 0. -1.
         25    2    1    2    0    0  0.56479717067E+01 -0.47819853426E+02  0.39463905060E+02  0.13965810726E+03  0.12501339590E+03 0.  0.
         25    2    1    2    0    0 -0.56479717067E+01  0.47819853426E+02  0.25470034971E+02  0.13635762694E+03  0.12500416704E+03 0.  0.
          5    1    3    3  501    0 -0.87933705052E+01  0.27150646643E+02  0.54501497652E+02  0.61700763563E+02  0.47000000000E+01 0.  1.
         -5    1    3    3    0  501  0.14441342212E+02 -0.74970500068E+02 -0.15037592592E+02  0.77957343697E+02  0.47000000000E+01 0.  1.
          5    1    4    4  502    0  0.28404702747E+02  0.45768450121E+02  0.64593243475E+02  0.84237493239E+02  0.47000000000E+01 0. -1.
         -5    1    4    4    0  502 -0.34052674454E+02  0.20514033047E+01 -0.39123208504E+02  0.52120133697E+02  0.47000000000E+01 0. -1.
<mgrwt>
<rscale>  0 0.26826902E+03</rscale>
<asrwt>0</asrwt>
<pdfrwt beam="1">  1       21 0.26226898E-01 0.26826902E+03</pdfrwt>
<pdfrwt beam="2">  1       21 0.16237061E-01 0.26826902E+03</pdfrwt>
<totfact> 0.46208510E+05</totfact>
</mgrwt>
</event>
<event>
 8    1  0.9974463E-006  0.2900672E+03  0.7546771E-02  0.1090314E+00
         21   -1    0    0  504  503  0.00000000000E+00  0.00000000000E+00  0.63948259755E+03  0.63948259755E+03  0.00000000000E+00 0.  1.
         21   -1    0    0  503  504 -0.00000000000E+00 -0.00000000000E+00 -0.32893375335E+02  0.32893375335E+02  0.00000000000E+00 0.  1.
         25    2    1    2    0    0  0.14219328534E+02  0.49212673740E+02  0.42562257782E+03  0.44654533336E+03  0.12499631769E+03 0.  0.
         25    2    1    2    0    0 -0.14219328534E+02 -0.49212673740E+02  0.18096664439E+03  0.22583063952E+03  0.12500589907E+03 0.  0.
          5    1    3    3  501    0  0.29813371689E+02  0.76667862032E+02  0.39043856360E+03  0.39903779288E+03  0.47000000000E+01 0.  1.
         -5    1    3    3    0  501 -0.15594043155E+02 -0.27455188292E+02  0.35184014221E+02  0.47507540483E+02  0.47000000000E+01 0.  1.
          5    1    4    4  502    0  0.39941599971E+02  0.31999512770E+01  0.12634870973E+03  0.13263354609E+03  0.47000000000E+01 0. -1.
         -5    1    4    4    0  502 -0.54160928505E+02 -0.52412625017E+02  0.54617934654E+02  0.93197093428E+02  0.47000000000E+01 0. -1.
<mgrwt>
<rscale>  0 0.29006717E+03</rscale>
<asrwt>0</asrwt>
<pdfrwt beam="1">  1       21 0.98381929E-01 0.29006717E+03</pdfrwt>
<pdfrwt beam="2">  1       21 0.50605198E-02 0.29006717E+03</pdfrwt>
<totfact> 0.21850125E+05</totfact>
</mgrwt>
</event>
<event>
 8    1  0.9974463E-006  0.3867913E+03  0.7546771E-02  0.1048452E+00
         21   -1    0    0  504  503  0.00000000000E+00  0.00000000000E+00  0.74043826190E+02  0.74043826190E+02  0.00000000000E+00 0. -1.
         21   -1    0    0  503  504 -0.00000000000E+00 -0.00000000000E+00 -0.50513158542E+03  0.50513158542E+03  0.00000000000E+00 0. -1.
         25    2    1    2    0    0 -0.11888270169E+03 -0.71812017746E+02 -0.14080650309E+03  0.23394950109E+03  0.12496333501E+03 0.  0.
         25    2    1    2    0    0  0.11888270169E+03  0.71812017746E+02 -0.29028125614E+03  0.34522591051E+03  0.12501063543E+03 0.  0.
          5    1    3    3  501    0 -0.63809260247E+02 -0.33052484976E+02 -0.14944352679E+03  0.16589016293E+03  0.47000000000E+01 0.  1.
         -5    1    3    3    0  501 -0.55073441443E+02 -0.38759532770E+02  0.86370237041E+01  0.68059338164E+02  0.47000000000E+01 0.  1.
          5    1    4    4  502    0  0.32372332344E+02 -0.32896964411E+02 -0.44024248125E+02  0.63956255299E+02  0.47000000000E+01 0. -1.
         -5    1    4    4    0  502  0.86510369346E+02  0.10470898216E+03 -0.24625700801E+03  0.28126965522E+03  0.47000000000E+01 0. -1.
<mgrwt>
<rscale>  0 0.38679129E+03</rscale>
<asrwt>0</asrwt>
<pdfrwt beam="1">  1       21 0.11391357E-01 0.38679129E+03</pdfrwt>
<pdfrwt beam="2">  1       21 0.77712556E-01 0.38679129E+03</pdfrwt>
<totfact> 0.88999684E+04</totfact>
</mgrwt>
</event>
<event>
 8    1  0.9974463E-006  0.2791780E+03  0.7546771E-02  0.1096139E+00
         21   -1    0    0  504  503  0.00000000000E+00  0.00000000000E+00  0.11853387889E+03  0.11853387889E+03  0.00000000000E+00 0.  1.
         21   -1    0    0  503  504 -0.00000000000E+00 -0.00000000000E+00 -0.16438409792E+03  0.16438409792E+03  0.00000000000E+00 0.  1.
         25    2    1    2    0    0  0.29680449615E+02 -0.50560921685E+02 -0.43810998794E+02  0.14485031521E+03  0.12499949723E+03 0.  0.
         25    2    1    2    0    0 -0.29680449615E+02  0.50560921685E+02 -0.20392202388E+01  0.13806766161E+03  0.12498473856E+03 0.  0.
          5    1    3    3  501    0 -0.48606772884E+02 -0.23173982195E+02 -0.25582996224E+02  0.59801601289E+02  0.47000000000E+01 0.  1.
         -5    1    3    3    0  501  0.78287222499E+02 -0.27386939489E+02 -0.18228002570E+02  0.85048713917E+02  0.47000000000E+01 0.  1.
          5    1    4    4  502    0  0.45236002201E+02  0.15782916981E+02  0.20499916052E+02  0.52323349679E+02  0.47000000000E+01 0. -1.
         -5    1    4    4    0  502 -0.74916451816E+02  0.34778004704E+02 -0.22539136291E+02  0.85744311931E+02  0.47000000000E+01 0. -1.
<mgrwt>
<rscale>  0 0.27917797E+03</rscale>
<asrwt>0</asrwt>
<pdfrwt beam="1">  1       21 0.18235981E-01 0.27917797E+03</pdfrwt>
<pdfrwt beam="2">  1       21 0.25289861E-01 0.27917797E+03</pdfrwt>
<totfact> 0.39881763E+05</totfact>
</mgrwt>
</event>
<event>
 8    1  0.9974463E-006  0.2844302E+03  0.7546771E-02  0.1093294E+00
         21   -1    0    0  504  503  0.00000000000E+00  0.00000000000E+00  0.11346992985E+03  0.11346992985E+03  0.00000000000E+00 0.  1.
         21   -1    0    0  503  504 -0.00000000000E+00 -0.00000000000E+00 -0.17824227728E+03  0.17824227728E+03  0.00000000000E+00 0.  1.
         25    2    1    2    0    0 -0.23781414053E+02 -0.32495692322E+02 -0.88376852349E+02  0.15828944672E+03  0.12499422082E+03 0.  0.
         25    2    1    2    0    0  0.23781414053E+02  0.32495692322E+02  0.23604504921E+02  0.13342276041E+03  0.12499173840E+03 0.  0.
          5    1    3    3  501    0 -0.35606769953E+02 -0.30400642638E+01 -0.11250837527E+03  0.11814105367E+03  0.47000000000E+01 0.  1.
         -5    1    3    3    0  501  0.11825355900E+02 -0.29455628058E+02  0.24131522917E+02  0.40148393053E+02  0.47000000000E+01 0.  1.
          5    1    4    4  502    0  0.62164991231E+02  0.29070717371E+01  0.48214826226E+02  0.78865053533E+02  0.47000000000E+01 0. -1.
         -5    1    4    4    0  502 -0.38383577178E+02  0.29588620585E+02 -0.24610321305E+02  0.54557706878E+02  0.47000000000E+01 0. -1.
<mgrwt>
<rscale>  0 0.28443023E+03</rscale>
<asrwt>0</asrwt>
<pdfrwt beam="1">  1       21 0.17456912E-01 0.28443023E+03</pdfrwt>
<pdfrwt beam="2">  1       21 0.27421889E-01 0.28443023E+03</pdfrwt>
<totfact> 0.36949455E+05</totfact>
</mgrwt>
</event>
<event>
 8    1  0.9974463E-006  0.3766243E+03  0.7546771E-02  0.1052189E+00
         21   -1    0    0  504  503  0.00000000000E+00  0.00000000000E+00  0.90223978341E+02  0.90223978341E+02  0.00000000000E+00 0. -1.
         21   -1    0    0  503  504 -0.00000000000E+00 -0.00000000000E+00 -0.39303821360E+03  0.39303821360E+03  0.00000000000E+00 0. -1.
         25    2    1    2    0    0 -0.48207317120E+02  0.49451911362E+01 -0.32109997990E+03  0.34796388106E+03  0.12500106038E+03 0.  0.
         25    2    1    2    0    0  0.48207317120E+02 -0.49451911362E+01  0.18285744636E+02  0.13529831088E+03  0.12499145623E+03 0.  0.
          5    1    3    3  501    0  0.31486373015E+02  0.26534945504E+02 -0.17729901466E+03  0.18207835021E+03  0.47000000000E+01 0. -1.
         -5    1    3    3    0  501 -0.79693690135E+02 -0.21589754368E+02 -0.14380096524E+03  0.16588553085E+03  0.47000000000E+01 0. -1.
          5    1    4    4  502    0  0.75458202283E+02 -0.38417070687E+02 -0.69333849174E+01  0.85088033462E+02  0.47000000000E+01 0. -1.
         -5    1    4    4    0  502 -0.27250885163E+02  0.33471879551E+02  0.25219129554E+02  0.50210277417E+02  0.47000000000E+01 0. -1.
<mgrwt>
<rscale>  0 0.37662433E+03</rscale>
<asrwt>0</asrwt>
<pdfrwt beam="1">  1       21 0.13880612E-01 0.37662433E+03</pdfrwt>
<pdfrwt beam="2">  1       21 0.60467416E-01 0.37662433E+03</pdfrwt>
<totfact> 0.10902048E+05</totfact>
</mgrwt>
</event>
<event>
 8    1  0.9974463E-006  0.2850717E+03  0.7546771E-02  0.1092951E+00
         21   -1    0    0  504  503  0.00000000000E+00  0.00000000000E+00  0.30006093320E+03  0.30006093320E+03  0.00000000000E+00 0.  1.
         21   -1    0    0  503  504 -0.00000000000E+00 -0.00000000000E+00 -0.67707827473E+02  0.67707827473E+02  0.00000000000E+00 0.  1.
         25    2    1    2    0    0 -0.65108688235E+02 -0.13567295497E+02  0.95034542313E+02  0.17052518106E+03  0.12499624135E+03 0.  0.
         25    2    1    2    0    0  0.65108688235E+02  0.13567295497E+02  0.13731856341E+03  0.19724357961E+03  0.12500171619E+03 0.  0.
          5    1    3    3  501    0 -0.11664796792E+02  0.41306849957E+02 -0.60594469012E+01  0.43601952185E+02  0.47000000000E+01 0. -1.
         -5    1    3    3    0  501 -0.53443891443E+02 -0.54874145454E+02  0.10109398921E+03  0.12692322887E+03  0.47000000000E+01 0. -1.
          5    1    4    4  502    0  0.32278157144E+02 -0.99303926381E+01 -0.16689564574E+02  0.37962134980E+02  0.47000000000E+01 0. -1.
         -5    1    4    4    0  502  0.32830531091E+02  0.23497688135E+02  0.15400812798E+03  0.15928144463E+03  0.47000000000E+01 0. -1.
<mgrwt>
<rscale>  0 0.28507174E+03</rscale>
<asrwt>0</asrwt>
<pdfrwt beam="1">  1       21 0.46163220E-01 0.28507174E+03</pdfrwt>
<pdfrwt beam="2">  1       21 0.10416589E-01 0.28507174E+03</pdfrwt>
<totfact> 0.33229522E+05</totfact>
</mgrwt>
</event>
<event>
 8    1  0.9974463E-006  0.2988908E+03  0.7546771E-02  0.1085796E+00
         21   -1    0    0  504  503  0.00000000000E+00  0.00000000000E+00  0.21358729598E+03  0.21358729598E+03  0.00000000000E+00 0. -1.
         21   -1    0    0  503  504 -0.00000000000E+00 -0.00000000000E+00 -0.10456581972E+03  0.10456581972E+03  0.00000000000E+00 0. -1.
         25    2    1    2    0    0 -0.47959650396E+02  0.48462938559E+01 -0.15971432517E+02  0.13492248876E+03  0.12500150674E+03 0.  0.
         25    2    1    2    0    0  0.47959650396E+02 -0.48462938559E+01  0.12499290878E+03  0.18323062693E+03  0.12500648291E+03 0.  0.
          5    1    3    3  501    0  0.22624185686E+02  0.44978745023E+02 -0.17692703350E+02  0.53572969244E+02  0.47000000000E+01 0.  1.
         -5    1    3    3    0  501 -0.70583836082E+02 -0.40132451167E+02  0.17212708322E+01  0.81349519519E+02  0.47000000000E+01 0.  1.
          5    1    4    4  502    0 -0.26069209589E+02  0.90545058082E+01 -0.90345126145E+01  0.29415985148E+02  0.47000000000E+01 0.  1.
         -5    1    4    4    0  502  0.74028859985E+02 -0.13900799664E+02  0.13402742139E+03  0.15381464178E+03  0.47000000000E+01 0.  1.
<mgrwt>
<rscale>  0 0.29889082E+03</rscale>
<asrwt>0</asrwt>
<pdfrwt beam="1">  1       21 0.32859584E-01 0.29889082E+03</pdfrwt>
<pdfrwt beam="2">  1       21 0.16087049E-01 0.29889082E+03</pdfrwt>
<totfact> 0.30032960E+05</totfact>
</mgrwt>
</event>
<event>
 8    1  0.9974463E-006  0.5016244E+03  0.7546771E-02  0.1013356E+00
         21   -1    0    0  504  503  0.00000000000E+00  0.00000000000E+00  0.16278526173E+03  0.16278526173E+03  0.00000000000E+00 0.  1.
         21   -1    0    0  503  504 -0.00000000000E+00 -0.00000000000E+00 -0.38644011613E+03  0.38644011613E+03  0.00000000000E+00 0.  1.
         25    2    1    2    0    0 -0.18819013630E+02  0.18862156606E+03  0.48140702103E+01  0.22711604608E+03  0.12500509054E+03 0.  0.
         25    2    1    2    0    0  0.18819013630E+02 -0.18862156606E+03 -0.22846892461E+03  0.32210933178E+03  0.12499648655E+03 0.  0.
          5    1    3    3  501    0 -0.68448161213E+02  0.10227989955E+03  0.24288311574E+02  0.12553222974E+03  0.47000000000E+01 0. -1.
         -5    1    3    3    0  501  0.49629147583E+02  0.86341666509E+02 -0.19474241364E+02  0.10158381634E+03  0.47000000000E+01 0. -1.
          5    1    4    4  502    0  0.27350643722E+02 -0.11432174425E+03 -0.48655973495E+02  0.12730676603E+03  0.47000000000E+01 0.  1.
         -5    1    4    4    0  502 -0.85316300920E+01 -0.74299821808E+02 -0.17981295112E+03  0.19480256575E+03  0.47000000000E+01 0.  1.
<mgrwt>
<rscale>  0 0.50162438E+03</rscale>
<asrwt>0</asrwt>
<pdfrwt beam="1">  1       21 0.25043887E-01 0.50162438E+03</pdfrwt>
<pdfrwt beam="2">  1       21 0.59452324E-01 0.50162438E+03</pdfrwt>
<totfact> 0.36091389E+04</totfact>
</mgrwt>
</event>
<event>
 8    1  0.9974463E-006  0.3696107E+03  0.7546771E-02  0.1054842E+00
         21   -1    0    0  504  503  0.00000000000E+00  0.00000000000E+00  0.41985548060E+03  0.41985548060E+03  0.00000000000E+00 0.  1.
         21   -1    0    0  503  504 -0.00000000000E+00 -0.00000000000E+00 -0.81344680793E+02  0.81344680793E+02  0.00000000000E+00 0.  1.
         25    2    1    2    0    0  0.10758282630E+03  0.23180126421E+02  0.60626992320E+02  0.17723330975E+03  0.12499852443E+03 0.  0.
         25    2    1    2    0    0 -0.10758282630E+03 -0.23180126421E+02  0.27788380748E+03  0.32396685164E+03  0.12499491080E+03 0.  0.
          5    1    3    3  501    0  0.53854401101E+01 -0.43528777430E+02  0.11467492178E+02  0.45577964046E+02  0.47000000000E+01 0.  1.
         -5    1    3    3    0  501  0.10219738619E+03  0.66708903851E+02  0.49159500141E+02  0.13165534570E+03  0.47000000000E+01 0.  1.
          5    1    4    4  502    0 -0.93769692637E+02  0.38473224240E+02  0.14781736113E+03  0.17929028555E+03  0.47000000000E+01 0.  1.
         -5    1    4    4    0  502 -0.13813133666E+02 -0.61653350661E+02  0.13006644636E+03  0.14467656610E+03  0.47000000000E+01 0.  1.
<mgrwt>
<rscale>  0 0.36961066E+03</rscale>
<asrwt>0</asrwt>
<pdfrwt beam="1">  1       21 0.64593149E-01 0.36961066E+03</pdfrwt>
<pdfrwt beam="2">  1       21 0.12514567E-01 0.36961066E+03</pdfrwt>
<totfact> 0.11414777E+05</totfact>
</mgrwt>
</event>
<event>
 8    1  0.9974463E-006  0.3049682E+03  0.7546771E-02  0.1082783E+00
         21   -1    0    0  504  503  0.00000000000E+00  0.00000000000E+00  0.10858489148E+03  0.10858489148E+03  0.00000000000E+00 0. -1.
         21   -1    0    0  503  504 -0.00000000000E+00 -0.00000000000E+00 -0.21413114874E+03  0.21413114874E+03  0.00000000000E+00 0. -1.
         25    2    1    2    0    0 -0.75002258250E+02  0.15929822745E+02 -0.85411467250E+01  0.14689261648E+03  0.12500156636E+03 0.  0.
         25    2    1    2    0    0  0.75002258250E+02 -0.15929822745E+02 -0.97005110534E+02  0.17582342373E+03  0.12499914747E+03 0.  0.
          5    1    3    3  501    0 -0.55163865853E+02 -0.35967312833E+02  0.36298349681E+02  0.75341621152E+02  0.47000000000E+01 0. -1.
         -5    1    3    3    0  501 -0.19838392397E+02  0.51897135578E+02 -0.44839496406E+02  0.71550995325E+02  0.47000000000E+01 0. -1.
          5    1    4    4  502    0  0.41973056743E+02  0.32594392301E+02 -0.10363902805E+03  0.11656444585E+03  0.47000000000E+01 0. -1.
         -5    1    4    4    0  502  0.33029201507E+02 -0.48524215046E+02  0.66339175159E+01  0.59258977882E+02  0.47000000000E+01 0. -1.
<mgrwt>
<rscale>  0 0.30496824E+03</rscale>
<asrwt>0</asrwt>
<pdfrwt beam="1">  1       21 0.16705368E-01 0.30496824E+03</pdfrwt>
<pdfrwt beam="2">  1       21 0.32943253E-01 0.30496824E+03</pdfrwt>
<totfact> 0.27831235E+05</totfact>
</mgrwt>
</event>
<event>
 8    1  0.9974463E-006  0.3776044E+03  0.7546771E-02  0.1051823E+00
         21   -1    0    0  504  503  0.00000000000E+00  0.00000000000E+00  0.14298787527E+03  0.14298787527E+03  0.00000000000E+00 0. -1.
         21   -1    0    0  503  504 -0.00000000000E+00 -0.00000000000E+00 -0.24929576251E+03  0.24929576251E+03  0.00000000000E+00 0. -1.
         25    2    1    2    0    0 -0.12609566402E+03  0.64214436204E+02 -0.54282193597E+02  0.19645495602E+03  0.12499753158E+03 0.  0.
         25    2    1    2    0    0  0.12609566402E+03 -0.64214436204E+02 -0.52025693639E+02  0.19582868177E+03  0.12497435538E+03 0.  0.
          5    1    3    3  501    0 -0.10070185623E+02  0.41082704932E+02 -0.64865131336E+02  0.77580748554E+02  0.47000000000E+01 0.  1.
         -5    1    3    3    0  501 -0.11602547840E+03  0.23131731272E+02  0.10582937739E+02  0.11887420746E+03  0.47000000000E+01 0.  1.
          5    1    4    4  502    0  0.13398515396E+03 -0.64770813973E+02 -0.78131994212E+02  0.16814867928E+03  0.47000000000E+01 0. -1.
         -5    1    4    4    0  502 -0.78894899435E+01  0.55637776867E+00  0.26106300573E+02  0.27680002482E+02  0.47000000000E+01 0. -1.
<mgrwt>
<rscale>  0 0.37760440E+03</rscale>
<asrwt>0</asrwt>
<pdfrwt beam="1">  1       21 0.21998135E-01 0.37760440E+03</pdfrwt>
<pdfrwt beam="2">  1       21 0.38353194E-01 0.37760440E+03</pdfrwt>
<totfact> 0.12016094E+05</totfact>
</mgrwt>
</event>
<event>
 8    1  0.9974463E-006  0.3835966E+03  0.7546771E-02  0.1049612E+00
         21   -1    0    0  504  503  0.00000000000E+00  0.00000000000E+00  0.12595934195E+04  0.12595934195E+04  0.00000000000E+00 0. -1.
         21   -1    0    0  503  504 -0.00000000000E+00 -0.00000000000E+00 -0.29205133619E+02  0.29205133619E+02  0.00000000000E+00 0. -1.
         25    2    1    2    0    0  0.69518774647E+02 -0.10723023189E+03  0.38168508910E+03  0.42147349610E+03  0.12500087205E+03 0.  0.
         25    2    1    2    0    0 -0.69518774647E+02  0.10723023189E+03  0.84870319683E+03  0.86732505707E+03  0.12499782258E+03 0.  0.
          5    1    3    3  501    0  0.21594276005E+02 -0.12432238559E+03  0.24663582491E+03  0.27708065332E+03  0.47000000000E+01 0.  1.
         -5    1    3    3    0  501  0.47924498641E+02  0.17092153700E+02  0.13504926419E+03  0.14439284278E+03  0.47000000000E+01 0.  1.
          5    1    4    4  502    0 -0.22860195496E+02  0.50499728258E+02  0.95408993213E+02  0.11044354702E+03  0.47000000000E+01 0.  1.
         -5    1    4    4    0  502 -0.46658579151E+02  0.56730503630E+02  0.75329420362E+03  0.75688151005E+03  0.47000000000E+01 0.  1.
<mgrwt>
<rscale>  0 0.38359663E+03</rscale>
<asrwt>0</asrwt>
<pdfrwt beam="1">  1       21 0.19378356E+00 0.38359663E+03</pdfrwt>
<pdfrwt beam="2">  1       21 0.44930984E-02 0.38359663E+03</pdfrwt>
<totfact> 0.43391562E+04</totfact>
</mgrwt>
</event>
<event>
 8    1  0.9974463E-006  0.2581462E+03  0.7546771E-02  0.1108262E+00
         21   -1    0    0  504  503  0.00000000000E+00  0.00000000000E+00  0.66904339343E+02  0.66904339343E+02  0.00000000000E+00 0. -1.
         21   -1    0    0  503  504 -0.00000000000E+00 -0.00000000000E+00 -0.24901013953E+03  0.24901013953E+03  0.00000000000E+00 0. -1.
         25    2    1    2    0    0 -0.20338026092E+02 -0.36232543606E+01 -0.60913138962E+02  0.14058592009E+03  0.12500890829E+03 0.  0.
         25    2    1    2    0    0  0.20338026092E+02  0.36232543606E+01 -0.12119266122E+03  0.17532855879E+03  0.12500271643E+03 0.  0.
          5    1    3    3  501    0  0.32888278698E+02  0.41852889296E+02 -0.41859303533E+02  0.67879264215E+02  0.47000000000E+01 0. -1.
         -5    1    3    3    0  501 -0.53226304789E+02 -0.45476143656E+02 -0.19053835429E+02  0.72706655871E+02  0.47000000000E+01 0. -1.
          5    1    4    4  502    0  0.51697047652E+02 -0.34797807113E+02 -0.25600688796E+02  0.67534860498E+02  0.47000000000E+01 0. -1.
         -5    1    4    4    0  502 -0.31359021560E+02  0.38421061473E+02 -0.95591972427E+02  0.10779369829E+03  0.47000000000E+01 0. -1.
<mgrwt>
<rscale>  0 0.25814615E+03</rscale>
<asrwt>0</asrwt>
<pdfrwt beam="1">  1       21 0.10292975E-01 0.25814615E+03</pdfrwt>
<pdfrwt beam="2">  1       21 0.38309253E-01 0.25814615E+03</pdfrwt>
<totfact> 0.50016363E+05</totfact>
</mgrwt>
</event>
<event>
 8    1  0.9974463E-006  0.3609371E+03  0.7546771E-02  0.1058213E+00
         21   -1    0    0  504  503  0.00000000000E+00  0.00000000000E+00  0.10408674467E+03  0.10408674467E+03  0.00000000000E+00 0. -1.
         21   -1    0    0  503  504 -0.00000000000E+00 -0.00000000000E+00 -0.31290157315E+03  0.31290157315E+03  0.00000000000E+00 0. -1.
         25    2    1    2    0    0 -0.12275670370E+03 -0.33843980622E+01 -0.54526645706E+02  0.18351234824E+03  0.12499185738E+03 0.  0.
         25    2    1    2    0    0  0.12275670370E+03  0.33843980622E+01 -0.15428818277E+03  0.23347596958E+03  0.12500209027E+03 0.  0.
          5    1    3    3  501    0 -0.31627684345E+02  0.12932337385E+02  0.38840116622E+02  0.51944204937E+02  0.47000000000E+01 0.  1.
         -5    1    3    3    0  501 -0.91129019359E+02 -0.16316735448E+02 -0.93366762328E+02  0.13156814330E+03  0.47000000000E+01 0.  1.
          5    1    4    4  502    0  0.78736424447E+02  0.55739085562E+02 -0.50239660687E+02  0.10886865343E+03  0.47000000000E+01 0.  1.
         -5    1    4    4    0  502  0.44020279258E+02 -0.52354687500E+02 -0.10404852208E+03  0.12460731614E+03  0.47000000000E+01 0.  1.
<mgrwt>
<rscale>  0 0.36093715E+03</rscale>
<asrwt>0</asrwt>
<pdfrwt beam="1">  1       21 0.16013345E-01 0.36093715E+03</pdfrwt>
<pdfrwt beam="2">  1       21 0.48138704E-01 0.36093715E+03</pdfrwt>
<totfact> 0.13696874E+05</totfact>
</mgrwt>
</event>
<event>
 8    1  0.9974463E-006  0.2740207E+03  0.7546771E-02  0.1099000E+00
         21   -1    0    0  504  503  0.00000000000E+00  0.00000000000E+00  0.45741144334E+03  0.45741144334E+03  0.00000000000E+00 0.  1.
         21   -1    0    0  503  504 -0.00000000000E+00 -0.00000000000E+00 -0.41039287771E+02  0.41039287771E+02  0.00000000000E+00 0.  1.
         25    2    1    2    0    0  0.40029466109E+02 -0.10705719131E+02  0.13936380674E+03  0.19174220962E+03  0.12500333492E+03 0.  0.
         25    2    1    2    0    0 -0.40029466109E+02  0.10705719131E+02  0.27700834883E+03  0.30670852150E+03  0.12497808311E+03 0.  0.
          5    1    3    3  501    0  0.50749753342E+02  0.46032870366E+02  0.48862796111E+02  0.84286567507E+02  0.47000000000E+01 0.  1.
         -5    1    3    3    0  501 -0.10720287233E+02 -0.56738589497E+02  0.90501010626E+02  0.10745564211E+03  0.47000000000E+01 0.  1.
          5    1    4    4  502    0 -0.57603083988E+02  0.88196468816E+01  0.28180144242E+03  0.28780209243E+03  0.47000000000E+01 0. -1.
         -5    1    4    4    0  502  0.17573617880E+02  0.18860722493E+01 -0.47930935891E+01  0.18906429067E+02  0.47000000000E+01 0. -1.
<mgrwt>
<rscale>  0 0.27402073E+03</rscale>
<asrwt>0</asrwt>
<pdfrwt beam="1">  1       21 0.70370988E-01 0.27402073E+03</pdfrwt>
<pdfrwt beam="2">  1       21 0.63137369E-02 0.27402073E+03</pdfrwt>
<totfact> 0.32429994E+05</totfact>
</mgrwt>
</event>
<event>
 8    1  0.9974463E-006  0.2665356E+03  0.7546771E-02  0.1103279E+00
         21   -1    0    0  504  503  0.00000000000E+00  0.00000000000E+00  0.58488958469E+02  0.58488958469E+02  0.00000000000E+00 0.  1.
         21   -1    0    0  503  504 -0.00000000000E+00 -0.00000000000E+00 -0.30365240316E+03  0.30365240316E+03  0.00000000000E+00 0.  1.
         25    2    1    2    0    0  0.40131727945E+02  0.37883205519E+01 -0.91990880873E+02  0.16036528532E+03  0.12501918097E+03 0.  0.
         25    2    1    2    0    0 -0.40131727945E+02 -0.37883205519E+01 -0.15317256382E+03  0.20177607631E+03  0.12500737460E+03 0.  0.
          5    1    3    3  501    0  0.21871053308E+02 -0.59163933952E+02 -0.29926106768E+02  0.69974108925E+02  0.47000000000E+01 0. -1.
         -5    1    3    3    0  501  0.18260674637E+02  0.62952254504E+02 -0.62064774105E+02  0.90391176395E+02  0.47000000000E+01 0. -1.
          5    1    4    4  502    0 -0.82243715655E+01  0.56894357935E+02 -0.97721571973E+02  0.11347336199E+03  0.47000000000E+01 0. -1.
         -5    1    4    4    0  502 -0.31907356380E+02 -0.60682678487E+02 -0.55450991845E+02  0.88302714319E+02  0.47000000000E+01 0. -1.
<mgrwt>
<rscale>  0 0.26653565E+03</rscale>
<asrwt>0</asrwt>
<pdfrwt beam="1">  1       21 0.89983012E-02 0.26653565E+03</pdfrwt>
<pdfrwt beam="2">  1       21 0.46715755E-01 0.26653565E+03</pdfrwt>
<totfact> 0.42197379E+05</totfact>
</mgrwt>
</event>
<event>
 8    1  0.9974463E-006  0.2902236E+03  0.7546771E-02  0.1090232E+00
         21   -1    0    0  504  503  0.00000000000E+00  0.00000000000E+00  0.13691372141E+03  0.13691372141E+03  0.00000000000E+00 0. -1.
         21   -1    0    0  503  504 -0.00000000000E+00 -0.00000000000E+00 -0.15380076721E+03  0.15380076721E+03  0.00000000000E+00 0. -1.
         25    2    1    2    0    0 -0.62121100834E+02 -0.34011524799E+02 -0.28879149858E+02  0.14654406655E+03  0.12500137262E+03 0.  0.
         25    2    1    2    0    0  0.62121100834E+02  0.34011524799E+02  0.11992104066E+02  0.14417042207E+03  0.12500194019E+03 0.  0.
          5    1    3    3  501    0  0.23544857718E+02 -0.43093398389E+02 -0.34326302274E+02  0.60098139218E+02  0.47000000000E+01 0. -1.
         -5    1    3    3    0  501 -0.85665958552E+02  0.90818735891E+01  0.54471524155E+01  0.86445927330E+02  0.47000000000E+01 0. -1.
          5    1    4    4  502    0 -0.16353131776E+02  0.41202875042E+02 -0.30983320148E+02  0.54287733034E+02  0.47000000000E+01 0.  1.
         -5    1    4    4    0  502  0.78474232610E+02 -0.71913502426E+01  0.42975424214E+02  0.89882689036E+02  0.47000000000E+01 0.  1.
<mgrwt>
<rscale>  0 0.29022361E+03</rscale>
<asrwt>0</asrwt>
<pdfrwt beam="1">  1       21 0.21063650E-01 0.29022361E+03</pdfrwt>
<pdfrwt beam="2">  1       21 0.23661656E-01 0.29022361E+03</pdfrwt>
<totfact> 0.34488262E+05</totfact>
</mgrwt>
</event>
<event>
 8    1  0.9974463E-006  0.3199334E+03  0.7546771E-02  0.1075680E+00
         21   -1    0    0  504  503  0.00000000000E+00  0.00000000000E+00  0.23548520438E+03  0.23548520438E+03  0.00000000000E+00 0.  1.
         21   -1    0    0  503  504 -0.00000000000E+00 -0.00000000000E+00 -0.10866649998E+03  0.10866649998E+03  0.00000000000E+00 0.  1.
         25    2    1    2    0    0 -0.34415388571E+02  0.93684352995E+02  0.64861994813E+02  0.17261102418E+03  0.12500524121E+03 0.  0.
         25    2    1    2    0    0  0.34415388571E+02 -0.93684352995E+02  0.61956709587E+02  0.17154068019E+03  0.12500557639E+03 0.  0.
          5    1    3    3  501    0  0.36697826095E+02  0.30905566720E+02 -0.12853345548E+02  0.49891712600E+02  0.47000000000E+01 0.  1.
         -5    1    3    3    0  501 -0.71113214666E+02  0.62778786275E+02  0.77715340361E+02  0.12271931158E+03  0.47000000000E+01 0.  1.
          5    1    4    4  502    0  0.71528564322E+02 -0.95240197068E+02  0.61419200865E+02  0.13409488762E+03  0.47000000000E+01 0. -1.
         -5    1    4    4    0  502 -0.37113175751E+02  0.15558440729E+01  0.53750872130E+00  0.37445792564E+02  0.47000000000E+01 0. -1.
<mgrwt>
<rscale>  0 0.31993345E+03</rscale>
<asrwt>0</asrwt>
<pdfrwt beam="1">  1       21 0.36228493E-01 0.31993345E+03</pdfrwt>
<pdfrwt beam="2">  1       21 0.16717923E-01 0.31993345E+03</pdfrwt>
<totfact> 0.22902685E+05</totfact>
</mgrwt>
</event>
<event>
 8    1  0.9974463E-006  0.2921286E+03  0.7546771E-02  0.1089243E+00
         21   -1    0    0  504  503  0.00000000000E+00  0.00000000000E+00  0.88513685558E+02  0.88513685558E+02  0.00000000000E+00 0. -1.
         21   -1    0    0  503  504 -0.00000000000E+00 -0.00000000000E+00 -0.24103370830E+03  0.24103370830E+03  0.00000000000E+00 0. -1.
         25    2    1    2    0    0 -0.57753438752E+01 -0.96305455907E+01 -0.16055423376E+03  0.20378496031E+03  0.12499818425E+03 0.  0.
         25    2    1    2    0    0  0.57753438752E+01  0.96305455907E+01  0.80342110231E+01  0.12576243354E+03  0.12500215653E+03 0.  0.
          5    1    3    3  501    0 -0.52552410287E+02 -0.61827890490E+01 -0.22118964875E+02  0.57544081490E+02  0.47000000000E+01 0. -1.
         -5    1    3    3    0  501  0.46777066412E+02 -0.34477565417E+01 -0.13843526889E+03  0.14624087882E+03  0.47000000000E+01 0. -1.
          5    1    4    4  502    0 -0.93471794556E+01 -0.11900816481E+02 -0.55031132798E+02  0.57267047888E+02  0.47000000000E+01 0.  1.
         -5    1    4    4    0  502  0.15122523331E+02  0.21531362072E+02  0.63065343822E+02  0.68495385654E+02  0.47000000000E+01 0.  1.
<mgrwt>
<rscale>  0 0.29212861E+03</rscale>
<asrwt>0</asrwt>
<pdfrwt beam="1">  1       21 0.13617490E-01 0.29212861E+03</pdfrwt>
<pdfrwt beam="2">  1       21 0.37082108E-01 0.29212861E+03</pdfrwt>
<totfact> 0.32053384E+05</totfact>
</mgrwt>
</event>
<event>
 8    1  0.9974463E-006  0.2646650E+03  0.7546771E-02  0.1104372E+00
         21   -1    0    0  504  503  0.00000000000E+00  0.00000000000E+00  0.97457600711E+03  0.97457600711E+03  0.00000000000E+00 0.  1.
         21   -1    0    0  503  504 -0.00000000000E+00 -0.00000000000E+00 -0.17968733667E+02  0.17968733667E+02  0.00000000000E+00 0.  1.
         25    2    1    2    0    0 -0.26341371882E+02  0.22217434080E+02  0.57750303208E+03  0.59188073317E+03  0.12500227191E+03 0.  0.
         25    2    1    2    0    0  0.26341371882E+02 -0.22217434080E+02  0.37910424136E+03  0.40066400761E+03  0.12499655565E+03 0.  0.
          5    1    3    3  501    0  0.37604718265E+02  0.46137059922E+02  0.22440509891E+03  0.23221214772E+03  0.47000000000E+01 0.  1.
         -5    1    3    3    0  501 -0.63946090146E+02 -0.23919625842E+02  0.35309793318E+03  0.35966858545E+03  0.47000000000E+01 0.  1.
          5    1    4    4  502    0  0.29705957792E+02 -0.12307325922E+02  0.14006809757E+02  0.35386366291E+02  0.47000000000E+01 0. -1.
         -5    1    4    4    0  502 -0.33645859103E+01 -0.99101081580E+01  0.36509743160E+03  0.36527764132E+03  0.47000000000E+01 0. -1.
<mgrwt>
<rscale>  0 0.26466505E+03</rscale>
<asrwt>0</asrwt>
<pdfrwt beam="1">  1       21 0.14993473E+00 0.26466505E+03</pdfrwt>
<pdfrwt beam="2">  1       21 0.27644213E-02 0.26466505E+03</pdfrwt>
<totfact> 0.21108474E+05</totfact>
</mgrwt>
</event>
<event>
 8    1  0.9974463E-006  0.2647871E+03  0.7546771E-02  0.1104301E+00
         21   -1    0    0  504  503  0.00000000000E+00  0.00000000000E+00  0.15886960923E+03  0.15886960923E+03  0.00000000000E+00 0. -1.
         21   -1    0    0  503  504 -0.00000000000E+00 -0.00000000000E+00 -0.11032977476E+03  0.11032977476E+03  0.00000000000E+00 0. -1.
         25    2    1    2    0    0  0.36444962935E+01 -0.10944749284E+02 -0.18498004169E+02  0.12689080957E+03  0.12500412595E+03 0.  0.
         25    2    1    2    0    0 -0.36444962935E+01  0.10944749284E+02  0.67037838637E+02  0.14230857443E+03  0.12499835462E+03 0.  0.
          5    1    3    3  501    0  0.56359560334E+02  0.17623719317E+02 -0.28807971050E+02  0.65870970235E+02  0.47000000000E+01 0. -1.
         -5    1    3    3    0  501 -0.52715064041E+02 -0.28568468602E+02  0.10309966881E+02  0.61019839332E+02  0.47000000000E+01 0. -1.
          5    1    4    4  502    0 -0.58832791947E+02 -0.15812337722E+02  0.18165926218E+02  0.63744947313E+02  0.47000000000E+01 0. -1.
         -5    1    4    4    0  502  0.55188295654E+02  0.26757087006E+02  0.48871912419E+02  0.78563627117E+02  0.47000000000E+01 0. -1.
<mgrwt>
<rscale>  0 0.26478707E+03</rscale>
<asrwt>0</asrwt>
<pdfrwt beam="1">  1       21 0.24441478E-01 0.26478707E+03</pdfrwt>
<pdfrwt beam="2">  1       21 0.16973811E-01 0.26478707E+03</pdfrwt>
<totfact> 0.48788178E+05</totfact>
</mgrwt>
</event>
<event>
 8    1  0.9974463E-006  0.2563537E+03  0.7546771E-02  0.1109354E+00
         21   -1    0    0  504  503  0.00000000000E+00  0.00000000000E+00  0.20014648114E+03  0.20014648114E+03  0.00000000000E+00 0. -1.
         21   -1    0    0  503  504 -0.00000000000E+00 -0.00000000000E+00 -0.82086414076E+02  0.82086414076E+02  0.00000000000E+00 0. -1.
         25    2    1    2    0    0  0.13842064432E+02  0.22783630737E+02  0.69705106123E+02  0.14557988283E+03  0.12499601549E+03 0.  0.
         25    2    1    2    0    0 -0.13842064432E+02 -0.22783630737E+02  0.48354960942E+02  0.13665301239E+03  0.12500058788E+03 0.  0.
          5    1    3    3  501    0 -0.33439871840E+02  0.59055092564E+02  0.37528521086E+02  0.77693042682E+02  0.47000000000E+01 0.  1.
         -5    1    3    3    0  501  0.47281936272E+02 -0.36271461826E+02  0.32176585037E+02  0.67886840148E+02  0.47000000000E+01 0.  1.
          5    1    4    4  502    0 -0.17949297811E+02  0.16147449991E+02  0.81508207343E+02  0.85138682732E+02  0.47000000000E+01 0.  1.
         -5    1    4    4    0  502  0.41072333794E+01 -0.38931080729E+02 -0.33153246401E+02  0.51514329654E+02  0.47000000000E+01 0.  1.
<mgrwt>
<rscale>  0 0.25635372E+03</rscale>
<asrwt>0</asrwt>
<pdfrwt beam="1">  1       21 0.30791766E-01 0.25635372E+03</pdfrwt>
<pdfrwt beam="2">  1       21 0.12628679E-01 0.25635372E+03</pdfrwt>
<totfact> 0.53589414E+05</totfact>
</mgrwt>
</event>
<event>
 8    1  0.9974463E-006  0.3067361E+03  0.7546771E-02  0.1081921E+00
         21   -1    0    0  504  503  0.00000000000E+00  0.00000000000E+00  0.90012850711E+01  0.90012850711E+01  0.00000000000E+00 0.  1.
         21   -1    0    0  503  504 -0.00000000000E+00 -0.00000000000E+00 -0.26131555079E+04  0.26131555079E+04  0.00000000000E+00 0.  1.
         25    2    1    2    0    0 -0.50108031182E+02 -0.57235930043E+02 -0.16948554221E+04  0.17011602565E+04  0.12499819982E+03 0.  0.
         25    2    1    2    0    0  0.50108031182E+02  0.57235930043E+02 -0.90929880069E+03  0.92099653645E+03  0.12499417877E+03 0.  0.
          5    1    3    3  501    0 -0.39994168607E+02  0.27523580458E+02 -0.32500995435E+03  0.32864972452E+03  0.47000000000E+01 0. -1.
         -5    1    3    3    0  501 -0.10113862574E+02 -0.84759510501E+02 -0.13698454678E+04  0.13725105320E+04  0.47000000000E+01 0. -1.
          5    1    4    4  502    0 -0.17099394356E+02  0.31739977478E+02 -0.67253604886E+03  0.67351810850E+03  0.47000000000E+01 0.  1.
         -5    1    4    4    0  502  0.67207425537E+02  0.25495952566E+02 -0.23676275183E+03  0.24747842795E+03  0.47000000000E+01 0.  1.
<mgrwt>
<rscale>  0 0.30673609E+03</rscale>
<asrwt>0</asrwt>
<pdfrwt beam="1">  1       21 0.13848125E-02 0.30673609E+03</pdfrwt>
<pdfrwt beam="2">  1       21 0.40202409E+00 0.30673609E+03</pdfrwt>
<totfact> 0.16923461E+04</totfact>
</mgrwt>
</event>
<event>
 8    1  0.9974463E-006  0.2724577E+03  0.7546771E-02  0.1099881E+00
         21   -1    0    0  504  503  0.00000000000E+00  0.00000000000E+00  0.12918921569E+03  0.12918921569E+03  0.00000000000E+00 0. -1.
         21   -1    0    0  503  504 -0.00000000000E+00 -0.00000000000E+00 -0.14365203786E+03  0.14365203786E+03  0.00000000000E+00 0. -1.
         25    2    1    2    0    0 -0.23763260533E+02 -0.28615622666E+02 -0.46660932236E+02  0.13851025946E+03  0.12499721183E+03 0.  0.
         25    2    1    2    0    0  0.23763260533E+02  0.28615622666E+02  0.32198110066E+02  0.13433099409E+03  0.12499820507E+03 0.  0.
          5    1    3    3  501    0 -0.63372367674E+02 -0.18240504383E+02 -0.65615374549E+02  0.93146338425E+02  0.47000000000E+01 0. -1.
         -5    1    3    3    0  501  0.39609107141E+02 -0.10375118283E+02  0.18954442313E+02  0.45363921031E+02  0.47000000000E+01 0. -1.
          5    1    4    4  502    0 -0.73286436412E+01 -0.33457890674E+02 -0.26288835141E+02  0.43431927416E+02  0.47000000000E+01 0.  1.
         -5    1    4    4    0  502  0.31091904174E+02  0.62073513340E+02  0.58486945207E+02  0.90899066679E+02  0.47000000000E+01 0.  1.
<mgrwt>
<rscale>  0 0.27245766E+03</rscale>
<asrwt>0</asrwt>
<pdfrwt beam="1">  1       21 0.19875264E-01 0.27245766E+03</pdfrwt>
<pdfrwt beam="2">  1       21 0.22100314E-01 0.27245766E+03</pdfrwt>
<totfact> 0.43984208E+05</totfact>
</mgrwt>
</event>
<event>
 8    1  0.9974463E-006  0.4697604E+03  0.7546771E-02  0.1021988E+00
         21   -1    0    0  504  503  0.00000000000E+00  0.00000000000E+00  0.34984971142E+03  0.34984971142E+03  0.00000000000E+00 0. -1.
         21   -1    0    0  503  504 -0.00000000000E+00 -0.00000000000E+00 -0.15769256884E+03  0.15769256884E+03  0.00000000000E+00 0. -1.
         25    2    1    2    0    0  0.99738316202E+02 -0.17169024728E+03  0.10795600178E+03  0.25826237523E+03  0.12497873183E+03 0.  0.
         25    2    1    2    0    0 -0.99738316202E+02  0.17169024728E+03  0.84201140799E+02  0.24927990503E+03  0.12500146483E+03 0.  0.
          5    1    3    3  501    0  0.92784304457E+01  0.14191033308E+02  0.34675365863E+02  0.38883745905E+02  0.47000000000E+01 0.  1.
         -5    1    3    3    0  501  0.90459885756E+02 -0.18588128059E+03  0.73280635919E+02  0.21937862933E+03  0.47000000000E+01 0.  1.
          5    1    4    4  502    0 -0.10304327580E+03  0.70314539521E+02  0.78740573337E+02  0.14759477987E+03  0.47000000000E+01 0. -1.
         -5    1    4    4    0  502  0.33049595947E+01  0.10137570776E+03  0.54605674623E+01  0.10168512516E+03  0.47000000000E+01 0. -1.
<mgrwt>
<rscale>  0 0.46976036E+03</rscale>
<asrwt>0</asrwt>
<pdfrwt beam="1">  1       21 0.53823033E-01 0.46976036E+03</pdfrwt>
<pdfrwt beam="2">  1       21 0.24260395E-01 0.46976036E+03</pdfrwt>
<totfact> 0.47977897E+04</totfact>
</mgrwt>
</event>
<event>
 8    1  0.9974463E-006  0.4247608E+03  0.7546771E-02  0.1035528E+00
         21   -1    0    0  504  503  0.00000000000E+00  0.00000000000E+00  0.89568967673E+02  0.89568967673E+02  0.00000000000E+00 0. -1.
         21   -1    0    0  503  504 -0.00000000000E+00 -0.00000000000E+00 -0.50358324743E+03  0.50358324743E+03  0.00000000000E+00 0. -1.
         25    2    1    2    0    0  0.16317453242E+03 -0.26660602726E+01 -0.28152215893E+03  0.34858764489E+03  0.12500233716E+03 0.  0.
         25    2    1    2    0    0 -0.16317453242E+03  0.26660602726E+01 -0.13249212083E+03  0.24456457021E+03  0.12499852404E+03 0.  0.
          5    1    3    3  501    0  0.15124172607E+03 -0.14517739003E+02 -0.29129800538E+03  0.32857486573E+03  0.47000000000E+01 0. -1.
         -5    1    3    3    0  501  0.11932806350E+02  0.11851678731E+02  0.97758464475E+01  0.20012779165E+02  0.47000000000E+01 0. -1.
          5    1    4    4  502    0 -0.16848322865E+03  0.33625995808E+02 -0.12322092519E+03  0.21147764028E+03  0.47000000000E+01 0. -1.
         -5    1    4    4    0  502  0.53086962283E+01 -0.30959935535E+02 -0.92711956349E+01  0.33086929934E+02  0.47000000000E+01 0. -1.
<mgrwt>
<rscale>  0 0.42476079E+03</rscale>
<asrwt>0</asrwt>
<pdfrwt beam="1">  1       21 0.13779841E-01 0.42476079E+03</pdfrwt>
<pdfrwt beam="2">  1       21 0.77474346E-01 0.42476079E+03</pdfrwt>
<totfact> 0.62787045E+04</totfact>
</mgrwt>
</event>
<event>
 8    1  0.9974463E-006  0.2720948E+03  0.7546771E-02  0.1100087E+00
         21   -1    0    0  504  503  0.00000000000E+00  0.00000000000E+00  0.38843719206E+02  0.38843719206E+02  0.00000000000E+00 0.  1.
         21   -1    0    0  503  504 -0.00000000000E+00 -0.00000000000E+00 -0.47649647800E+03  0.47649647800E+03  0.00000000000E+00 0.  1.
         25    2    1    2    0    0  0.18929798031E+02 -0.12868090303E+02 -0.31084500647E+03  0.33581517840E+03  0.12499316380E+03 0.  0.
         25    2    1    2    0    0 -0.18929798031E+02  0.12868090303E+02 -0.12680775232E+03  0.17952501880E+03  0.12500040530E+03 0.  0.
          5    1    3    3  501    0 -0.21804492278E+02 -0.25111741630E+02 -0.14817905922E+02  0.36710976385E+02  0.47000000000E+01 0.  1.
         -5    1    3    3    0  501  0.40734290308E+02  0.12243651327E+02 -0.29602710055E+03  0.29910420202E+03  0.47000000000E+01 0.  1.
          5    1    4    4  502    0 -0.64897382260E+02  0.23104078399E+02 -0.10885532096E+03  0.12890709664E+03  0.47000000000E+01 0. -1.
         -5    1    4    4    0  502  0.45967584229E+02 -0.10235988096E+02 -0.17952431360E+02  0.50617922161E+02  0.47000000000E+01 0. -1.
<mgrwt>
<rscale>  0 0.27209480E+03</rscale>
<asrwt>0</asrwt>
<pdfrwt beam="1">  1       21 0.59759564E-02 0.27209480E+03</pdfrwt>
<pdfrwt beam="2">  1       21 0.73307155E-01 0.27209480E+03</pdfrwt>
<totfact> 0.32560443E+05</totfact>
</mgrwt>
</event>
<event>
 8    1  0.9974463E-006  0.4272087E+03  0.7546771E-02  0.1034745E+00
         21   -1    0    0  504  503  0.00000000000E+00  0.00000000000E+00  0.39657886702E+02  0.39657886702E+02  0.00000000000E+00 0.  1.
         21   -1    0    0  503  504 -0.00000000000E+00 -0.00000000000E+00 -0.11505107321E+04  0.11505107321E+04  0.00000000000E+00 0.  1.
         25    2    1    2    0    0 -0.50841774832E+02  0.33247502448E+02 -0.10072905925E+04  0.10168337595E+04  0.12500509697E+03 0.  0.
         25    2    1    2    0    0  0.50841774832E+02 -0.33247502448E+02 -0.10356225292E+03  0.17333485930E+03  0.12501820161E+03 0.  0.
          5    1    3    3  501    0 -0.64248762712E+02  0.71324401114E+02 -0.78464937264E+03  0.79051363156E+03  0.47000000000E+01 0.  1.
         -5    1    3    3    0  501  0.13406987880E+02 -0.38076898666E+02 -0.22264121988E+03  0.22632012797E+03  0.47000000000E+01 0.  1.
          5    1    4    4  502    0 -0.12632970824E+02  0.23533223349E+02 -0.80546291225E+02  0.84989408653E+02  0.47000000000E+01 0.  1.
         -5    1    4    4    0  502  0.63474745656E+02 -0.56780725797E+02 -0.23015961692E+02  0.88345450651E+02  0.47000000000E+01 0.  1.
<mgrwt>
<rscale>  0 0.42720873E+03</rscale>
<asrwt>0</asrwt>
<pdfrwt beam="1">  1       21 0.61012134E-02 0.42720873E+03</pdfrwt>
<pdfrwt beam="2">  1       21 0.17700165E+00 0.42720873E+03</pdfrwt>
<totfact> 0.32953421E+04</totfact>
</mgrwt>
</event>
<event>
 8    1  0.9974463E-006  0.2576799E+03  0.7546771E-02  0.1108545E+00
         21   -1    0    0  504  503  0.00000000000E+00  0.00000000000E+00  0.20676742263E+03  0.20676742263E+03  0.00000000000E+00 0.  1.
         21   -1    0    0  503  504 -0.00000000000E+00 -0.00000000000E+00 -0.80282143083E+02  0.80282143083E+02  0.00000000000E+00 0.  1.
         25    2    1    2    0    0 -0.15110490159E+02 -0.27294314824E+02  0.60897945053E+02  0.14249777540E+03  0.12499499889E+03 0.  0.
         25    2    1    2    0    0  0.15110490159E+02  0.27294314824E+02  0.65587334493E+02  0.14455179031E+03  0.12498085894E+03 0.  0.
          5    1    3    3  501    0 -0.74529503100E+01 -0.51005912236E+02 -0.21677117279E+02  0.56117171747E+02  0.47000000000E+01 0.  1.
         -5    1    3    3    0  501 -0.76575398493E+01  0.23711597411E+02  0.82575062332E+02  0.86380603653E+02  0.47000000000E+01 0.  1.
          5    1    4    4  502    0 -0.27717055345E+02  0.30307732469E+02 -0.22048602352E+02  0.46851090383E+02  0.47000000000E+01 0.  1.
         -5    1    4    4    0  502  0.42827545504E+02 -0.30134176449E+01  0.87635936845E+02  0.97700699929E+02  0.47000000000E+01 0.  1.
<mgrwt>
<rscale>  0 0.25767989E+03</rscale>
<asrwt>0</asrwt>
<pdfrwt beam="1">  1       21 0.31810373E-01 0.25767989E+03</pdfrwt>
<pdfrwt beam="2">  1       21 0.12351099E-01 0.25767989E+03</pdfrwt>
<totfact> 0.52304605E+05</totfact>
</mgrwt>
</event>
<event>
 8    1  0.9974463E-006  0.3111980E+03  0.7546771E-02  0.1079773E+00
         21   -1    0    0  504  503  0.00000000000E+00  0.00000000000E+00  0.25367866322E+03  0.25367866322E+03  0.00000000000E+00 0.  1.
         21   -1    0    0  503  504 -0.00000000000E+00 -0.00000000000E+00 -0.95439827960E+02  0.95439827960E+02  0.00000000000E+00 0.  1.
         25    2    1    2    0    0 -0.56679879102E+02  0.31836809972E+02  0.15318886495E+03  0.20813381618E+03  0.12500666354E+03 0.  0.
         25    2    1    2    0    0  0.56679879102E+02 -0.31836809972E+02  0.50499703183E+01  0.14098467500E+03  0.12499994089E+03 0.  0.
          5    1    3    3  501    0 -0.68122067660E+02  0.56884623277E+02  0.51585728545E+02  0.10276017642E+03  0.47000000000E+01 0.  1.
         -5    1    3    3    0  501  0.11442188558E+02 -0.25047813305E+02  0.10160313640E+03  0.10537363976E+03  0.47000000000E+01 0.  1.
          5    1    4    4  502    0  0.23508576248E+02 -0.57850923186E+02 -0.43702127617E+02  0.76363266227E+02  0.47000000000E+01 0.  1.
         -5    1    4    4    0  502  0.33171302854E+02  0.26014113214E+02  0.48752097935E+02  0.64621408777E+02  0.47000000000E+01 0.  1.
<mgrwt>
<rscale>  0 0.31119799E+03</rscale>
<asrwt>0</asrwt>
<pdfrwt beam="1">  1       21 0.39027486E-01 0.31119799E+03</pdfrwt>
<pdfrwt beam="2">  1       21 0.14683051E-01 0.31119799E+03</pdfrwt>
<totfact> 0.25079336E+05</totfact>
</mgrwt>
</event>
<event>
 8    1  0.9974463E-006  0.3795104E+03  0.7546771E-02  0.1051115E+00
         21   -1    0    0  504  503  0.00000000000E+00  0.00000000000E+00  0.13353074571E+03  0.13353074571E+03  0.00000000000E+00 0. -1.
         21   -1    0    0  503  504 -0.00000000000E+00 -0.00000000000E+00 -0.26965355329E+03  0.26965355329E+03  0.00000000000E+00 0. -1.
         25    2    1    2    0    0 -0.12606531884E+03 -0.58818026544E+02 -0.33956778412E+02  0.19008506038E+03  0.12500896975E+03 0.  0.
         25    2    1    2    0    0  0.12606531884E+03  0.58818026544E+02 -0.10216602917E+03  0.21309923862E+03  0.12498545165E+03 0.  0.
          5    1    3    3  501    0 -0.13787860322E+03 -0.49255359094E+02 -0.61022809839E+02  0.15868986403E+03  0.47000000000E+01 0.  1.
         -5    1    3    3    0  501  0.11813284378E+02 -0.95626674501E+01  0.27066031427E+02  0.31395196349E+02  0.47000000000E+01 0.  1.
          5    1    4    4  502    0  0.13137452481E+03  0.40666292446E+02 -0.33365728127E+02  0.14159228412E+03  0.47000000000E+01 0. -1.
         -5    1    4    4    0  502 -0.53092059660E+01  0.18151734099E+02 -0.68800301043E+02  0.71506954504E+02  0.47000000000E+01 0. -1.
<mgrwt>
<rscale>  0 0.37951042E+03</rscale>
<asrwt>0</asrwt>
<pdfrwt beam="1">  1       21 0.20543192E-01 0.37951042E+03</pdfrwt>
<pdfrwt beam="2">  1       21 0.41485162E-01 0.37951042E+03</pdfrwt>
<totfact> 0.11650381E+05</totfact>
</mgrwt>
</event>
<event>
 8    1  0.9974463E-006  0.2652321E+03  0.7546771E-02  0.1104040E+00
         21   -1    0    0  504  503  0.00000000000E+00  0.00000000000E+00  0.18429916042E+03  0.18429916042E+03  0.00000000000E+00 0.  1.
         21   -1    0    0  503  504 -0.00000000000E+00 -0.00000000000E+00 -0.95426470710E+02  0.95426470710E+02  0.00000000000E+00 0.  1.
         25    2    1    2    0    0  0.15648977936E+02  0.20748034796E+02  0.82272744963E+02  0.15188621221E+03  0.12500098174E+03 0.  0.
         25    2    1    2    0    0 -0.15648977936E+02 -0.20748034796E+02  0.65999447519E+01  0.12783941893E+03  0.12499594515E+03 0.  0.
          5    1    3    3  501    0 -0.50341524801E+02  0.32991791289E+02  0.37553561523E+02  0.71099137793E+02  0.47000000000E+01 0.  1.
         -5    1    3    3    0  501  0.65990502737E+02 -0.12243756494E+02  0.44719183441E+02  0.80787074413E+02  0.47000000000E+01 0.  1.
          5    1    4    4  502    0 -0.10862116119E+01  0.50219956050E+02 -0.14031037162E+02  0.52365865267E+02  0.47000000000E+01 0. -1.
         -5    1    4    4    0  502 -0.14562766324E+02 -0.70967990846E+02  0.20630981914E+02  0.75473553662E+02  0.47000000000E+01 0. -1.
<mgrwt>
<rscale>  0 0.26523211E+03</rscale>
<asrwt>0</asrwt>
<pdfrwt beam="1">  1       21 0.28353717E-01 0.26523211E+03</pdfrwt>
<pdfrwt beam="2">  1       21 0.14680996E-01 0.26523211E+03</pdfrwt>
<totfact> 0.47821908E+05</totfact>
</mgrwt>
</event>
<event>
 8    1  0.9974463E-006  0.3505066E+03  0.7546771E-02  0.1062407E+00
         21   -1    0    0  504  503  0.00000000000E+00  0.00000000000E+00  0.11510574992E+03  0.11510574992E+03  0.00000000000E+00 0.  1.
         21   -1    0    0  503  504 -0.00000000000E+00 -0.00000000000E+00 -0.26683047165E+03  0.26683047165E+03  0.00000000000E+00 0.  1.
         25    2    1    2    0    0 -0.85400796360E+02  0.46021374965E+02  0.62426489253E+01  0.15835257923E+03  0.12500122284E+03 0.  0.
         25    2    1    2    0    0  0.85400796360E+02 -0.46021374965E+02 -0.15796737065E+03  0.22358364233E+03  0.12499876781E+03 0.  0.
          5    1    3    3  501    0 -0.21167514753E+02  0.51062216105E+02  0.54460845344E+02  0.77739869243E+02  0.47000000000E+01 0. -1.
         -5    1    3    3    0  501 -0.64233281607E+02 -0.50408411397E+01 -0.48218196419E+02  0.80612709986E+02  0.47000000000E+01 0. -1.
          5    1    4    4  502    0  0.54899852919E+02 -0.86652318950E+02 -0.78967891566E+02  0.12954009467E+03  0.47000000000E+01 0. -1.
         -5    1    4    4    0  502  0.30500943442E+02  0.40630943985E+02 -0.78999479088E+02  0.94043547658E+02  0.47000000000E+01 0. -1.
<mgrwt>
<rscale>  0 0.35050661E+03</rscale>
<asrwt>0</asrwt>
<pdfrwt beam="1">  1       21 0.17708577E-01 0.35050661E+03</pdfrwt>
<pdfrwt beam="2">  1       21 0.41050842E-01 0.35050661E+03</pdfrwt>
<totfact> 0.15849984E+05</totfact>
</mgrwt>
</event>
<event>
 8    1  0.9974463E-006  0.2564586E+03  0.7546771E-02  0.1109290E+00
         21   -1    0    0  504  503  0.00000000000E+00  0.00000000000E+00  0.10574929240E+03  0.10574929240E+03  0.00000000000E+00 0. -1.
         21   -1    0    0  503  504 -0.00000000000E+00 -0.00000000000E+00 -0.15548810824E+03  0.15548810824E+03  0.00000000000E+00 0. -1.
         25    2    1    2    0    0  0.32887814983E+01 -0.27343367584E+02 -0.17032083781E+02  0.12912745542E+03  0.12500132812E+03 0.  0.
         25    2    1    2    0    0 -0.32887814983E+01  0.27343367584E+02 -0.32706732052E+02  0.13210994522E+03  0.12499932588E+03 0.  0.
          5    1    3    3  501    0  0.15996796684E+01 -0.71235186154E+02  0.16952249832E+02  0.73392639249E+02  0.47000000000E+01 0.  1.
         -5    1    3    3    0  501  0.16891018299E+01  0.43891818571E+02 -0.33984333614E+02  0.55734816171E+02  0.47000000000E+01 0.  1.
          5    1    4    4  502    0 -0.12156412118E+02 -0.43216736630E+02  0.13568358683E+02  0.47134435797E+02  0.47000000000E+01 0. -1.
         -5    1    4    4    0  502  0.88676306197E+01  0.70560104213E+02 -0.46275090735E+02  0.84975509425E+02  0.47000000000E+01 0. -1.
<mgrwt>
<rscale>  0 0.25645863E+03</rscale>
<asrwt>0</asrwt>
<pdfrwt beam="1">  1       21 0.16269122E-01 0.25645863E+03</pdfrwt>
<pdfrwt beam="2">  1       21 0.23921247E-01 0.25645863E+03</pdfrwt>
<totfact> 0.55065898E+05</totfact>
</mgrwt>
</event>
<event>
 8    1  0.9974463E-006  0.2781719E+03  0.7546771E-02  0.1096692E+00
         21   -1    0    0  504  503  0.00000000000E+00  0.00000000000E+00  0.22393451320E+02  0.22393451320E+02  0.00000000000E+00 0. -1.
         21   -1    0    0  503  504 -0.00000000000E+00 -0.00000000000E+00 -0.86386404692E+03  0.86386404692E+03  0.00000000000E+00 0. -1.
         25    2    1    2    0    0  0.31547896179E+02 -0.31868535143E+02 -0.28917543162E+03  0.31821883200E+03  0.12501968446E+03 0.  0.
         25    2    1    2    0    0 -0.31547896179E+02  0.31868535143E+02 -0.55229516397E+03  0.56803866623E+03  0.12500841932E+03 0.  0.
          5    1    3    3  501    0  0.55100351194E+02 -0.13442698814E+02 -0.46028143979E+02  0.73194500417E+02  0.47000000000E+01 0. -1.
         -5    1    3    3    0  501 -0.23552455014E+02 -0.18425836329E+02 -0.24314728764E+03  0.24502433159E+03  0.47000000000E+01 0. -1.
          5    1    4    4  502    0 -0.39379399370E+02  0.76025169499E+02 -0.40581793843E+03  0.41477807637E+03  0.47000000000E+01 0. -1.
         -5    1    4    4    0  502  0.78315031904E+01 -0.44156634356E+02 -0.14647722555E+03  0.15326058986E+03  0.47000000000E+01 0. -1.
<mgrwt>
<rscale>  0 0.27817187E+03</rscale>
<asrwt>0</asrwt>
<pdfrwt beam="1">  1       21 0.34451463E-02 0.27817187E+03</pdfrwt>
<pdfrwt beam="2">  1       21 0.13290216E+00 0.27817187E+03</pdfrwt>
<totfact> 0.19963702E+05</totfact>
</mgrwt>
</event>
<event>
 8    1  0.9974463E-006  0.3774276E+03  0.7546771E-02  0.1051889E+00
         21   -1    0    0  504  503  0.00000000000E+00  0.00000000000E+00  0.12548865954E+03  0.12548865954E+03  0.00000000000E+00 0.  1.
         21   -1    0    0  503  504 -0.00000000000E+00 -0.00000000000E+00 -0.28379382337E+03  0.28379382337E+03  0.00000000000E+00 0.  1.
         25    2    1    2    0    0  0.81500179030E+02 -0.18799734044E+02  0.44451934525E+02  0.15683299998E+03  0.12499962486E+03 0.  0.
         25    2    1    2    0    0 -0.81500179030E+02  0.18799734044E+02 -0.20275709836E+03  0.25244948293E+03  0.12499836525E+03 0.  0.
          5    1    3    3  501    0  0.11359364840E+03 -0.21670619956E+02  0.23462919310E+02  0.11809204591E+03  0.47000000000E+01 0. -1.
         -5    1    3    3    0  501 -0.32093469367E+02  0.28708859125E+01  0.20989015215E+02  0.38740954062E+02  0.47000000000E+01 0. -1.
          5    1    4    4  502    0  0.29223688208E+01 -0.26063791435E+02 -0.12869388357E+03  0.13142323665E+03  0.47000000000E+01 0. -1.
         -5    1    4    4    0  502 -0.84422547850E+02  0.44863525479E+02 -0.74063214789E+02  0.12102624628E+03  0.47000000000E+01 0. -1.
<mgrwt>
<rscale>  0 0.37742764E+03</rscale>
<asrwt>0</asrwt>
<pdfrwt beam="1">  1       21 0.19305948E-01 0.37742764E+03</pdfrwt>
<pdfrwt beam="2">  1       21 0.43660587E-01 0.37742764E+03</pdfrwt>
<totfact> 0.11795498E+05</totfact>
</mgrwt>
</event>
<event>
 8    1  0.9974463E-006  0.2802507E+03  0.7546771E-02  0.1095552E+00
         21   -1    0    0  504  503  0.00000000000E+00  0.00000000000E+00  0.41789692682E+03  0.41789692682E+03  0.00000000000E+00 0.  1.
         21   -1    0    0  503  504 -0.00000000000E+00 -0.00000000000E+00 -0.46985530730E+02  0.46985530730E+02  0.00000000000E+00 0.  1.
         25    2    1    2    0    0 -0.42188485713E+02 -0.26136712870E+02  0.12022266578E+03  0.18039204928E+03  0.12499922396E+03 0.  0.
         25    2    1    2    0    0  0.42188485713E+02  0.26136712870E+02  0.25068873031E+03  0.28449040827E+03  0.12500782698E+03 0.  0.
          5    1    3    3  501    0 -0.29595240226E+02 -0.57936637270E+02  0.12918963047E+03  0.14472243365E+03  0.47000000000E+01 0.  1.
         -5    1    3    3    0  501 -0.12593245487E+02  0.31799924399E+02 -0.89669646829E+01  0.35669615632E+02  0.47000000000E+01 0.  1.
          5    1    4    4  502    0  0.48644012403E+02 -0.28702571596E+02  0.47714012404E+02  0.74086399147E+02  0.47000000000E+01 0. -1.
         -5    1    4    4    0  502 -0.64555266900E+01  0.54839284466E+02  0.20297471790E+03  0.21040400912E+03  0.47000000000E+01 0. -1.
<mgrwt>
<rscale>  0 0.28025067E+03</rscale>
<asrwt>0</asrwt>
<pdfrwt beam="1">  1       21 0.64291832E-01 0.28025067E+03</pdfrwt>
<pdfrwt beam="2">  1       21 0.72285435E-02 0.28025067E+03</pdfrwt>
<totfact> 0.31259582E+05</totfact>
</mgrwt>
</event>
<event>
 8    1  0.9974463E-006  0.2780482E+03  0.7546771E-02  0.1096760E+00
         21   -1    0    0  504  503  0.00000000000E+00  0.00000000000E+00  0.85128498881E+02  0.85128498881E+02  0.00000000000E+00 0. -1.
         21   -1    0    0  503  504 -0.00000000000E+00 -0.00000000000E+00 -0.22704151130E+03  0.22704151130E+03  0.00000000000E+00 0. -1.
         25    2    1    2    0    0 -0.37279484397E+02  0.41666346908E+02 -0.44035692418E+02  0.14384325527E+03  0.12500358179E+03 0.  0.
         25    2    1    2    0    0  0.37279484397E+02 -0.41666346908E+02 -0.97877320005E+02  0.16832675491E+03  0.12501232830E+03 0.  0.
          5    1    3    3  501    0 -0.84931889815E+01 -0.38128902835E+02 -0.43809689136E+02  0.58884007614E+02  0.47000000000E+01 0. -1.
         -5    1    3    3    0  501 -0.28786295416E+02  0.79795249743E+02 -0.22600328175E+00  0.84959247659E+02  0.47000000000E+01 0. -1.
          5    1    4    4  502    0 -0.42593902741E+02 -0.25866862981E+02 -0.15482273317E+02  0.52393949443E+02  0.47000000000E+01 0. -1.
         -5    1    4    4    0  502  0.79873387138E+02 -0.15799483928E+02 -0.82395046688E+02  0.11593280547E+03  0.47000000000E+01 0. -1.
<mgrwt>
<rscale>  0 0.27804822E+03</rscale>
<asrwt>0</asrwt>
<pdfrwt beam="1">  1       21 0.13096692E-01 0.27804822E+03</pdfrwt>
<pdfrwt beam="2">  1       21 0.34929463E-01 0.27804822E+03</pdfrwt>
<totfact> 0.38912283E+05</totfact>
</mgrwt>
</event>
<event>
 8    1  0.9974463E-006  0.2660930E+03  0.7546771E-02  0.1103537E+00
         21   -1    0    0  504  503  0.00000000000E+00  0.00000000000E+00  0.30925051606E+03  0.30925051606E+03  0.00000000000E+00 0. -1.
         21   -1    0    0  503  504 -0.00000000000E+00 -0.00000000000E+00 -0.57239584229E+02  0.57239584229E+02  0.00000000000E+00 0. -1.
         25    2    1    2    0    0 -0.69659217231E+01  0.40689574024E+02  0.99474067521E+02  0.16499837545E+03  0.12500083317E+03 0.  0.
         25    2    1    2    0    0  0.69659217231E+01 -0.40689574024E+02  0.15253686431E+03  0.20149172484E+03  0.12500901850E+03 0.  0.
          5    1    3    3  501    0  0.57841534948E+02  0.27830248147E+02  0.38670677380E+02  0.75084466876E+02  0.47000000000E+01 0. -1.
         -5    1    3    3    0  501 -0.64807456671E+02  0.12859325877E+02  0.60803390142E+02  0.89913908573E+02  0.47000000000E+01 0. -1.
          5    1    4    4  502    0  0.17946820532E+02  0.43112192398E+02  0.51380863072E+02  0.69590463360E+02  0.47000000000E+01 0. -1.
         -5    1    4    4    0  502 -0.10980898809E+02 -0.83801766421E+02  0.10115600124E+03  0.13190126148E+03  0.47000000000E+01 0. -1.
<mgrwt>
<rscale>  0 0.26609300E+03</rscale>
<asrwt>0</asrwt>
<pdfrwt beam="1">  1       21 0.47577002E-01 0.26609300E+03</pdfrwt>
<pdfrwt beam="2">  1       21 0.88060900E-02 0.26609300E+03</pdfrwt>
<totfact> 0.42203222E+05</totfact>
</mgrwt>
</event>
<event>
 8    1  0.9974463E-006  0.3566258E+03  0.7546771E-02  0.1059928E+00
         21   -1    0    0  504  503  0.00000000000E+00  0.00000000000E+00  0.10578671692E+03  0.10578671692E+03  0.00000000000E+00 0. -1.
         21   -1    0    0  503  504 -0.00000000000E+00 -0.00000000000E+00 -0.30056217766E+03  0.30056217766E+03  0.00000000000E+00 0. -1.
         25    2    1    2    0    0  0.55321109333E+02 -0.55245122180E+02 -0.21165714974E+03  0.25794689612E+03  0.12500161406E+03 0.  0.
         25    2    1    2    0    0 -0.55321109333E+02  0.55245122180E+02  0.16881689003E+02  0.14840199846E+03  0.12500285221E+03 0.  0.
          5    1    3    3  501    0  0.72586155693E+02 -0.43962193747E+02 -0.21950478191E+03  0.23538450195E+03  0.47000000000E+01 0.  1.
         -5    1    3    3    0  501 -0.17265046361E+02 -0.11282928433E+02  0.78476321696E+01  0.22562394166E+02  0.47000000000E+01 0.  1.
          5    1    4    4  502    0 -0.29822893045E+02  0.85685243382E+02 -0.21084628255E+02  0.93263162244E+02  0.47000000000E+01 0.  1.
         -5    1    4    4    0  502 -0.25498216288E+02 -0.30440121202E+02  0.37966317258E+02  0.55138836212E+02  0.47000000000E+01 0.  1.
<mgrwt>
<rscale>  0 0.35662578E+03</rscale>
<asrwt>0</asrwt>
<pdfrwt beam="1">  1       21 0.16274880E-01 0.35662578E+03</pdfrwt>
<pdfrwt beam="2">  1       21 0.46240335E-01 0.35662578E+03</pdfrwt>
<totfact> 0.14474889E+05</totfact>
</mgrwt>
</event>
<event>
 8    1  0.9974463E-006  0.2938926E+03  0.7546771E-02  0.1088334E+00
         21   -1    0    0  504  503  0.00000000000E+00  0.00000000000E+00  0.28458790348E+03  0.28458790348E+03  0.00000000000E+00 0. -1.
         21   -1    0    0  503  504 -0.00000000000E+00 -0.00000000000E+00 -0.75875398195E+02  0.75875398195E+02  0.00000000000E+00 0. -1.
         25    2    1    2    0    0  0.64253064334E+02 -0.10498947602E+02  0.53342273328E+02  0.15069174217E+03  0.12499567536E+03 0.  0.
         25    2    1    2    0    0 -0.64253064334E+02  0.10498947602E+02  0.15537023195E+03  0.20977155950E+03  0.12500205607E+03 0.  0.
          5    1    3    3  501    0  0.42591552212E+02  0.38391923706E+02  0.73509811189E+02  0.93347535943E+02  0.47000000000E+01 0. -1.
         -5    1    3    3    0  501  0.21661512122E+02 -0.48890871308E+02 -0.20167537861E+02  0.57344206228E+02  0.47000000000E+01 0. -1.
          5    1    4    4  502    0 -0.45827319111E+02  0.44050413972E+02  0.16773373440E+02  0.65909166317E+02  0.47000000000E+01 0. -1.
         -5    1    4    4    0  502 -0.18425745222E+02 -0.33551466370E+02  0.13859685851E+03  0.14386239318E+03  0.47000000000E+01 0. -1.
<mgrwt>
<rscale>  0 0.29389264E+03</rscale>
<asrwt>0</asrwt>
<pdfrwt beam="1">  1       21 0.43782754E-01 0.29389264E+03</pdfrwt>
<pdfrwt beam="2">  1       21 0.11673138E-01 0.29389264E+03</pdfrwt>
<totfact> 0.30176783E+05</totfact>
</mgrwt>
</event>
<event>
 8    1  0.9974463E-006  0.2961158E+03  0.7546771E-02  0.1087199E+00
         21   -1    0    0  504  503  0.00000000000E+00  0.00000000000E+00  0.12978384807E+04  0.12978384807E+04  0.00000000000E+00 0.  1.
         21   -1    0    0  503  504 -0.00000000000E+00 -0.00000000000E+00 -0.16890499937E+02  0.16890499937E+02  0.00000000000E+00 0.  1.
         25    2    1    2    0    0  0.52262519670E+02  0.35240823980E+02  0.42635685783E+03  0.44875250050E+03  0.12500139939E+03 0.  0.
         25    2    1    2    0    0 -0.52262519670E+02 -0.35240823980E+02  0.85459112291E+03  0.86597648012E+03  0.12496395527E+03 0.  0.
          5    1    3    3  501    0  0.37691544724E+02 -0.32159118251E+02  0.30550294331E+03  0.30953028898E+03  0.47000000000E+01 0.  1.
         -5    1    3    3    0  501  0.14570974946E+02  0.67399942231E+02  0.12085391453E+03  0.13922221152E+03  0.47000000000E+01 0.  1.
          5    1    4    4  502    0  0.40248823135E+02 -0.58372899597E+01  0.19383062049E+03  0.19810714565E+03  0.47000000000E+01 0.  1.
         -5    1    4    4    0  502 -0.92511342805E+02 -0.29403534021E+02  0.66076050243E+03  0.66786933447E+03  0.47000000000E+01 0.  1.
<mgrwt>
<rscale>  0 0.29611579E+03</rscale>
<asrwt>0</asrwt>
<pdfrwt beam="1">  1       21 0.19966738E+00 0.29611579E+03</pdfrwt>
<pdfrwt beam="2">  1       21 0.25985395E-02 0.29611579E+03</pdfrwt>
<totfact> 0.10296574E+05</totfact>
</mgrwt>
</event>
<event>
 8    1  0.9974463E-006  0.3688610E+03  0.7546771E-02  0.1055129E+00
         21   -1    0    0  504  503  0.00000000000E+00  0.00000000000E+00  0.12675702535E+03  0.12675702535E+03  0.00000000000E+00 0. -1.
         21   -1    0    0  503  504 -0.00000000000E+00 -0.00000000000E+00 -0.26834492090E+03  0.26834492090E+03  0.00000000000E+00 0. -1.
         25    2    1    2    0    0  0.74051984676E+01  0.89820708099E+02  0.37732552008E+02  0.15865961607E+03  0.12500612675E+03 0.  0.
         25    2    1    2    0    0 -0.74051984676E+01 -0.89820708099E+02 -0.17932044756E+03  0.23644233017E+03  0.12500622391E+03 0.  0.
          5    1    3    3  501    0  0.33174924724E+01 -0.29855006822E+02 -0.61869524792E+01  0.31027335845E+02  0.47000000000E+01 0. -1.
         -5    1    3    3    0  501  0.40877059952E+01  0.11967571492E+03  0.43919504487E+02  0.12763228023E+03  0.47000000000E+01 0. -1.
          5    1    4    4  502    0  0.22657192625E+02 -0.92515689355E+02 -0.58631147933E+02  0.11194732093E+03  0.47000000000E+01 0. -1.
         -5    1    4    4    0  502 -0.30062391093E+02  0.26949812560E+01 -0.12068929963E+03  0.12449500925E+03  0.47000000000E+01 0. -1.
<mgrwt>
<rscale>  0 0.36886097E+03</rscale>
<asrwt>0</asrwt>
<pdfrwt beam="1">  1       21 0.19501081E-01 0.36886097E+03</pdfrwt>
<pdfrwt beam="2">  1       21 0.41283834E-01 0.36886097E+03</pdfrwt>
<totfact> 0.13017861E+05</totfact>
</mgrwt>
</event>
<event>
 8    1  0.9974463E-006  0.3329611E+03  0.7546771E-02  0.1069834E+00
         21   -1    0    0  504  503  0.00000000000E+00  0.00000000000E+00  0.57965361222E+02  0.57965361222E+02  0.00000000000E+00 0. -1.
         21   -1    0    0  503  504 -0.00000000000E+00 -0.00000000000E+00 -0.47814370357E+03  0.47814370357E+03  0.00000000000E+00 0. -1.
         25    2    1    2    0    0  0.13410371999E+02 -0.76601137966E+02 -0.84918833362E+02  0.16995110472E+03  0.12499838928E+03 0.  0.
         25    2    1    2    0    0 -0.13410371999E+02  0.76601137966E+02 -0.33525950899E+03  0.36615796007E+03  0.12500056376E+03 0.  0.
          5    1    3    3  501    0 -0.39369106771E+02  0.12976282156E+02 -0.13980959615E+02  0.43998496546E+02  0.47000000000E+01 0.  1.
         -5    1    3    3    0  501  0.52779478770E+02 -0.89577420122E+02 -0.70937873747E+02  0.12595260818E+03  0.47000000000E+01 0.  1.
          5    1    4    4  502    0 -0.35078782299E+02 -0.11147279903E+02 -0.19998733581E+03  0.20340060792E+03  0.47000000000E+01 0. -1.
         -5    1    4    4    0  502  0.21668410300E+02  0.87748417869E+02 -0.13527217317E+03  0.16275735215E+03  0.47000000000E+01 0. -1.
<mgrwt>
<rscale>  0 0.33296109E+03</rscale>
<asrwt>0</asrwt>
<pdfrwt beam="1">  1       21 0.89177479E-02 0.33296109E+03</pdfrwt>
<pdfrwt beam="2">  1       21 0.73560570E-01 0.33296109E+03</pdfrwt>
<totfact> 0.15827679E+05</totfact>
</mgrwt>
</event>
<event>
 8    1  0.9974463E-006  0.3399563E+03  0.7546771E-02  0.1066815E+00
         21   -1    0    0  504  503  0.00000000000E+00  0.00000000000E+00  0.61878055881E+02  0.61878055881E+02  0.00000000000E+00 0.  1.
         21   -1    0    0  503  504 -0.00000000000E+00 -0.00000000000E+00 -0.46692769316E+03  0.46692769316E+03  0.00000000000E+00 0.  1.
         25    2    1    2    0    0 -0.87899483873E+02 -0.49359082541E+02 -0.28918635549E+03  0.33078147608E+03  0.12499999370E+03 0.  0.
         25    2    1    2    0    0  0.87899483873E+02  0.49359082541E+02 -0.11586328179E+03  0.19802427296E+03  0.12500669709E+03 0.  0.
          5    1    3    3  501    0 -0.21638402086E+02  0.17586629056E+02 -0.19659003079E+03  0.19861329304E+03  0.47000000000E+01 0.  1.
         -5    1    3    3    0  501 -0.66261081788E+02 -0.66945711598E+02 -0.92596324695E+02  0.13216818304E+03  0.47000000000E+01 0.  1.
          5    1    4    4  502    0  0.73613413080E+02 -0.22823308784E+02 -0.92899857860E+02  0.12079864072E+03  0.47000000000E+01 0. -1.
         -5    1    4    4    0  502  0.14286070794E+02  0.72182391325E+02 -0.22963423931E+02  0.77225632239E+02  0.47000000000E+01 0. -1.
<mgrwt>
<rscale>  0 0.33995634E+03</rscale>
<asrwt>0</asrwt>
<pdfrwt beam="1">  1       21 0.95197008E-02 0.33995634E+03</pdfrwt>
<pdfrwt beam="2">  1       21 0.71835030E-01 0.33995634E+03</pdfrwt>
<totfact> 0.14841687E+05</totfact>
</mgrwt>
</event>
<event>
 8    1  0.9974463E-006  0.3212374E+03  0.7546771E-02  0.1075081E+00
         21   -1    0    0  504  503  0.00000000000E+00  0.00000000000E+00  0.70841881193E+03  0.70841881193E+03  0.00000000000E+00 0. -1.
         21   -1    0    0  503  504 -0.00000000000E+00 -0.00000000000E+00 -0.36416828607E+02  0.36416828607E+02  0.00000000000E+00 0. -1.
         25    2    1    2    0    0  0.95917189259E+02  0.30976247143E+02  0.34460997063E+03  0.38018481146E+03  0.12499929570E+03 0.  0.
         25    2    1    2    0    0 -0.95917189259E+02 -0.30976247143E+02  0.32739201270E+03  0.36465082908E+03  0.12500024835E+03 0.  0.
          5    1    3    3  501    0  0.34086595583E+02  0.61996330049E+02  0.26636103825E+03  0.27563695985E+03  0.47000000000E+01 0. -1.
         -5    1    3    3    0  501  0.61830593675E+02 -0.31020082906E+02  0.78248932379E+02  0.10454785161E+03  0.47000000000E+01 0. -1.
          5    1    4    4  502    0 -0.12610236248E+02  0.17787004572E+02  0.21612387881E+03  0.21727175745E+03  0.47000000000E+01 0. -1.
         -5    1    4    4    0  502 -0.83306953011E+02 -0.48763251715E+02  0.11126813388E+03  0.14737907163E+03  0.47000000000E+01 0. -1.
<mgrwt>
<rscale>  0 0.32123740E+03</rscale>
<asrwt>0</asrwt>
<pdfrwt beam="1">  1       21 0.10898750E+00 0.32123740E+03</pdfrwt>
<pdfrwt beam="2">  1       21 0.56025895E-02 0.32123740E+03</pdfrwt>
<totfact> 0.14198968E+05</totfact>
</mgrwt>
</event>
<event>
 8    1  0.9974463E-006  0.2754658E+03  0.7546771E-02  0.1098192E+00
         21   -1    0    0  504  503  0.00000000000E+00  0.00000000000E+00  0.10130362954E+04  0.10130362954E+04  0.00000000000E+00 0. -1.
         21   -1    0    0  503  504 -0.00000000000E+00 -0.00000000000E+00 -0.18726225801E+02  0.18726225801E+02  0.00000000000E+00 0. -1.
         25    2    1    2    0    0 -0.42360369256E+02 -0.15758528322E+02  0.63232371461E+03  0.64614247791E+03  0.12499635834E+03 0.  0.
         25    2    1    2    0    0  0.42360369256E+02  0.15758528322E+02  0.36198635498E+03  0.38562004329E+03  0.12500385791E+03 0.  0.
          5    1    3    3  501    0 -0.17377099460E+02  0.47432977093E+02  0.13577925104E+03  0.14494808007E+03  0.47000000000E+01 0. -1.
         -5    1    3    3    0  501 -0.24983269795E+02 -0.63191505415E+02  0.49654446357E+03  0.50119439785E+03  0.47000000000E+01 0. -1.
          5    1    4    4  502    0  0.44159274922E+02  0.35809497282E+02  0.59506864232E+02  0.82434935240E+02  0.47000000000E+01 0.  1.
         -5    1    4    4    0  502 -0.17989056662E+01 -0.20050968960E+02  0.30247949075E+03  0.30318510805E+03  0.47000000000E+01 0.  1.
<mgrwt>
<rscale>  0 0.27546576E+03</rscale>
<asrwt>0</asrwt>
<pdfrwt beam="1">  1       21 0.15585170E+00 0.27546576E+03</pdfrwt>
<pdfrwt beam="2">  1       21 0.28809586E-02 0.27546576E+03</pdfrwt>
<totfact> 0.17702088E+05</totfact>
</mgrwt>
</event>
<event>
 8    1  0.9974463E-006  0.2950151E+03  0.7546771E-02  0.1087759E+00
         21   -1    0    0  504  503  0.00000000000E+00  0.00000000000E+00  0.27807734380E+02  0.27807734380E+02  0.00000000000E+00 0.  1.
         21   -1    0    0  503  504 -0.00000000000E+00 -0.00000000000E+00 -0.78246113503E+03  0.78246113503E+03  0.00000000000E+00 0.  1.
         25    2    1    2    0    0  0.10862765028E+01  0.94636306037E+01 -0.16383675760E+03  0.20629691753E+03  0.12500077896E+03 0.  0.
         25    2    1    2    0    0 -0.10862765028E+01 -0.94636306037E+01 -0.59081664306E+03  0.60397195188E+03  0.12500829032E+03 0.  0.
          5    1    3    3  501    0  0.31570579418E+02  0.38989375519E+02 -0.15460904383E+03  0.16261278954E+03  0.47000000000E+01 0.  1.
         -5    1    3    3    0  501 -0.30484302915E+02 -0.29525744915E+02 -0.92277137702E+01  0.43684127992E+02  0.47000000000E+01 0.  1.
          5    1    4    4  502    0 -0.62002063124E+02 -0.11734359702E+02 -0.26322697164E+03  0.27072583849E+03  0.47000000000E+01 0.  1.
         -5    1    4    4    0  502  0.60915786622E+02  0.22707290983E+01 -0.32758967142E+03  0.33324611340E+03  0.47000000000E+01 0.  1.
<mgrwt>
<rscale>  0 0.29501506E+03</rscale>
<asrwt>0</asrwt>
<pdfrwt beam="1">  1       21 0.42781129E-02 0.29501506E+03</pdfrwt>
<pdfrwt beam="2">  1       21 0.12037864E+00 0.29501506E+03</pdfrwt>
<totfact> 0.17732296E+05</totfact>
</mgrwt>
</event>
<event>
 8    1  0.9974463E-006  0.2873447E+03  0.7546771E-02  0.1091744E+00
         21   -1    0    0  504  503  0.00000000000E+00  0.00000000000E+00  0.75183890306E+03  0.75183890306E+03  0.00000000000E+00 0.  1.
         21   -1    0    0  503  504 -0.00000000000E+00 -0.00000000000E+00 -0.27455002002E+02  0.27455002002E+02  0.00000000000E+00 0.  1.
         25    2    1    2    0    0 -0.44665734457E+02 -0.54131201113E+02  0.38810256040E+03  0.41373167539E+03  0.12500034827E+03 0.  0.
         25    2    1    2    0    0  0.44665734457E+02  0.54131201113E+02  0.33628134066E+03  0.36556222967E+03  0.12500155565E+03 0.  0.
          5    1    3    3  501    0  0.39545469332E+02 -0.49171754913E+01  0.66875666666E+02  0.77990175994E+02  0.47000000000E+01 0. -1.
         -5    1    3    3    0  501 -0.84211203789E+02 -0.49214025622E+02  0.32122689373E+03  0.33574149940E+03  0.47000000000E+01 0. -1.
          5    1    4    4  502    0 -0.20643857773E+01 -0.28403852846E+02  0.18290037090E+03  0.18516391716E+03  0.47000000000E+01 0.  1.
         -5    1    4    4    0  502  0.46730120234E+02  0.82535053960E+02  0.15338096976E+03  0.18039831251E+03  0.47000000000E+01 0.  1.
<mgrwt>
<rscale>  0 0.28734466E+03</rscale>
<asrwt>0</asrwt>
<pdfrwt beam="1">  1       21 0.11566751E+00 0.28734466E+03</pdfrwt>
<pdfrwt beam="2">  1       21 0.42238470E-02 0.28734466E+03</pdfrwt>
<totfact> 0.20057127E+05</totfact>
</mgrwt>
</event>
<event>
 8    1  0.9974463E-006  0.3179926E+03  0.7546771E-02  0.1076577E+00
         21   -1    0    0  504  503  0.00000000000E+00  0.00000000000E+00  0.50732405595E+02  0.50732405595E+02  0.00000000000E+00 0. -1.
         21   -1    0    0  503  504 -0.00000000000E+00 -0.00000000000E+00 -0.49829738185E+03  0.49829738185E+03  0.00000000000E+00 0. -1.
         25    2    1    2    0    0 -0.52105576221E+02 -0.21348009181E+02 -0.36281802601E+03  0.38785266825E+03  0.12498817423E+03 0.  0.
         25    2    1    2    0    0  0.52105576221E+02  0.21348009181E+02 -0.84746950244E+02  0.16117711920E+03  0.12500115843E+03 0.  0.
          5    1    3    3  501    0 -0.56442859893E+02  0.10779637995E+01 -0.54350620278E+02  0.78505021263E+02  0.47000000000E+01 0. -1.
         -5    1    3    3    0  501  0.43372836718E+01 -0.22425972980E+02 -0.30846740574E+03  0.30934764698E+03  0.47000000000E+01 0. -1.
          5    1    4    4  502    0 -0.98762865226E+01  0.43929715237E+02  0.92889040050E+01  0.46214009282E+02  0.47000000000E+01 0. -1.
         -5    1    4    4    0  502  0.61981862744E+02 -0.22581706056E+02 -0.94035854249E+02  0.11496310992E+03  0.47000000000E+01 0. -1.
<mgrwt>
<rscale>  0 0.31799261E+03</rscale>
<asrwt>0</asrwt>
<pdfrwt beam="1">  1       21 0.78049856E-02 0.31799261E+03</pdfrwt>
<pdfrwt beam="2">  1       21 0.76661135E-01 0.31799261E+03</pdfrwt>
<totfact> 0.18301769E+05</totfact>
</mgrwt>
</event>
<event>
 8    1  0.9974463E-006  0.3162502E+03  0.7546771E-02  0.1077388E+00
         21   -1    0    0  504  503  0.00000000000E+00  0.00000000000E+00  0.33354646432E+03  0.33354646432E+03  0.00000000000E+00 0.  1.
         21   -1    0    0  503  504 -0.00000000000E+00 -0.00000000000E+00 -0.74962727686E+02  0.74962727686E+02  0.00000000000E+00 0.  1.
         25    2    1    2    0    0  0.43870897809E+02  0.32213615727E+02  0.25821231167E+02  0.13875677645E+03  0.12499733724E+03 0.  0.
         25    2    1    2    0    0 -0.43870897809E+02 -0.32213615727E+02  0.23276250547E+03  0.26975241556E+03  0.12500243612E+03 0.  0.
          5    1    3    3  501    0  0.86849392434E+02  0.33168605301E+02  0.17931987244E+02  0.94797782202E+02  0.47000000000E+01 0. -1.
         -5    1    3    3    0  501 -0.42978494625E+02 -0.95498957410E+00  0.78892439228E+01  0.43958994245E+02  0.47000000000E+01 0. -1.
          5    1    4    4  502    0 -0.22926001273E+02 -0.62507897122E+02  0.22091774252E+03  0.23078036679E+03  0.47000000000E+01 0.  1.
         -5    1    4    4    0  502 -0.20944896537E+02  0.30294281395E+02  0.11844762956E+02  0.38972048774E+02  0.47000000000E+01 0.  1.
<mgrwt>
<rscale>  0 0.31625023E+03</rscale>
<asrwt>0</asrwt>
<pdfrwt beam="1">  1       21 0.51314840E-01 0.31625023E+03</pdfrwt>
<pdfrwt beam="2">  1       21 0.11532728E-01 0.31625023E+03</pdfrwt>
<totfact> 0.22025594E+05</totfact>
</mgrwt>
</event>
<event>
 8    1  0.9974463E-006  0.3287749E+03  0.7546771E-02  0.1071680E+00
         21   -1    0    0  504  503  0.00000000000E+00  0.00000000000E+00  0.37486117648E+02  0.37486117648E+02  0.00000000000E+00 0.  1.
         21   -1    0    0  503  504 -0.00000000000E+00 -0.00000000000E+00 -0.72088623193E+03  0.72088623193E+03  0.00000000000E+00 0.  1.
         25    2    1    2    0    0  0.24528977475E+02 -0.70418144220E+02 -0.51792480397E+03  0.53798911966E+03  0.12500321810E+03 0.  0.
         25    2    1    2    0    0 -0.24528977475E+02  0.70418144220E+02 -0.16547531032E+03  0.22038322993E+03  0.12500521563E+03 0.  0.
          5    1    3    3  501    0  0.35983585144E+02 -0.11406853765E+02 -0.36220284492E+02  0.52525553032E+02  0.47000000000E+01 0. -1.
         -5    1    3    3    0  501 -0.11454607669E+02 -0.59011290455E+02 -0.48170451947E+03  0.48546356662E+03  0.47000000000E+01 0. -1.
          5    1    4    4  502    0  0.43063454362E+01  0.18870943011E+02  0.18449506221E+02  0.27150163553E+02  0.47000000000E+01 0. -1.
         -5    1    4    4    0  502 -0.28835322911E+02  0.51547201209E+02 -0.18392481654E+03  0.19323306637E+03  0.47000000000E+01 0. -1.
<mgrwt>
<rscale>  0 0.32877485E+03</rscale>
<asrwt>0</asrwt>
<pdfrwt beam="1">  1       21 0.57670956E-02 0.32877485E+03</pdfrwt>
<pdfrwt beam="2">  1       21 0.11090556E+00 0.32877485E+03</pdfrwt>
<totfact> 0.12914697E+05</totfact>
</mgrwt>
</event>
<event>
 8    1  0.9974463E-006  0.3536462E+03  0.7546771E-02  0.1061128E+00
         21   -1    0    0  504  503  0.00000000000E+00  0.00000000000E+00  0.62930743336E+03  0.62930743336E+03  0.00000000000E+00 0. -1.
         21   -1    0    0  503  504 -0.00000000000E+00 -0.00000000000E+00 -0.49683830480E+02  0.49683830480E+02  0.00000000000E+00 0. -1.
         25    2    1    2    0    0 -0.11007100380E+03 -0.58956533812E+02  0.27623925832E+03  0.32790970329E+03  0.12500058767E+03 0.  0.
         25    2    1    2    0    0  0.11007100380E+03  0.58956533812E+02  0.30338434455E+03  0.35108156054E+03  0.12499881150E+03 0.  0.
          5    1    3    3  501    0 -0.65379054478E+02  0.32409399403E+02  0.13855907305E+03  0.15667002476E+03  0.47000000000E+01 0. -1.
         -5    1    3    3    0  501 -0.44691949326E+02 -0.91365933215E+02  0.13768018528E+03  0.17123967853E+03  0.47000000000E+01 0. -1.
          5    1    4    4  502    0  0.32579492675E+02 -0.32553700659E+02  0.38247078629E+02  0.60050776791E+02  0.47000000000E+01 0.  1.
         -5    1    4    4    0  502  0.77491511129E+02  0.91510234472E+02  0.26513726593E+03  0.29103078375E+03  0.47000000000E+01 0.  1.
<mgrwt>
<rscale>  0 0.35364617E+03</rscale>
<asrwt>0</asrwt>
<pdfrwt beam="1">  1       21 0.96816523E-01 0.35364617E+03</pdfrwt>
<pdfrwt beam="2">  1       21 0.76436667E-02 0.35364617E+03</pdfrwt>
<totfact> 0.10929525E+05</totfact>
</mgrwt>
</event>
<event>
 8    1  0.9974463E-006  0.3789780E+03  0.7546771E-02  0.1051312E+00
         21   -1    0    0  504  503  0.00000000000E+00  0.00000000000E+00  0.11358845950E+03  0.11358845950E+03  0.00000000000E+00 0.  1.
         21   -1    0    0  503  504 -0.00000000000E+00 -0.00000000000E+00 -0.31610670583E+03  0.31610670583E+03  0.00000000000E+00 0.  1.
         25    2    1    2    0    0 -0.11753695589E+03 -0.54629383378E+02 -0.34359089680E+02  0.18331839289E+03  0.12500312236E+03 0.  0.
         25    2    1    2    0    0  0.11753695589E+03  0.54629383378E+02 -0.16815915665E+03  0.24637677244E+03  0.12499882600E+03 0.  0.
          5    1    3    3  501    0  0.31594809547E+01  0.30931390754E+02 -0.11805247914E+02  0.33588497022E+02  0.47000000000E+01 0.  1.
         -5    1    3    3    0  501 -0.12069643685E+03 -0.85560774132E+02 -0.22553841766E+02  0.14972989587E+03  0.47000000000E+01 0.  1.
          5    1    4    4  502    0 -0.25985798930E+01  0.58289653125E+02 -0.69042733043E+02  0.90517541200E+02  0.47000000000E+01 0. -1.
         -5    1    4    4    0  502  0.12013553579E+03 -0.36602697470E+01 -0.99116423606E+02  0.15585923124E+03  0.47000000000E+01 0. -1.
<mgrwt>
<rscale>  0 0.37897796E+03</rscale>
<asrwt>0</asrwt>
<pdfrwt beam="1">  1       21 0.17475148E-01 0.37897796E+03</pdfrwt>
<pdfrwt beam="2">  1       21 0.48631801E-01 0.37897796E+03</pdfrwt>
<totfact> 0.11347521E+05</totfact>
</mgrwt>
</event>
<event>
 8    1  0.9974463E-006  0.2856668E+03  0.7546771E-02  0.1092634E+00
         21   -1    0    0  504  503  0.00000000000E+00  0.00000000000E+00  0.25024808854E+03  0.25024808854E+03  0.00000000000E+00 0.  1.
         21   -1    0    0  503  504 -0.00000000000E+00 -0.00000000000E+00 -0.81524607471E+02  0.81524607471E+02  0.00000000000E+00 0.  1.
         25    2    1    2    0    0 -0.45972738016E+02  0.45059510093E+02  0.55144976246E+02  0.15102711541E+03  0.12499747635E+03 0.  0.
         25    2    1    2    0    0  0.45972738016E+02 -0.45059510093E+02  0.11357850483E+03  0.18074558060E+03  0.12500014423E+03 0.  0.
          5    1    3    3  501    0  0.12389050983E+02  0.16629417299E+02 -0.34330609457E+02  0.40382011461E+02  0.47000000000E+01 0. -1.
         -5    1    3    3    0  501 -0.58361788998E+02  0.28430092794E+02  0.89475585702E+02  0.11064510395E+03  0.47000000000E+01 0. -1.
          5    1    4    4  502    0 -0.40177133386E+02 -0.20917675688E+02  0.63395155623E+02  0.78056306342E+02  0.47000000000E+01 0.  1.
         -5    1    4    4    0  502  0.86149871402E+02 -0.24141834406E+02  0.50183349204E+02  0.10268927426E+03  0.47000000000E+01 0.  1.
<mgrwt>
<rscale>  0 0.28566678E+03</rscale>
<asrwt>0</asrwt>
<pdfrwt beam="1">  1       21 0.38499706E-01 0.28566678E+03</pdfrwt>
<pdfrwt beam="2">  1       21 0.12542247E-01 0.28566678E+03</pdfrwt>
<totfact> 0.34544538E+05</totfact>
</mgrwt>
</event>
<event>
 8    1  0.9974463E-006  0.2907796E+03  0.7546771E-02  0.1089943E+00
         21   -1    0    0  504  503  0.00000000000E+00  0.00000000000E+00  0.12529409056E+03  0.12529409056E+03  0.00000000000E+00 0.  1.
         21   -1    0    0  503  504 -0.00000000000E+00 -0.00000000000E+00 -0.16870866138E+03  0.16870866138E+03  0.00000000000E+00 0.  1.
         25    2    1    2    0    0  0.44851933776E+02  0.55147677218E+02 -0.43429827767E+02  0.15020068959E+03  0.12498453883E+03 0.  0.
         25    2    1    2    0    0 -0.44851933776E+02 -0.55147677218E+02  0.15256950135E-01  0.14380206236E+03  0.12500428249E+03 0.  0.
          5    1    3    3  501    0  0.17834560536E+02  0.93885411993E+02 -0.35648383149E+02  0.10210504080E+03  0.47000000000E+01 0.  1.
         -5    1    3    3    0  501  0.27017373240E+02 -0.38737734775E+02 -0.77814446179E+01  0.48095648791E+02  0.47000000000E+01 0.  1.
          5    1    4    4  502    0  0.26816043582E+02 -0.91285395590E+01 -0.40276661816E+02  0.49464430806E+02  0.47000000000E+01 0.  1.
         -5    1    4    4    0  502 -0.71667977358E+02 -0.46019137659E+02  0.40291918766E+02  0.94337631554E+02  0.47000000000E+01 0.  1.
<mgrwt>
<rscale>  0 0.29077963E+03</rscale>
<asrwt>0</asrwt>
<pdfrwt beam="1">  1       21 0.19276014E-01 0.29077963E+03</pdfrwt>
<pdfrwt beam="2">  1       21 0.25955178E-01 0.29077963E+03</pdfrwt>
<totfact> 0.34114119E+05</totfact>
</mgrwt>
</event>
<event>
 8    1  0.9974463E-006  0.3053823E+03  0.7546771E-02  0.1082581E+00
         21   -1    0    0  504  503  0.00000000000E+00  0.00000000000E+00  0.16052961877E+03  0.16052961877E+03  0.00000000000E+00 0.  1.
         21   -1    0    0  503  504 -0.00000000000E+00 -0.00000000000E+00 -0.14523544469E+03  0.14523544469E+03  0.00000000000E+00 0.  1.
         25    2    1    2    0    0 -0.66982389150E+02 -0.52278081380E+02 -0.14038843309E+02  0.15179558933E+03  0.12500069427E+03 0.  0.
         25    2    1    2    0    0  0.66982389150E+02  0.52278081380E+02  0.29333017385E+02  0.15396947413E+03  0.12500613907E+03 0.  0.
          5    1    3    3  501    0 -0.13733324593E+02 -0.69058551641E+02 -0.48857148462E+02  0.85830057176E+02  0.47000000000E+01 0. -1.
         -5    1    3    3    0  501 -0.53249064556E+02  0.16780470261E+02  0.34818305153E+02  0.65965532151E+02  0.47000000000E+01 0. -1.
          5    1    4    4  502    0  0.41259061729E+02 -0.37063821862E+02 -0.21428541296E+01  0.55702054626E+02  0.47000000000E+01 0.  1.
         -5    1    4    4    0  502  0.25723327421E+02  0.89341903242E+02  0.31475871514E+02  0.98267419504E+02  0.47000000000E+01 0.  1.
<mgrwt>
<rscale>  0 0.30538232E+03</rscale>
<asrwt>0</asrwt>
<pdfrwt beam="1">  1       21 0.24696864E-01 0.30538232E+03</pdfrwt>
<pdfrwt beam="2">  1       21 0.22343915E-01 0.30538232E+03</pdfrwt>
<totfact> 0.28310442E+05</totfact>
</mgrwt>
</event>
<event>
 8    1  0.9974463E-006  0.2965757E+03  0.7546771E-02  0.1086965E+00
         21   -1    0    0  504  503  0.00000000000E+00  0.00000000000E+00  0.15332715189E+03  0.15332715189E+03  0.00000000000E+00 0.  1.
         21   -1    0    0  503  504 -0.00000000000E+00 -0.00000000000E+00 -0.14341418990E+03  0.14341418990E+03  0.00000000000E+00 0.  1.
         25    2    1    2    0    0  0.57071667234E+02 -0.43429772932E+02  0.39910533125E+02  0.14953729943E+03  0.12500093155E+03 0.  0.
         25    2    1    2    0    0 -0.57071667234E+02  0.43429772932E+02 -0.29997571134E+02  0.14720404236E+03  0.12500342170E+03 0.  0.
          5    1    3    3  501    0  0.65045994773E+02  0.25308122798E+02  0.39172237966E+02  0.80175038153E+02  0.47000000000E+01 0.  1.
         -5    1    3    3    0  501 -0.79743275392E+01 -0.68737895730E+02  0.73829515906E+00  0.69362261272E+02  0.47000000000E+01 0.  1.
          5    1    4    4  502    0 -0.89421420233E+02  0.16035310471E+00 -0.13762145490E+02  0.90596372765E+02  0.47000000000E+01 0.  1.
         -5    1    4    4    0  502  0.32349752999E+02  0.43269419827E+02 -0.16235425645E+02  0.56607669597E+02  0.47000000000E+01 0.  1.
<mgrwt>
<rscale>  0 0.29657572E+03</rscale>
<asrwt>0</asrwt>
<pdfrwt beam="1">  1       21 0.23588793E-01 0.29657572E+03</pdfrwt>
<pdfrwt beam="2">  1       21 0.22063721E-01 0.29657572E+03</pdfrwt>
<totfact> 0.31728302E+05</totfact>
</mgrwt>
</event>
<event>
 8    1  0.9974463E-006  0.3127396E+03  0.7546771E-02  0.1079040E+00
         21   -1    0    0  504  503  0.00000000000E+00  0.00000000000E+00  0.66328856494E+02  0.66328856494E+02  0.00000000000E+00 0. -1.
         21   -1    0    0  503  504 -0.00000000000E+00 -0.00000000000E+00 -0.36864056842E+03  0.36864056842E+03  0.00000000000E+00 0. -1.
         25    2    1    2    0    0  0.19740543331E+02 -0.82095280467E+02 -0.93853663208E+02  0.17765846173E+03  0.12499877920E+03 0.  0.
         25    2    1    2    0    0 -0.19740543331E+02  0.82095280467E+02 -0.20845804872E+03  0.25731096319E+03  0.12499939829E+03 0.  0.
          5    1    3    3  501    0  0.31419894161E+02 -0.50414448309E+01  0.21265341871E+02  0.38560740138E+02  0.47000000000E+01 0. -1.
         -5    1    3    3    0  501 -0.11679350829E+02 -0.77053835636E+02 -0.11511900508E+03  0.13909772159E+03  0.47000000000E+01 0. -1.
          5    1    4    4  502    0  0.46707585777E+02  0.67768077606E+02 -0.10645741646E+03  0.13464539513E+03  0.47000000000E+01 0.  1.
         -5    1    4    4    0  502 -0.66448129108E+02  0.14327202861E+02 -0.10200063227E+03  0.12266556806E+03  0.47000000000E+01 0.  1.
<mgrwt>
<rscale>  0 0.31273956E+03</rscale>
<asrwt>0</asrwt>
<pdfrwt beam="1">  1       21 0.10204440E-01 0.31273956E+03</pdfrwt>
<pdfrwt beam="2">  1       21 0.56713933E-01 0.31273956E+03</pdfrwt>
<totfact> 0.22178887E+05</totfact>
</mgrwt>
</event>
<event>
 8    1  0.9974463E-006  0.6774211E+03  0.7546771E-02  0.9756644E-01
         21   -1    0    0  504  503  0.00000000000E+00  0.00000000000E+00  0.26873100780E+03  0.26873100780E+03  0.00000000000E+00 0. -1.
         21   -1    0    0  503  504 -0.00000000000E+00 -0.00000000000E+00 -0.42691323820E+03  0.42691323820E+03  0.00000000000E+00 0. -1.
         25    2    1    2    0    0 -0.43631666712E+02  0.22632840259E+03 -0.29927091766E+03  0.39788929560E+03  0.12499816494E+03 0.  0.
         25    2    1    2    0    0  0.43631666712E+02 -0.22632840259E+03  0.14108868726E+03  0.29775495039E+03  0.12499489850E+03 0.  0.
          5    1    3    3  501    0 -0.13037789552E+02 -0.12072699136E+02 -0.75359979738E+01  0.19864926033E+02  0.47000000000E+01 0. -1.
         -5    1    3    3    0  501 -0.30593877160E+02  0.23840110173E+03 -0.29173491969E+03  0.37802436957E+03  0.47000000000E+01 0. -1.
          5    1    4    4  502    0  0.20900562307E+02 -0.10586263942E+03  0.13772693099E+03  0.17502722488E+03  0.47000000000E+01 0. -1.
         -5    1    4    4    0  502  0.22731104405E+02 -0.12046576317E+03  0.33617562680E+01  0.12272772551E+03  0.47000000000E+01 0. -1.
<mgrwt>
<rscale>  0 0.67742106E+03</rscale>
<asrwt>0</asrwt>
<pdfrwt beam="1">  1       21 0.41343232E-01 0.67742106E+03</pdfrwt>
<pdfrwt beam="2">  1       21 0.65678959E-01 0.67742106E+03</pdfrwt>
<totfact> 0.10172105E+04</totfact>
</mgrwt>
</event>
<event>
 8    1  0.9974463E-006  0.2707416E+03  0.7546771E-02  0.1100856E+00
         21   -1    0    0  504  503  0.00000000000E+00  0.00000000000E+00  0.67962555876E+03  0.67962555876E+03  0.00000000000E+00 0. -1.
         21   -1    0    0  503  504 -0.00000000000E+00 -0.00000000000E+00 -0.26963742561E+02  0.26963742561E+02  0.00000000000E+00 0. -1.
         25    2    1    2    0    0  0.59865970630E+01  0.46905425577E+02  0.27012234508E+03  0.30137614036E+03  0.12500215348E+03 0.  0.
         25    2    1    2    0    0 -0.59865970630E+01 -0.46905425577E+02  0.38253947112E+03  0.40521316096E+03  0.12500120223E+03 0.  0.
          5    1    3    3  501    0  0.23112922043E+02  0.34264914098E+02  0.13360738538E+02  0.43690855311E+02  0.47000000000E+01 0. -1.
         -5    1    3    3    0  501 -0.17126324980E+02  0.12640511479E+02  0.25676160654E+03  0.25768528505E+03  0.47000000000E+01 0. -1.
          5    1    4    4  502    0 -0.82701782798E+01  0.20431188551E+02  0.69280286392E+01  0.23577889965E+02  0.47000000000E+01 0. -1.
         -5    1    4    4    0  502  0.22835812168E+01 -0.67336614127E+02  0.37561144248E+03  0.38163527099E+03  0.47000000000E+01 0. -1.
<mgrwt>
<rscale>  0 0.27074156E+03</rscale>
<asrwt>0</asrwt>
<pdfrwt beam="1">  1       21 0.10455776E+00 0.27074156E+03</pdfrwt>
<pdfrwt beam="2">  1       21 0.41482686E-02 0.27074156E+03</pdfrwt>
<totfact> 0.26593336E+05</totfact>
</mgrwt>
</event>
<event>
 8    1  0.9974463E-006  0.2765120E+03  0.7546771E-02  0.1097609E+00
         21   -1    0    0  504  503  0.00000000000E+00  0.00000000000E+00  0.10819592578E+03  0.10819592578E+03  0.00000000000E+00 0.  1.
         21   -1    0    0  503  504 -0.00000000000E+00 -0.00000000000E+00 -0.17666766513E+03  0.17666766513E+03  0.00000000000E+00 0.  1.
         25    2    1    2    0    0 -0.14722395099E+02  0.34482736978E+02 -0.81225117504E+02  0.15371581639E+03  0.12500089770E+03 0.  0.
         25    2    1    2    0    0  0.14722395099E+02 -0.34482736978E+02  0.12753378148E+02  0.13114777452E+03  0.12502512564E+03 0.  0.
          5    1    3    3  501    0 -0.20154111547E+00  0.73373153956E+01 -0.11057791889E+03  0.11092088605E+03  0.47000000000E+01 0.  1.
         -5    1    3    3    0  501 -0.14520853983E+02  0.27145421582E+02  0.29352801385E+02  0.42794930336E+02  0.47000000000E+01 0.  1.
          5    1    4    4  502    0  0.56311808774E+01 -0.57181000239E+02 -0.41781313565E+02  0.71197929392E+02  0.47000000000E+01 0.  1.
         -5    1    4    4    0  502  0.90912142216E+01  0.22698263261E+02  0.54534691714E+02  0.59949845133E+02  0.47000000000E+01 0.  1.
<mgrwt>
<rscale>  0 0.27651200E+03</rscale>
<asrwt>0</asrwt>
<pdfrwt beam="1">  1       21 0.16645527E-01 0.27651200E+03</pdfrwt>
<pdfrwt beam="2">  1       21 0.27179641E-01 0.27651200E+03</pdfrwt>
<totfact> 0.41124548E+05</totfact>
</mgrwt>
</event>
<event>
 8    1  0.9974463E-006  0.3063153E+03  0.7546771E-02  0.1082126E+00
         21   -1    0    0  504  503  0.00000000000E+00  0.00000000000E+00  0.11270068072E+03  0.11270068072E+03  0.00000000000E+00 0.  1.
         21   -1    0    0  503  504 -0.00000000000E+00 -0.00000000000E+00 -0.20813780418E+03  0.20813780418E+03  0.00000000000E+00 0.  1.
         25    2    1    2    0    0 -0.54079062838E+02  0.69208456622E+02 -0.59095944905E+02  0.16380499578E+03  0.12500156173E+03 0.  0.
         25    2    1    2    0    0  0.54079062838E+02 -0.69208456622E+02 -0.36341178551E+02  0.15703348912E+03  0.12499791975E+03 0.  0.
          5    1    3    3  501    0 -0.11531621941E+02  0.61283354418E+02  0.26387334760E+02  0.67874953179E+02  0.47000000000E+01 0.  1.
         -5    1    3    3    0  501 -0.42547440897E+02  0.79251022038E+01 -0.85483279664E+02  0.95930042604E+02  0.47000000000E+01 0.  1.
          5    1    4    4  502    0 -0.37178647562E+02 -0.13653070656E+01  0.20346525777E+00  0.37499963948E+02  0.47000000000E+01 0. -1.
         -5    1    4    4    0  502  0.91257710401E+02 -0.67843149556E+02 -0.36544643809E+02  0.11953352517E+03  0.47000000000E+01 0. -1.
<mgrwt>
<rscale>  0 0.30631534E+03</rscale>
<asrwt>0</asrwt>
<pdfrwt beam="1">  1       21 0.17338566E-01 0.30631534E+03</pdfrwt>
<pdfrwt beam="2">  1       21 0.32021200E-01 0.30631534E+03</pdfrwt>
<totfact> 0.27472115E+05</totfact>
</mgrwt>
</event>
<event>
 8    1  0.9974463E-006  0.3458334E+03  0.7546771E-02  0.1064338E+00
         21   -1    0    0  504  503  0.00000000000E+00  0.00000000000E+00  0.12831522859E+03  0.12831522859E+03  0.00000000000E+00 0. -1.
         21   -1    0    0  503  504 -0.00000000000E+00 -0.00000000000E+00 -0.23302134291E+03  0.23302134291E+03  0.00000000000E+00 0. -1.
         25    2    1    2    0    0 -0.10255061593E+03  0.43158960980E+02 -0.68692808160E+01  0.16748471953E+03  0.12499847806E+03 0.  0.
         25    2    1    2    0    0  0.10255061593E+03 -0.43158960980E+02 -0.97836833507E+02  0.19385185197E+03  0.12500867882E+03 0.  0.
          5    1    3    3  501    0 -0.10000781687E+03  0.59142791225E+02  0.35750486295E+02  0.12165369069E+03  0.47000000000E+01 0. -1.
         -5    1    3    3    0  501 -0.25427990613E+01 -0.15983830245E+02 -0.42619767111E+02  0.45831028844E+02  0.47000000000E+01 0. -1.
          5    1    4    4  502    0  0.43965266194E+01  0.32973838988E+02  0.30802814960E+01  0.33736947669E+02  0.47000000000E+01 0.  1.
         -5    1    4    4    0  502  0.98154089307E+02 -0.76132799968E+02 -0.10091711500E+03  0.16011490430E+03  0.47000000000E+01 0.  1.
<mgrwt>
<rscale>  0 0.34583341E+03</rscale>
<asrwt>0</asrwt>
<pdfrwt beam="1">  1       21 0.19740805E-01 0.34583341E+03</pdfrwt>
<pdfrwt beam="2">  1       21 0.35849437E-01 0.34583341E+03</pdfrwt>
<totfact> 0.17043106E+05</totfact>
</mgrwt>
</event>
<event>
 8    1  0.9974463E-006  0.2896469E+03  0.7546771E-02  0.1090534E+00
         21   -1    0    0  504  503  0.00000000000E+00  0.00000000000E+00  0.13764389156E+04  0.13764389156E+04  0.00000000000E+00 0. -1.
         21   -1    0    0  503  504 -0.00000000000E+00 -0.00000000000E+00 -0.15237752494E+02  0.15237752494E+02  0.00000000000E+00 0. -1.
         25    2    1    2    0    0 -0.30938259706E+02  0.54492487329E+02  0.86181704273E+03  0.87308594688E+03  0.12499539355E+03 0.  0.
         25    2    1    2    0    0  0.30938259706E+02 -0.54492487329E+02  0.49938412042E+03  0.51859072126E+03  0.12500091743E+03 0.  0.
          5    1    3    3  501    0 -0.33250948304E+02  0.15502252444E+02  0.61239434416E+02  0.71542321192E+02  0.47000000000E+01 0. -1.
         -5    1    3    3    0  501  0.23126885984E+01  0.38990234885E+02  0.80057760831E+03  0.80154362569E+03  0.47000000000E+01 0. -1.
          5    1    4    4  502    0 -0.39340487440E+02  0.44943414891E+01  0.81564146954E+02  0.90789168549E+02  0.47000000000E+01 0.  1.
         -5    1    4    4    0  502  0.70278747145E+02 -0.58986828818E+02  0.41781997346E+03  0.42780155271E+03  0.47000000000E+01 0.  1.
<mgrwt>
<rscale>  0 0.28964693E+03</rscale>
<asrwt>0</asrwt>
<pdfrwt beam="1">  1       21 0.21175974E+00 0.28964693E+03</pdfrwt>
<pdfrwt beam="2">  1       21 0.23442707E-02 0.28964693E+03</pdfrwt>
<totfact> 0.10227856E+05</totfact>
</mgrwt>
</event>
<event>
 8    1  0.9974463E-006  0.2873246E+03  0.7546771E-02  0.1091754E+00
         21   -1    0    0  504  503  0.00000000000E+00  0.00000000000E+00  0.14137212311E+03  0.14137212311E+03  0.00000000000E+00 0.  1.
         21   -1    0    0  503  504 -0.00000000000E+00 -0.00000000000E+00 -0.14598958045E+03  0.14598958045E+03  0.00000000000E+00 0.  1.
         25    2    1    2    0    0 -0.31040958114E+02 -0.55136238013E+02  0.29491959179E+02  0.14316581317E+03  0.12499251410E+03 0.  0.
         25    2    1    2    0    0  0.31040958114E+02  0.55136238013E+02 -0.34109416526E+02  0.14419589039E+03  0.12500182674E+03 0.  0.
          5    1    3    3  501    0  0.11665100996E+02 -0.55596737608E+02  0.65697641005E+02  0.86978973594E+02  0.47000000000E+01 0. -1.
         -5    1    3    3    0  501 -0.42706059110E+02  0.46049959472E+00 -0.36205681826E+02  0.56186839572E+02  0.47000000000E+01 0. -1.
          5    1    4    4  502    0 -0.43293002490E+02  0.40648911904E+00  0.49971842540E+01  0.43835044753E+02  0.47000000000E+01 0.  1.
         -5    1    4    4    0  502  0.74333960605E+02  0.54729748894E+02 -0.39106600780E+02  0.10036084564E+03  0.47000000000E+01 0.  1.
<mgrwt>
<rscale>  0 0.28732460E+03</rscale>
<asrwt>0</asrwt>
<pdfrwt beam="1">  1       21 0.21749557E-01 0.28732460E+03</pdfrwt>
<pdfrwt beam="2">  1       21 0.22459935E-01 0.28732460E+03</pdfrwt>
<totfact> 0.35873011E+05</totfact>
</mgrwt>
</event>
<event>
 8    1  0.9974463E-006  0.2972290E+03  0.7546771E-02  0.1086634E+00
         21   -1    0    0  504  503  0.00000000000E+00  0.00000000000E+00  0.14027561190E+03  0.14027561190E+03  0.00000000000E+00 0. -1.
         21   -1    0    0  503  504 -0.00000000000E+00 -0.00000000000E+00 -0.15744908850E+03  0.15744908850E+03  0.00000000000E+00 0. -1.
         25    2    1    2    0    0 -0.78054869396E+02  0.98706594217E+01  0.79026920120E+01  0.14791040516E+03  0.12500017143E+03 0.  0.
         25    2    1    2    0    0  0.78054869396E+02 -0.98706594217E+01 -0.25076168615E+02  0.14981429525E+03  0.12500206508E+03 0.  0.
          5    1    3    3  501    0  0.12402513324E+02 -0.56211908637E+01 -0.41252264787E+02  0.43695073790E+02  0.47000000000E+01 0.  1.
         -5    1    3    3    0  501 -0.90457382720E+02  0.15491850285E+02  0.49154956799E+02  0.10421533137E+03  0.47000000000E+01 0.  1.
          5    1    4    4  502    0 -0.35430787033E+01  0.24557872687E+01 -0.59814671298E+02  0.60153713105E+02  0.47000000000E+01 0.  1.
         -5    1    4    4    0  502  0.81597948099E+02 -0.12326446690E+02  0.34738502683E+02  0.89660582145E+02  0.47000000000E+01 0.  1.
<mgrwt>
<rscale>  0 0.29722898E+03</rscale>
<asrwt>0</asrwt>
<pdfrwt beam="1">  1       21 0.21580863E-01 0.29722898E+03</pdfrwt>
<pdfrwt beam="2">  1       21 0.24222937E-01 0.29722898E+03</pdfrwt>
<totfact> 0.31445503E+05</totfact>
</mgrwt>
</event>
<event>
 8    1  0.9974463E-006  0.3131167E+03  0.7546771E-02  0.1078862E+00
         21   -1    0    0  504  503  0.00000000000E+00  0.00000000000E+00  0.77826657597E+03  0.77826657597E+03  0.00000000000E+00 0.  1.
         21   -1    0    0  503  504 -0.00000000000E+00 -0.00000000000E+00 -0.31493736841E+02  0.31493736841E+02  0.00000000000E+00 0.  1.
         25    2    1    2    0    0  0.66761837446E+02  0.44437317202E+02  0.24530483891E+03  0.28676040344E+03  0.12500098755E+03 0.  0.
         25    2    1    2    0    0 -0.66761837446E+02 -0.44437317202E+02  0.50146800022E+03  0.52299990937E+03  0.12500772721E+03 0.  0.
          5    1    3    3  501    0  0.28085693000E+02  0.80484505160E+02  0.96875261754E+02  0.12912578388E+03  0.47000000000E+01 0.  1.
         -5    1    3    3    0  501  0.38676144445E+02 -0.36047187959E+02  0.14842957716E+03  0.15763461956E+03  0.47000000000E+01 0.  1.
          5    1    4    4  502    0 -0.27950193366E+02 -0.30138712047E+01  0.13182152894E+02  0.31403119013E+02  0.47000000000E+01 0.  1.
         -5    1    4    4    0  502 -0.38811644080E+02 -0.41423445997E+02  0.48828584732E+03  0.49159679036E+03  0.47000000000E+01 0.  1.
<mgrwt>
<rscale>  0 0.31311674E+03</rscale>
<asrwt>0</asrwt>
<pdfrwt beam="1">  1       21 0.11973330E+00 0.31311674E+03</pdfrwt>
<pdfrwt beam="2">  1       21 0.48451909E-02 0.31311674E+03</pdfrwt>
<totfact> 0.14467240E+05</totfact>
</mgrwt>
</event>
<event>
 8    1  0.9974463E-006  0.4501768E+03  0.7546771E-02  0.1027669E+00
         21   -1    0    0  504  503  0.00000000000E+00  0.00000000000E+00  0.49245376065E+03  0.49245376065E+03  0.00000000000E+00 0.  1.
         21   -1    0    0  503  504 -0.00000000000E+00 -0.00000000000E+00 -0.10288232508E+03  0.10288232508E+03  0.00000000000E+00 0.  1.
         25    2    1    2    0    0  0.14855329793E+03  0.31245295190E+02  0.49944290058E+02  0.20288770569E+03  0.12499855285E+03 0.  0.
         25    2    1    2    0    0 -0.14855329793E+03 -0.31245295190E+02  0.33962714551E+03  0.39244838003E+03  0.12499912889E+03 0.  0.
          5    1    3    3  501    0  0.15222444137E+03  0.55040528143E+02  0.64559996892E+02  0.17433250841E+03  0.47000000000E+01 0.  1.
         -5    1    3    3    0  501 -0.36711434484E+01 -0.23795232954E+02 -0.14615706834E+02  0.28555197282E+02  0.47000000000E+01 0.  1.
          5    1    4    4  502    0  0.20299627412E+02  0.76090403332E+01  0.26587493357E+02  0.34625960938E+02  0.47000000000E+01 0.  1.
         -5    1    4    4    0  502 -0.16885292534E+03 -0.38854335523E+02  0.31303965216E+03  0.35782241910E+03  0.47000000000E+01 0.  1.
<mgrwt>
<rscale>  0 0.45017680E+03</rscale>
<asrwt>0</asrwt>
<pdfrwt beam="1">  1       21 0.75762116E-01 0.45017680E+03</pdfrwt>
<pdfrwt beam="2">  1       21 0.15828050E-01 0.45017680E+03</pdfrwt>
<totfact> 0.50838712E+04</totfact>
</mgrwt>
</event>
<event>
 8    1  0.9974463E-006  0.2866672E+03  0.7546771E-02  0.1092102E+00
         21   -1    0    0  504  503  0.00000000000E+00  0.00000000000E+00  0.17485359966E+03  0.17485359966E+03  0.00000000000E+00 0.  1.
         21   -1    0    0  503  504 -0.00000000000E+00 -0.00000000000E+00 -0.11749558135E+03  0.11749558135E+03  0.00000000000E+00 0.  1.
         25    2    1    2    0    0 -0.28106610612E+02  0.32448519127E+02 -0.27886721791E+02  0.13507255618E+03  0.12499615285E+03 0.  0.
         25    2    1    2    0    0  0.28106610612E+02 -0.32448519127E+02  0.85244740106E+02  0.15727662482E+03  0.12500553207E+03 0.  0.
          5    1    3    3  501    0  0.11505189224E+02 -0.31052117942E+02 -0.46998909759E+02  0.57685274779E+02  0.47000000000E+01 0.  1.
         -5    1    3    3    0  501 -0.39611799836E+02  0.63500637069E+02  0.19112187968E+02  0.77387281405E+02  0.47000000000E+01 0.  1.
          5    1    4    4  502    0 -0.80131030693E+01 -0.43681724220E+02 -0.17287941100E+02  0.47888054451E+02  0.47000000000E+01 0.  1.
         -5    1    4    4    0  502  0.36119713681E+02  0.11233205093E+02  0.10253268121E+03  0.10938857037E+03  0.47000000000E+01 0.  1.
<mgrwt>
<rscale>  0 0.28666723E+03</rscale>
<asrwt>0</asrwt>
<pdfrwt beam="1">  1       21 0.26900554E-01 0.28666723E+03</pdfrwt>
<pdfrwt beam="2">  1       21 0.18076243E-01 0.28666723E+03</pdfrwt>
<totfact> 0.35926940E+05</totfact>
</mgrwt>
</event>
<event>
 8    1  0.9974463E-006  0.5284314E+03  0.7546771E-02  0.1006613E+00
         21   -1    0    0  504  503  0.00000000000E+00  0.00000000000E+00  0.11775858841E+03  0.11775858841E+03  0.00000000000E+00 0. -1.
         21   -1    0    0  503  504 -0.00000000000E+00 -0.00000000000E+00 -0.59282241347E+03  0.59282241347E+03  0.00000000000E+00 0. -1.
         25    2    1    2    0    0 -0.15635832164E+03 -0.14907661646E+03 -0.12098316652E+03  0.27737023046E+03  0.12500222335E+03 0.  0.
         25    2    1    2    0    0  0.15635832164E+03  0.14907661646E+03 -0.35408065853E+03  0.43321077142E+03  0.12500678943E+03 0.  0.
          5    1    3    3  501    0 -0.14747099746E+03 -0.82833271235E+02 -0.43056548625E+02  0.17459954838E+03  0.47000000000E+01 0.  1.
         -5    1    3    3    0  501 -0.88873241797E+01 -0.66243345227E+02 -0.77926617899E+02  0.10277068208E+03  0.47000000000E+01 0.  1.
          5    1    4    4  502    0  0.82681519628E+02  0.63762298047E+02 -0.65465485990E+02  0.12332754841E+03  0.47000000000E+01 0.  1.
         -5    1    4    4    0  502  0.73676802011E+02  0.85314318415E+02 -0.28861517254E+03  0.30988322301E+03  0.47000000000E+01 0.  1.
<mgrwt>
<rscale>  0 0.52843138E+03</rscale>
<asrwt>0</asrwt>
<pdfrwt beam="1">  1       21 0.18116706E-01 0.52843138E+03</pdfrwt>
<pdfrwt beam="2">  1       21 0.91203447E-01 0.52843138E+03</pdfrwt>
<totfact> 0.25156624E+04</totfact>
</mgrwt>
</event>
<event>
 8    1  0.9974463E-006  0.3059283E+03  0.7546771E-02  0.1082314E+00
         21   -1    0    0  504  503  0.00000000000E+00  0.00000000000E+00  0.21337155720E+03  0.21337155720E+03  0.00000000000E+00 0. -1.
         21   -1    0    0  503  504 -0.00000000000E+00 -0.00000000000E+00 -0.10965860910E+03  0.10965860910E+03  0.00000000000E+00 0. -1.
         25    2    1    2    0    0  0.49434431780E+02 -0.67581402759E+02  0.81013986402E+02  0.17087641671E+03  0.12499789898E+03 0.  0.
         25    2    1    2    0    0 -0.49434431780E+02  0.67581402759E+02  0.22698961699E+02  0.15215374958E+03  0.12499804641E+03 0.  0.
          5    1    3    3  501    0  0.31009214756E+02  0.31947750519E+02  0.68150775695E+01  0.45285377831E+02  0.47000000000E+01 0.  1.
         -5    1    3    3    0  501  0.18425217024E+02 -0.99529153278E+02  0.74198908833E+02  0.12559103888E+03  0.47000000000E+01 0.  1.
          5    1    4    4  502    0 -0.49457336423E+02 -0.25606623798E+02  0.18042476185E+02  0.58731152341E+02  0.47000000000E+01 0. -1.
         -5    1    4    4    0  502  0.22904643856E-01  0.93188026556E+02  0.46564855142E+01  0.93422597242E+02  0.47000000000E+01 0. -1.
<mgrwt>
<rscale>  0 0.30592828E+03</rscale>
<asrwt>0</asrwt>
<pdfrwt beam="1">  1       21 0.32826393E-01 0.30592828E+03</pdfrwt>
<pdfrwt beam="2">  1       21 0.16870555E-01 0.30592828E+03</pdfrwt>
<totfact> 0.27516159E+05</totfact>
</mgrwt>
</event>
<event>
 8    1  0.9974463E-006  0.4387266E+03  0.7546771E-02  0.1031138E+00
         21   -1    0    0  504  503  0.00000000000E+00  0.00000000000E+00  0.74218291523E+03  0.74218291523E+03  0.00000000000E+00 0.  1.
         21   -1    0    0  503  504 -0.00000000000E+00 -0.00000000000E+00 -0.64836121074E+02  0.64836121074E+02  0.00000000000E+00 0.  1.
         25    2    1    2    0    0 -0.15216490506E+03 -0.65193971578E+02  0.20742817542E+03  0.29335232732E+03  0.12499891089E+03 0.  0.
         25    2    1    2    0    0  0.15216490506E+03  0.65193971578E+02  0.46991861874E+03  0.51366670899E+03  0.12500226968E+03 0.  0.
          5    1    3    3  501    0 -0.66510869032E+02 -0.14817663338E+02  0.58381817784E+01  0.68552412158E+02  0.47000000000E+01 0.  1.
         -5    1    3    3    0  501 -0.85654036028E+02 -0.50376308240E+02  0.20158999364E+03  0.22479991516E+03  0.47000000000E+01 0.  1.
          5    1    4    4  502    0  0.45888736536E+02 -0.27387555916E+02  0.22252985529E+03  0.22890496031E+03  0.47000000000E+01 0.  1.
         -5    1    4    4    0  502  0.10627616852E+03  0.92581527494E+02  0.24738876345E+03  0.28476174868E+03  0.47000000000E+01 0.  1.
<mgrwt>
<rscale>  0 0.43872662E+03</rscale>
<asrwt>0</asrwt>
<pdfrwt beam="1">  1       21 0.11418198E+00 0.43872662E+03</pdfrwt>
<pdfrwt beam="2">  1       21 0.99747884E-02 0.43872662E+03</pdfrwt>
<totfact> 0.44514375E+04</totfact>
</mgrwt>
</event>
<event>
 8    1  0.9974463E-006  0.3073633E+03  0.7546771E-02  0.1081617E+00
         21   -1    0    0  504  503  0.00000000000E+00  0.00000000000E+00  0.21128904363E+03  0.21128904363E+03  0.00000000000E+00 0. -1.
         21   -1    0    0  503  504 -0.00000000000E+00 -0.00000000000E+00 -0.11178073413E+03  0.11178073413E+03  0.00000000000E+00 0. -1.
         25    2    1    2    0    0  0.25514549908E+02 -0.79719166455E+02  0.82780318541E+02  0.17170702069E+03  0.12499832823E+03 0.  0.
         25    2    1    2    0    0 -0.25514549908E+02  0.79719166455E+02  0.16727990961E+02  0.15136275707E+03  0.12499888316E+03 0.  0.
          5    1    3    3  501    0 -0.27711625429E+02 -0.59823886143E+01  0.74996020592E+02  0.80313238399E+02  0.47000000000E+01 0.  1.
         -5    1    3    3    0  501  0.53226175336E+02 -0.73736777841E+02  0.77842979491E+01  0.91393782293E+02  0.47000000000E+01 0.  1.
          5    1    4    4  502    0 -0.11436184667E+02  0.93021428880E+02  0.54598795400E+02  0.10856744913E+03  0.47000000000E+01 0. -1.
         -5    1    4    4    0  502 -0.14078365240E+02 -0.13302262425E+02 -0.37870804439E+02  0.42795307948E+02  0.47000000000E+01 0. -1.
<mgrwt>
<rscale>  0 0.30736327E+03</rscale>
<asrwt>0</asrwt>
<pdfrwt beam="1">  1       21 0.32506007E-01 0.30736327E+03</pdfrwt>
<pdfrwt beam="2">  1       21 0.17197036E-01 0.30736327E+03</pdfrwt>
<totfact> 0.27068371E+05</totfact>
</mgrwt>
</event>
<event>
 8    1  0.9974463E-006  0.2739496E+03  0.7546771E-02  0.1099040E+00
         21   -1    0    0  504  503  0.00000000000E+00  0.00000000000E+00  0.37451619488E+02  0.37451619488E+02  0.00000000000E+00 0.  1.
         21   -1    0    0  503  504 -0.00000000000E+00 -0.00000000000E+00 -0.50096896323E+03  0.50096896323E+03  0.00000000000E+00 0.  1.
         25    2    1    2    0    0 -0.13933285478E+02  0.45687516741E+02 -0.28923184288E+03  0.31868737155E+03  0.12500038487E+03 0.  0.
         25    2    1    2    0    0  0.13933285478E+02 -0.45687516741E+02 -0.17428550086E+03  0.21973321117E+03  0.12500305056E+03 0.  0.
          5    1    3    3  501    0  0.29944306580E+02 -0.11990548828E+02 -0.20454470384E+03  0.20712571213E+03  0.47000000000E+01 0.  1.
         -5    1    3    3    0  501 -0.43877592058E+02  0.57678065569E+02 -0.84687139044E+02  0.11156165942E+03  0.47000000000E+01 0.  1.
          5    1    4    4  502    0  0.49012612840E-01 -0.11353160530E+02  0.19136235748E+02  0.22741639669E+02  0.47000000000E+01 0. -1.
         -5    1    4    4    0  502  0.13884272865E+02 -0.34334356211E+02 -0.19342173661E+03  0.19699157150E+03  0.47000000000E+01 0. -1.
<mgrwt>
<rscale>  0 0.27394962E+03</rscale>
<asrwt>0</asrwt>
<pdfrwt beam="1">  1       21 0.57617884E-02 0.27394962E+03</pdfrwt>
<pdfrwt beam="2">  1       21 0.77072138E-01 0.27394962E+03</pdfrwt>
<totfact> 0.30958662E+05</totfact>
</mgrwt>
</event>
<event>
 8    1  0.9974463E-006  0.2882951E+03  0.7546771E-02  0.1091243E+00
         21   -1    0    0  504  503  0.00000000000E+00  0.00000000000E+00  0.45343438142E+02  0.45343438142E+02  0.00000000000E+00 0. -1.
         21   -1    0    0  503  504 -0.00000000000E+00 -0.00000000000E+00 -0.45824733158E+03  0.45824733158E+03  0.00000000000E+00 0. -1.
         25    2    1    2    0    0  0.24801120751E+02 -0.41639303553E+02 -0.29897347488E+03  0.32765578606E+03  0.12499699301E+03 0.  0.
         25    2    1    2    0    0 -0.24801120751E+02  0.41639303553E+02 -0.11393041856E+03  0.17593498367E+03  0.12499620400E+03 0.  0.
          5    1    3    3  501    0 -0.28747577068E+02 -0.16483478268E+02 -0.13519013442E+02  0.36096841518E+02  0.47000000000E+01 0.  1.
         -5    1    3    3    0  501  0.53548697819E+02 -0.25155825285E+02 -0.28545446144E+03  0.29155894454E+03  0.47000000000E+01 0.  1.
          5    1    4    4  502    0 -0.62938611593E+02  0.45554027055E+02 -0.11310666478E+03  0.13730129580E+03  0.47000000000E+01 0.  1.
         -5    1    4    4    0  502  0.38137490842E+02 -0.39147235023E+01 -0.82375377245E+00  0.38633687865E+02  0.47000000000E+01 0.  1.
<mgrwt>
<rscale>  0 0.28829505E+03</rscale>
<asrwt>0</asrwt>
<pdfrwt beam="1">  1       21 0.69759136E-02 0.28829505E+03</pdfrwt>
<pdfrwt beam="2">  1       21 0.70499589E-01 0.28829505E+03</pdfrwt>
<totfact> 0.27078582E+05</totfact>
</mgrwt>
</event>
<event>
 8    1  0.9974463E-006  0.5114344E+03  0.7546771E-02  0.1010837E+00
         21   -1    0    0  504  503  0.00000000000E+00  0.00000000000E+00  0.26822940930E+03  0.26822940930E+03  0.00000000000E+00 0.  1.
         21   -1    0    0  503  504 -0.00000000000E+00 -0.00000000000E+00 -0.24378865138E+03  0.24378865138E+03  0.00000000000E+00 0.  1.
         25    2    1    2    0    0  0.27015090836E+02 -0.12702128730E+03  0.19381812234E+03  0.26467869833E+03  0.12500050497E+03 0.  0.
         25    2    1    2    0    0 -0.27015090836E+02  0.12702128730E+03 -0.16937736442E+03  0.24733936235E+03  0.12499538404E+03 0.  0.
          5    1    3    3  501    0  0.31191806251E+02  0.36728996979E+01  0.96554081011E+02  0.10164250848E+03  0.47000000000E+01 0.  1.
         -5    1    3    3    0  501 -0.41767154157E+01 -0.13069418700E+03  0.97264041330E+02  0.16303618986E+03  0.47000000000E+01 0.  1.
          5    1    4    4  502    0  0.27607490909E+02  0.12076996708E+03 -0.10426221057E+03  0.16198844729E+03  0.47000000000E+01 0. -1.
         -5    1    4    4    0  502 -0.54622581744E+02  0.62513202204E+01 -0.65115153843E+02  0.85350915056E+02  0.47000000000E+01 0. -1.
<mgrwt>
<rscale>  0 0.51143440E+03</rscale>
<asrwt>0</asrwt>
<pdfrwt beam="1">  1       21 0.41266063E-01 0.51143440E+03</pdfrwt>
<pdfrwt beam="2">  1       21 0.37505947E-01 0.51143440E+03</pdfrwt>
<totfact> 0.35006960E+04</totfact>
</mgrwt>
</event>
<event>
 8    1  0.9974463E-006  0.4702981E+03  0.7546771E-02  0.1021836E+00
         21   -1    0    0  504  503  0.00000000000E+00  0.00000000000E+00  0.22025732972E+04  0.22025732972E+04  0.00000000000E+00 0. -1.
         21   -1    0    0  503  504 -0.00000000000E+00 -0.00000000000E+00 -0.25104755854E+02  0.25104755854E+02  0.00000000000E+00 0. -1.
         25    2    1    2    0    0  0.32305221577E+02  0.19304468316E+03  0.91406628537E+03  0.94310781418E+03  0.12500119236E+03 0.  0.
         25    2    1    2    0    0 -0.32305221577E+02 -0.19304468316E+03  0.12634022560E+04  0.12845702389E+04  0.12500224454E+03 0.  0.
          5    1    3    3  501    0  0.20407981934E+02  0.14165189524E+03  0.37438417053E+03  0.40083330986E+03  0.47000000000E+01 0.  1.
         -5    1    3    3    0  501  0.11897239643E+02  0.51392787922E+02  0.53968211484E+03  0.54227450432E+03  0.47000000000E+01 0.  1.
          5    1    4    4  502    0 -0.26891096559E+02  0.70024511686E+01  0.25027575291E+03  0.25185751506E+03  0.47000000000E+01 0. -1.
         -5    1    4    4    0  502 -0.54141250172E+01 -0.20004713433E+03  0.10131265031E+04  0.10327127239E+04  0.47000000000E+01 0. -1.
<mgrwt>
<rscale>  0 0.47029805E+03</rscale>
<asrwt>0</asrwt>
<pdfrwt beam="1">  1       21 0.33885728E+00 0.47029805E+03</pdfrwt>
<pdfrwt beam="2">  1       21 0.38622719E-02 0.47029805E+03</pdfrwt>
<totfact> 0.69069198E+03</totfact>
</mgrwt>
</event>
<event>
 8    1  0.9974463E-006  0.3121841E+03  0.7546771E-02  0.1079304E+00
         21   -1    0    0  504  503  0.00000000000E+00  0.00000000000E+00  0.11118863253E+03  0.11118863253E+03  0.00000000000E+00 0.  1.
         21   -1    0    0  503  504 -0.00000000000E+00 -0.00000000000E+00 -0.21912971574E+03  0.21912971574E+03  0.00000000000E+00 0.  1.
         25    2    1    2    0    0  0.90653887479E+00  0.45556546871E+02 -0.14035587179E+03  0.19336317995E+03  0.12495330263E+03 0.  0.
         25    2    1    2    0    0 -0.90653887479E+00 -0.45556546871E+02  0.32414788583E+02  0.13695516832E+03  0.12501911388E+03 0.  0.
          5    1    3    3  501    0  0.17619251243E+02  0.55772775903E+02 -0.76937787442E+01  0.59180442527E+02  0.47000000000E+01 0.  1.
         -5    1    3    3    0  501 -0.16712712369E+02 -0.10216229032E+02 -0.13266209304E+03  0.13418273742E+03  0.47000000000E+01 0.  1.
          5    1    4    4  502    0  0.46021708916E+02 -0.59083647512E+02  0.43385409423E+02  0.86679056557E+02  0.47000000000E+01 0.  1.
         -5    1    4    4    0  502 -0.46928247791E+02  0.13527100641E+02 -0.10970620841E+02  0.50276111764E+02  0.47000000000E+01 0.  1.
<mgrwt>
<rscale>  0 0.31218413E+03</rscale>
<asrwt>0</asrwt>
<pdfrwt beam="1">  1       21 0.17105944E-01 0.31218413E+03</pdfrwt>
<pdfrwt beam="2">  1       21 0.33712264E-01 0.31218413E+03</pdfrwt>
<totfact> 0.25397658E+05</totfact>
</mgrwt>
</event>
<event>
 8    1  0.9974463E-006  0.2536147E+03  0.7546771E-02  0.1111042E+00
         21   -1    0    0  504  503  0.00000000000E+00  0.00000000000E+00  0.86103031592E+02  0.86103031592E+02  0.00000000000E+00 0. -1.
         21   -1    0    0  503  504 -0.00000000000E+00 -0.00000000000E+00 -0.18675414616E+03  0.18675414616E+03  0.00000000000E+00 0. -1.
         25    2    1    2    0    0  0.16649760639E+02 -0.13268403932E+02 -0.50100088471E+02  0.13635058771E+03  0.12501279467E+03 0.  0.
         25    2    1    2    0    0 -0.16649760639E+02  0.13268403932E+02 -0.50551026099E+02  0.13650659005E+03  0.12500151125E+03 0.  0.
          5    1    3    3  501    0 -0.26037526187E+02 -0.81786271222E+01 -0.79415141510E+02  0.84105275771E+02  0.47000000000E+01 0.  1.
         -5    1    3    3    0  501  0.42687286826E+02 -0.50897768100E+01  0.29315053039E+02  0.52245311935E+02  0.47000000000E+01 0.  1.
          5    1    4    4  502    0  0.13226403391E+02  0.96795706579E+01  0.38653086201E+02  0.42246691085E+02  0.47000000000E+01 0. -1.
         -5    1    4    4    0  502 -0.29876164030E+02  0.35888332743E+01 -0.89204112300E+02  0.94259898964E+02  0.47000000000E+01 0. -1.
<mgrwt>
<rscale>  0 0.25361465E+03</rscale>
<asrwt>0</asrwt>
<pdfrwt beam="1">  1       21 0.13246620E-01 0.25361465E+03</pdfrwt>
<pdfrwt beam="2">  1       21 0.28731407E-01 0.25361465E+03</pdfrwt>
<totfact> 0.56319996E+05</totfact>
</mgrwt>
</event>
<event>
 8    1  0.9974463E-006  0.2798708E+03  0.7546771E-02  0.1095760E+00
         21   -1    0    0  504  503  0.00000000000E+00  0.00000000000E+00  0.95189085258E+02  0.95189085258E+02  0.00000000000E+00 0.  1.
         21   -1    0    0  503  504 -0.00000000000E+00 -0.00000000000E+00 -0.20571596717E+03  0.20571596717E+03  0.00000000000E+00 0.  1.
         25    2    1    2    0    0 -0.24458778058E+01 -0.37822700899E+02 -0.12649435177E+01  0.13062820074E+03  0.12500235088E+03 0.  0.
         25    2    1    2    0    0  0.24458778058E+01  0.37822700899E+02 -0.10926193839E+03  0.17027685169E+03  0.12497798213E+03 0.  0.
          5    1    3    3  501    0  0.43295695724E+02  0.22619905338E+02  0.18010892308E+02  0.52274846987E+02  0.47000000000E+01 0. -1.
         -5    1    3    3    0  501 -0.45741573530E+02 -0.60442606237E+02 -0.19275835826E+02  0.78353353754E+02  0.47000000000E+01 0. -1.
          5    1    4    4  502    0  0.34216948819E+02  0.73728780089E+02 -0.78635309976E+02  0.11319158350E+03  0.47000000000E+01 0. -1.
         -5    1    4    4    0  502 -0.31771071013E+02 -0.35906079190E+02 -0.30626628419E+02  0.57085268191E+02  0.47000000000E+01 0. -1.
<mgrwt>
<rscale>  0 0.27987079E+03</rscale>
<asrwt>0</asrwt>
<pdfrwt beam="1">  1       21 0.14644475E-01 0.27987079E+03</pdfrwt>
<pdfrwt beam="2">  1       21 0.31648610E-01 0.27987079E+03</pdfrwt>
<totfact> 0.38606785E+05</totfact>
</mgrwt>
</event>
<event>
 8    1  0.9974463E-006  0.3723045E+03  0.7546771E-02  0.1053815E+00
         21   -1    0    0  504  503  0.00000000000E+00  0.00000000000E+00  0.57371912536E+03  0.57371912536E+03  0.00000000000E+00 0.  1.
         21   -1    0    0  503  504 -0.00000000000E+00 -0.00000000000E+00 -0.60400042148E+02  0.60400042148E+02  0.00000000000E+00 0.  1.
         25    2    1    2    0    0  0.41073112233E+02  0.13118048685E+03  0.23704665277E+03  0.30118429213E+03  0.12500216621E+03 0.  0.
         25    2    1    2    0    0 -0.41073112233E+02 -0.13118048685E+03  0.27627243045E+03  0.33293487538E+03  0.12499541888E+03 0.  0.
          5    1    3    3  501    0  0.61452427148E+01  0.11911312769E+03  0.23535620341E+03  0.26389455031E+03  0.47000000000E+01 0. -1.
         -5    1    3    3    0  501  0.34927869518E+02  0.12067359161E+02  0.16904493537E+01  0.37289741823E+02  0.47000000000E+01 0. -1.
          5    1    4    4  502    0  0.23834952087E+01  0.22704034930E+02  0.56390410094E+02  0.61017395897E+02  0.47000000000E+01 0.  1.
         -5    1    4    4    0  502 -0.43456607441E+02 -0.15388452178E+03  0.21988202035E+03  0.27191747948E+03  0.47000000000E+01 0.  1.
<mgrwt>
<rscale>  0 0.37230450E+03</rscale>
<asrwt>0</asrwt>
<pdfrwt beam="1">  1       21 0.88264477E-01 0.37230450E+03</pdfrwt>
<pdfrwt beam="2">  1       21 0.92923146E-02 0.37230450E+03</pdfrwt>
<totfact> 0.95854921E+04</totfact>
</mgrwt>
</event>
<event>
 8    1  0.9974463E-006  0.2627971E+03  0.7546771E-02  0.1105474E+00
         21   -1    0    0  504  503  0.00000000000E+00  0.00000000000E+00  0.53036376350E+03  0.53036376350E+03  0.00000000000E+00 0. -1.
         21   -1    0    0  503  504 -0.00000000000E+00 -0.00000000000E+00 -0.32554216552E+02  0.32554216552E+02  0.00000000000E+00 0. -1.
         25    2    1    2    0    0 -0.27589280745E+02 -0.27687299600E+02  0.27136145072E+03  0.30132469874E+03  0.12502712570E+03 0.  0.
         25    2    1    2    0    0  0.27589280745E+02  0.27687299600E+02  0.22644809623E+03  0.26159328132E+03  0.12499819828E+03 0.  0.
          5    1    3    3  501    0 -0.33004672785E+02 -0.56239440495E+02  0.26259093018E+03  0.27060722405E+03  0.47000000000E+01 0. -1.
         -5    1    3    3    0  501  0.54153920393E+01  0.28552140896E+02  0.87705205353E+01  0.30717474687E+02  0.47000000000E+01 0. -1.
          5    1    4    4  502    0  0.37396208639E+02 -0.79315642919E+01  0.71731401023E+01  0.39178183618E+02  0.47000000000E+01 0.  1.
         -5    1    4    4    0  502 -0.98069278937E+01  0.35618863891E+02  0.21927495613E+03  0.22241509770E+03  0.47000000000E+01 0.  1.
<mgrwt>
<rscale>  0 0.26279708E+03</rscale>
<asrwt>0</asrwt>
<pdfrwt beam="1">  1       21 0.81594419E-01 0.26279708E+03</pdfrwt>
<pdfrwt beam="2">  1       21 0.50083414E-02 0.26279708E+03</pdfrwt>
<totfact> 0.34658177E+05</totfact>
</mgrwt>
</event>
<event>
 8    1  0.9974463E-006  0.3585737E+03  0.7546771E-02  0.1059150E+00
         21   -1    0    0  504  503  0.00000000000E+00  0.00000000000E+00  0.22093100249E+03  0.22093100249E+03  0.00000000000E+00 0.  1.
         21   -1    0    0  503  504 -0.00000000000E+00 -0.00000000000E+00 -0.14549234663E+03  0.14549234663E+03  0.00000000000E+00 0.  1.
         25    2    1    2    0    0  0.11031147511E+03  0.96351211395E+01  0.10438475720E+03  0.19693935363E+03  0.12500989710E+03 0.  0.
         25    2    1    2    0    0 -0.11031147511E+03 -0.96351211395E+01 -0.28946101341E+02  0.16948399549E+03  0.12500196337E+03 0.  0.
          5    1    3    3  501    0  0.13519266766E+03  0.24455701491E+02  0.89553005171E+02  0.16406391883E+03  0.47000000000E+01 0.  1.
         -5    1    3    3    0  501 -0.24881192558E+02 -0.14820580351E+02  0.14831752031E+02  0.32875434801E+02  0.47000000000E+01 0.  1.
          5    1    4    4  502    0 -0.12515519642E+02 -0.40271642033E+02  0.29249582517E+02  0.51537088212E+02  0.47000000000E+01 0.  1.
         -5    1    4    4    0  502 -0.97795955464E+02  0.30636520893E+02 -0.58195683858E+02  0.11794690728E+03  0.47000000000E+01 0.  1.
<mgrwt>
<rscale>  0 0.35857367E+03</rscale>
<asrwt>0</asrwt>
<pdfrwt beam="1">  1       21 0.33989385E-01 0.35857367E+03</pdfrwt>
<pdfrwt beam="2">  1       21 0.22383438E-01 0.35857367E+03</pdfrwt>
<totfact> 0.14898989E+05</totfact>
</mgrwt>
</event>
<event>
 8    1  0.9974463E-006  0.2715184E+03  0.7546771E-02  0.1100414E+00
         21   -1    0    0  504  503  0.00000000000E+00  0.00000000000E+00  0.18514989235E+03  0.18514989235E+03  0.00000000000E+00 0.  1.
         21   -1    0    0  503  504 -0.00000000000E+00 -0.00000000000E+00 -0.99544020540E+02  0.99544020540E+02  0.00000000000E+00 0.  1.
         25    2    1    2    0    0 -0.23240516600E+02 -0.20147107208E+01  0.92664520505E+02  0.15733981593E+03  0.12499969458E+03 0.  0.
         25    2    1    2    0    0  0.23240516600E+02  0.20147107208E+01 -0.70586486915E+01  0.12735409697E+03  0.12500024329E+03 0.  0.
          5    1    3    3  501    0  0.21979558882E+02 -0.25317871998E+02  0.10013971052E+03  0.10570783923E+03  0.47000000000E+01 0. -1.
         -5    1    3    3    0  501 -0.45220075482E+02  0.23303161277E+02 -0.74751900168E+01  0.51631976699E+02  0.47000000000E+01 0. -1.
          5    1    4    4  502    0  0.49959697253E+02  0.48827252078E+02  0.97652553419E+01  0.70693154598E+02  0.47000000000E+01 0. -1.
         -5    1    4    4    0  502 -0.26719180653E+02 -0.46812541358E+02 -0.16823904033E+02  0.56660942368E+02  0.47000000000E+01 0. -1.
<mgrwt>
<rscale>  0 0.27151843E+03</rscale>
<asrwt>0</asrwt>
<pdfrwt beam="1">  1       21 0.28484599E-01 0.27151843E+03</pdfrwt>
<pdfrwt beam="2">  1       21 0.15314465E-01 0.27151843E+03</pdfrwt>
<totfact> 0.43810845E+05</totfact>
</mgrwt>
</event>
<event>
 8    1  0.9974463E-006  0.2631958E+03  0.7546771E-02  0.1105238E+00
         21   -1    0    0  504  503  0.00000000000E+00  0.00000000000E+00  0.19211029258E+03  0.19211029258E+03  0.00000000000E+00 0. -1.
         21   -1    0    0  503  504 -0.00000000000E+00 -0.00000000000E+00 -0.90146164561E+02  0.90146164561E+02  0.00000000000E+00 0. -1.
         25    2    1    2    0    0  0.34805604256E+00 -0.37111135263E+02  0.70009236035E+02  0.14799416888E+03  0.12499449344E+03 0.  0.
         25    2    1    2    0    0 -0.34805604256E+00  0.37111135263E+02  0.31954891989E+02  0.13426228826E+03  0.12501155716E+03 0.  0.
          5    1    3    3  501    0 -0.85857635335E+01  0.48880683322E+01 -0.33816039574E+02  0.35541849698E+02  0.47000000000E+01 0. -1.
         -5    1    3    3    0  501  0.89338195761E+01 -0.41999203595E+02  0.10382527561E+03  0.11245231919E+03  0.47000000000E+01 0. -1.
          5    1    4    4  502    0 -0.49951572284E+02  0.57725809466E+02  0.18855307882E+02  0.78772084443E+02  0.47000000000E+01 0.  1.
         -5    1    4    4    0  502  0.49603516242E+02 -0.20614674203E+02  0.13099584107E+02  0.55490203818E+02  0.47000000000E+01 0.  1.
<mgrwt>
<rscale>  0 0.26319579E+03</rscale>
<asrwt>0</asrwt>
<pdfrwt beam="1">  1       21 0.29555430E-01 0.26319579E+03</pdfrwt>
<pdfrwt beam="2">  1       21 0.13868641E-01 0.26319579E+03</pdfrwt>
<totfact> 0.48942622E+05</totfact>
</mgrwt>
</event>
<event>
 8    1  0.9974463E-006  0.2774968E+03  0.7546771E-02  0.1097064E+00
         21   -1    0    0  504  503  0.00000000000E+00  0.00000000000E+00  0.14233063236E+04  0.14233063236E+04  0.00000000000E+00 0. -1.
         21   -1    0    0  503  504 -0.00000000000E+00 -0.00000000000E+00 -0.13525637303E+02  0.13525637303E+02  0.00000000000E+00 0. -1.
         25    2    1    2    0    0  0.37032449191E+02  0.83991867672E+01  0.94682113736E+03  0.95579138622E+03  0.12499983675E+03 0.  0.
         25    2    1    2    0    0 -0.37032449191E+02 -0.83991867672E+01  0.46295954892E+03  0.48104057466E+03  0.12500616748E+03 0.  0.
          5    1    3    3  501    0  0.79686566325E+02 -0.17580362156E+01  0.45101341187E+03  0.45802644818E+03  0.47000000000E+01 0. -1.
         -5    1    3    3    0  501 -0.42654117135E+02  0.10157222983E+02  0.49580772549E+03  0.49776493804E+03  0.47000000000E+01 0. -1.
          5    1    4    4  502    0 -0.20047388680E+02  0.43460011652E+02  0.74068506943E+02  0.88311404283E+02  0.47000000000E+01 0.  1.
         -5    1    4    4    0  502 -0.16985060511E+02 -0.51859198419E+02  0.38889104197E+03  0.39272917038E+03  0.47000000000E+01 0.  1.
<mgrwt>
<rscale>  0 0.27749685E+03</rscale>
<asrwt>0</asrwt>
<pdfrwt beam="1">  1       21 0.21897009E+00 0.27749685E+03</pdfrwt>
<pdfrwt beam="2">  1       21 0.20808684E-02 0.27749685E+03</pdfrwt>
<totfact> 0.11265306E+05</totfact>
</mgrwt>
</event>
<event>
 8    1  0.9974463E-006  0.2790096E+03  0.7546771E-02  0.1096231E+00
         21   -1    0    0  504  503  0.00000000000E+00  0.00000000000E+00  0.21789991491E+03  0.21789991491E+03  0.00000000000E+00 0. -1.
         21   -1    0    0  503  504 -0.00000000000E+00 -0.00000000000E+00 -0.89314340126E+02  0.89314340126E+02  0.00000000000E+00 0. -1.
         25    2    1    2    0    0  0.52834841728E+02 -0.22372422063E+02  0.38567272308E+02  0.14283494584E+03  0.12498936551E+03 0.  0.
         25    2    1    2    0    0 -0.52834841728E+02  0.22372422063E+02  0.90018302473E+02  0.16437930919E+03  0.12500086696E+03 0.  0.
          5    1    3    3  501    0 -0.28806050353E+02 -0.39690107466E+02 -0.32408678710E+01  0.49372931775E+02  0.47000000000E+01 0. -1.
         -5    1    3    3    0  501  0.81640892081E+02  0.17317685403E+02  0.41808140179E+02  0.93462014063E+02  0.47000000000E+01 0. -1.
          5    1    4    4  502    0 -0.55631579838E+02  0.61433038116E+02  0.93200970168E+02  0.12480946153E+03  0.47000000000E+01 0. -1.
         -5    1    4    4    0  502  0.27967381094E+01 -0.39060616053E+02 -0.31826676954E+01  0.39569847664E+02  0.47000000000E+01 0. -1.
<mgrwt>
<rscale>  0 0.27900958E+03</rscale>
<asrwt>0</asrwt>
<pdfrwt beam="1">  1       21 0.33523064E-01 0.27900958E+03</pdfrwt>
<pdfrwt beam="2">  1       21 0.13740668E-01 0.27900958E+03</pdfrwt>
<totfact> 0.38699516E+05</totfact>
</mgrwt>
</event>
<event>
 8    1  0.9974463E-006  0.3151644E+03  0.7546771E-02  0.1077897E+00
         21   -1    0    0  504  503  0.00000000000E+00  0.00000000000E+00  0.34975912039E+02  0.34975912039E+02  0.00000000000E+00 0. -1.
         21   -1    0    0  503  504 -0.00000000000E+00 -0.00000000000E+00 -0.70997867452E+03  0.70997867452E+03  0.00000000000E+00 0. -1.
         25    2    1    2    0    0 -0.79449405780E+02  0.50955418839E+02 -0.29670778772E+03  0.33551451913E+03  0.12500327382E+03 0.  0.
         25    2    1    2    0    0  0.79449405780E+02 -0.50955418839E+02 -0.37829497476E+03  0.40944006743E+03  0.12500167238E+03 0.  0.
          5    1    3    3  501    0 -0.47146233026E+02  0.71319581873E+01 -0.17499945934E+02  0.51009511112E+02  0.47000000000E+01 0.  1.
         -5    1    3    3    0  501 -0.32303172754E+02  0.43823460652E+02 -0.27920784179E+03  0.28450500802E+03  0.47000000000E+01 0.  1.
          5    1    4    4  502    0  0.10779327164E+03 -0.13790472197E+02 -0.28331677785E+03  0.30347990568E+03  0.47000000000E+01 0.  1.
         -5    1    4    4    0  502 -0.28343865863E+02 -0.37164946642E+02 -0.94978196909E+02  0.10596016175E+03  0.47000000000E+01 0.  1.
<mgrwt>
<rscale>  0 0.31516441E+03</rscale>
<asrwt>0</asrwt>
<pdfrwt beam="1">  1       21 0.53809104E-02 0.31516441E+03</pdfrwt>
<pdfrwt beam="2">  1       21 0.10922747E+00 0.31516441E+03</pdfrwt>
<totfact> 0.15163168E+05</totfact>
</mgrwt>
</event>
<event>
 8    1  0.9974463E-006  0.2686686E+03  0.7546771E-02  0.1102044E+00
         21   -1    0    0  504  503  0.00000000000E+00  0.00000000000E+00  0.97733634615E+02  0.97733634615E+02  0.00000000000E+00 0.  1.
         21   -1    0    0  503  504 -0.00000000000E+00 -0.00000000000E+00 -0.18464167635E+03  0.18464167635E+03  0.00000000000E+00 0.  1.
         25    2    1    2    0    0  0.12894698513E+02  0.38154394658E+02 -0.73162750688E+02  0.15033094183E+03  0.12499829159E+03 0.  0.
         25    2    1    2    0    0 -0.12894698513E+02 -0.38154394658E+02 -0.13745291050E+02  0.13204436914E+03  0.12499900525E+03 0.  0.
          5    1    3    3  501    0 -0.46408721967E+02  0.22344313224E+02  0.37054728809E+01  0.51854202697E+02  0.47000000000E+01 0. -1.
         -5    1    3    3    0  501  0.59303420480E+02  0.15810081434E+02 -0.76868223569E+02  0.98476739133E+02  0.47000000000E+01 0. -1.
          5    1    4    4  502    0  0.26350284326E+00 -0.82252087183E+02  0.40378392338E+01  0.82485571014E+02  0.47000000000E+01 0.  1.
         -5    1    4    4    0  502 -0.13158201356E+02  0.44097692525E+02 -0.17783130284E+02  0.49558798126E+02  0.47000000000E+01 0.  1.
<mgrwt>
<rscale>  0 0.26866858E+03</rscale>
<asrwt>0</asrwt>
<pdfrwt beam="1">  1       21 0.15035944E-01 0.26866858E+03</pdfrwt>
<pdfrwt beam="2">  1       21 0.28406411E-01 0.26866858E+03</pdfrwt>
<totfact> 0.45579808E+05</totfact>
</mgrwt>
</event>
<event>
 8    1  0.9974463E-006  0.2810012E+03  0.7546771E-02  0.1095143E+00
         21   -1    0    0  504  503  0.00000000000E+00  0.00000000000E+00  0.41670768689E+02  0.41670768689E+02  0.00000000000E+00 0.  1.
         21   -1    0    0  503  504 -0.00000000000E+00 -0.00000000000E+00 -0.47372348677E+03  0.47372348677E+03  0.00000000000E+00 0.  1.
         25    2    1    2    0    0 -0.56969195616E+02  0.22962855228E+02 -0.18206907735E+03  0.22923087339E+03  0.12499944967E+03 0.  0.
         25    2    1    2    0    0  0.56969195616E+02 -0.22962855228E+02 -0.24998364073E+03  0.28616338207E+03  0.12499951455E+03 0.  0.
          5    1    3    3  501    0 -0.87021166188E+02  0.42823559533E+00 -0.72684920439E+02  0.11348151572E+03  0.47000000000E+01 0.  1.
         -5    1    3    3    0  501  0.30051970573E+02  0.22534619632E+02 -0.10938415691E+03  0.11574935767E+03  0.47000000000E+01 0.  1.
          5    1    4    4  502    0 -0.14472073635E+02 -0.48879033253E+02 -0.47493596928E+02  0.69830742200E+02  0.47000000000E+01 0.  1.
         -5    1    4    4    0  502  0.71441269251E+02  0.25916178025E+02 -0.20249004380E+03  0.21633263987E+03  0.47000000000E+01 0.  1.
<mgrwt>
<rscale>  0 0.28100122E+03</rscale>
<asrwt>0</asrwt>
<pdfrwt beam="1">  1       21 0.64108874E-02 0.28100122E+03</pdfrwt>
<pdfrwt beam="2">  1       21 0.72880537E-01 0.28100122E+03</pdfrwt>
<totfact> 0.29160201E+05</totfact>
</mgrwt>
</event>
<event>
 8    1  0.9974463E-006  0.2674919E+03  0.7546771E-02  0.1102724E+00
         21   -1    0    0  504  503  0.00000000000E+00  0.00000000000E+00  0.21617734102E+02  0.21617734102E+02  0.00000000000E+00 0. -1.
         21   -1    0    0  503  504 -0.00000000000E+00 -0.00000000000E+00 -0.82746760102E+03  0.82746760102E+03  0.00000000000E+00 0. -1.
         25    2    1    2    0    0 -0.58961016917E+01  0.22511948152E+02 -0.27124540060E+03  0.29956758118E+03  0.12500046609E+03 0.  0.
         25    2    1    2    0    0  0.58961016917E+01 -0.22511948152E+02 -0.53460446632E+03  0.54951775395E+03  0.12500509856E+03 0.  0.
          5    1    3    3  501    0  0.12204222469E+02 -0.40873480356E+02 -0.19025970816E+03  0.19503956263E+03  0.47000000000E+01 0.  1.
         -5    1    3    3    0  501 -0.18100324160E+02  0.63385428508E+02 -0.80985692442E+02  0.10452801855E+03  0.47000000000E+01 0.  1.
          5    1    4    4  502    0  0.39940253530E+02  0.26820357321E+02 -0.38895172472E+03  0.39194398781E+03  0.47000000000E+01 0. -1.
         -5    1    4    4    0  502 -0.34044151838E+02 -0.49332305472E+02 -0.14565274160E+03  0.15757376613E+03  0.47000000000E+01 0. -1.
<mgrwt>
<rscale>  0 0.26749187E+03</rscale>
<asrwt>0</asrwt>
<pdfrwt beam="1">  1       21 0.33258054E-02 0.26749187E+03</pdfrwt>
<pdfrwt beam="2">  1       21 0.12730270E+00 0.26749187E+03</pdfrwt>
<totfact> 0.23713403E+05</totfact>
</mgrwt>
</event>
<event>
 8    1  0.9974463E-006  0.3801803E+03  0.7546771E-02  0.1050867E+00
         21   -1    0    0  504  503  0.00000000000E+00  0.00000000000E+00  0.97927864434E+02  0.97927864434E+02  0.00000000000E+00 0.  1.
         21   -1    0    0  503  504 -0.00000000000E+00 -0.00000000000E+00 -0.36898864881E+03  0.36898864881E+03  0.00000000000E+00 0.  1.
         25    2    1    2    0    0  0.68380950824E+02  0.43548967950E+02  0.94757246656E+01  0.14927293937E+03  0.12498061460E+03 0.  0.
         25    2    1    2    0    0 -0.68380950824E+02 -0.43548967950E+02 -0.28053650905E+03  0.31764357388E+03  0.12499696025E+03 0.  0.
          5    1    3    3  501    0 -0.29444876367E+02 -0.16021327889E+02  0.72598502335E+01  0.34619057137E+02  0.47000000000E+01 0.  1.
         -5    1    3    3    0  501  0.97825827192E+02  0.59570295839E+02  0.22158744321E+01  0.11465388224E+03  0.47000000000E+01 0.  1.
          5    1    4    4  502    0 -0.70599993412E+02  0.26202885636E+02 -0.17995072607E+03  0.19512894223E+03  0.47000000000E+01 0. -1.
         -5    1    4    4    0  502  0.22190425880E+01 -0.69751853586E+02 -0.10058578298E+03  0.12251463164E+03  0.47000000000E+01 0. -1.
<mgrwt>
<rscale>  0 0.38018033E+03</rscale>
<asrwt>0</asrwt>
<pdfrwt beam="1">  1       21 0.15065826E-01 0.38018033E+03</pdfrwt>
<pdfrwt beam="2">  1       21 0.56767483E-01 0.38018033E+03</pdfrwt>
<totfact> 0.10745082E+05</totfact>
</mgrwt>
</event>
<event>
 8    1  0.9974463E-006  0.3222449E+03  0.7546771E-02  0.1074621E+00
         21   -1    0    0  504  503  0.00000000000E+00  0.00000000000E+00  0.15619984861E+02  0.15619984861E+02  0.00000000000E+00 0. -1.
         21   -1    0    0  503  504 -0.00000000000E+00 -0.00000000000E+00 -0.16620023482E+04  0.16620023482E+04  0.00000000000E+00 0. -1.
         25    2    1    2    0    0  0.47911432292E+01 -0.47065526567E+02 -0.12916591612E+04  0.12985547802E+04  0.12499203829E+03 0.  0.
         25    2    1    2    0    0 -0.47911432292E+01  0.47065526567E+02 -0.35472320212E+03  0.37906755283E+03  0.12500216257E+03 0.  0.
          5    1    3    3  501    0  0.43227121301E+02 -0.33667243240E+02 -0.24508628777E+03  0.25118010617E+03  0.47000000000E+01 0. -1.
         -5    1    3    3    0  501 -0.38435978072E+02 -0.13398283327E+02 -0.10465728735E+04  0.10473746741E+04  0.47000000000E+01 0. -1.
          5    1    4    4  502    0  0.40504284460E+01  0.39754971256E+02 -0.36230680578E+03  0.36453418938E+03  0.47000000000E+01 0. -1.
         -5    1    4    4    0  502 -0.88415716751E+01  0.73105553107E+01  0.75836036688E+01  0.14533363452E+02  0.47000000000E+01 0. -1.
<mgrwt>
<rscale>  0 0.32224495E+03</rscale>
<asrwt>0</asrwt>
<pdfrwt beam="1">  1       21 0.24030752E-02 0.32224495E+03</pdfrwt>
<pdfrwt beam="2">  1       21 0.25569260E+00 0.32224495E+03</pdfrwt>
<totfact> 0.51883033E+04</totfact>
</mgrwt>
</event>
<event>
 8    1  0.9974463E-006  0.2989236E+03  0.7546771E-02  0.1085780E+00
         21   -1    0    0  504  503  0.00000000000E+00  0.00000000000E+00  0.80981340875E+02  0.80981340875E+02  0.00000000000E+00 0. -1.
         21   -1    0    0  503  504 -0.00000000000E+00 -0.00000000000E+00 -0.27585162613E+03  0.27585162613E+03  0.00000000000E+00 0. -1.
         25    2    1    2    0    0  0.26007411142E+02 -0.70684949012E+02 -0.13593154093E+03  0.19943814219E+03  0.12500176515E+03 0.  0.
         25    2    1    2    0    0 -0.26007411142E+02  0.70684949012E+02 -0.58938744321E+02  0.15739482481E+03  0.12500643121E+03 0.  0.
          5    1    3    3  501    0  0.17100457392E+02 -0.75293576120E+02 -0.15734427111E+03  0.17533071009E+03  0.47000000000E+01 0.  1.
         -5    1    3    3    0  501  0.89069537495E+01  0.46086271071E+01  0.21412730181E+02  0.24107432105E+02  0.47000000000E+01 0.  1.
          5    1    4    4  502    0  0.76831133726E+01  0.69415749999E+02 -0.88134282005E+02  0.11254918144E+03  0.47000000000E+01 0. -1.
         -5    1    4    4    0  502 -0.33690524514E+02  0.12691990138E+01  0.29195537685E+02  0.44845643366E+02  0.47000000000E+01 0. -1.
<mgrwt>
<rscale>  0 0.29892363E+03</rscale>
<asrwt>0</asrwt>
<pdfrwt beam="1">  1       21 0.12458668E-01 0.29892363E+03</pdfrwt>
<pdfrwt beam="2">  1       21 0.42438712E-01 0.29892363E+03</pdfrwt>
<totfact> 0.28579610E+05</totfact>
</mgrwt>
</event>
<event>
 8    1  0.9974463E-006  0.2542966E+03  0.7546771E-02  0.1110619E+00
         21   -1    0    0  504  503  0.00000000000E+00  0.00000000000E+00  0.30310253464E+03  0.30310253464E+03  0.00000000000E+00 0.  1.
         21   -1    0    0  503  504 -0.00000000000E+00 -0.00000000000E+00 -0.53337355921E+02  0.53337355921E+02  0.00000000000E+00 0.  1.
         25    2    1    2    0    0  0.13970877730E+02 -0.18158114830E+02  0.11930382868E+03  0.17431008952E+03  0.12500280482E+03 0.  0.
         25    2    1    2    0    0 -0.13970877730E+02  0.18158114830E+02  0.13046135004E+03  0.18212980104E+03  0.12500479196E+03 0.  0.
          5    1    3    3  501    0 -0.38050779266E+02  0.10262203719E+02 -0.14420515813E+01  0.39715792081E+02  0.47000000000E+01 0. -1.
         -5    1    3    3    0  501  0.52021656996E+02 -0.28420318548E+02  0.12074588026E+03  0.13459429744E+03  0.47000000000E+01 0. -1.
          5    1    4    4  502    0 -0.53039534086E+02 -0.32332144361E+02  0.74418630029E+02  0.97050410769E+02  0.47000000000E+01 0.  1.
         -5    1    4    4    0  502  0.39068656356E+02  0.50490259191E+02  0.56042720007E+02  0.85079390268E+02  0.47000000000E+01 0.  1.
<mgrwt>
<rscale>  0 0.25429658E+03</rscale>
<asrwt>0</asrwt>
<pdfrwt beam="1">  1       21 0.46631158E-01 0.25429658E+03</pdfrwt>
<pdfrwt beam="2">  1       21 0.82057472E-02 0.25429658E+03</pdfrwt>
<totfact> 0.49934370E+05</totfact>
</mgrwt>
</event>
<event>
 8    1  0.9974463E-006  0.4907050E+03  0.7546771E-02  0.1016234E+00
         21   -1    0    0  504  503  0.00000000000E+00  0.00000000000E+00  0.72690474173E+03  0.72690474173E+03  0.00000000000E+00 0. -1.
         21   -1    0    0  503  504 -0.00000000000E+00 -0.00000000000E+00 -0.82813956127E+02  0.82813956127E+02  0.00000000000E+00 0. -1.
         25    2    1    2    0    0 -0.89861464644E+02  0.18996064959E+03  0.35556501465E+03  0.43152232673E+03  0.12499963040E+03 0.  0.
         25    2    1    2    0    0  0.89861464644E+02 -0.18996064959E+03  0.28852577095E+03  0.37819637113E+03  0.12500097365E+03 0.  0.
          5    1    3    3  501    0 -0.47217967682E+02  0.80906054523E+02  0.54559610125E+02  0.10850883461E+03  0.47000000000E+01 0. -1.
         -5    1    3    3    0  501 -0.42643496962E+02  0.10905459507E+03  0.30100540453E+03  0.32301349212E+03  0.47000000000E+01 0. -1.
          5    1    4    4  502    0  0.66882246019E+02 -0.15223506438E+03  0.12318292388E+03  0.20699002970E+03  0.47000000000E+01 0.  1.
         -5    1    4    4    0  502  0.22979218624E+02 -0.37725585208E+02  0.16534284708E+03  0.17120634143E+03  0.47000000000E+01 0.  1.
<mgrwt>
<rscale>  0 0.49070503E+03</rscale>
<asrwt>0</asrwt>
<pdfrwt beam="1">  1       21 0.11183149E+00 0.49070503E+03</pdfrwt>
<pdfrwt beam="2">  1       21 0.12740609E-01 0.49070503E+03</pdfrwt>
<totfact> 0.29694083E+04</totfact>
</mgrwt>
</event>
<event>
 8    1  0.9974463E-006  0.3512333E+03  0.7546771E-02  0.1062110E+00
         21   -1    0    0  504  503  0.00000000000E+00  0.00000000000E+00  0.18303790065E+03  0.18303790065E+03  0.00000000000E+00 0.  1.
         21   -1    0    0  503  504 -0.00000000000E+00 -0.00000000000E+00 -0.16849628460E+03  0.16849628460E+03  0.00000000000E+00 0.  1.
         25    2    1    2    0    0 -0.11433001909E+01 -0.96857422405E+02  0.83717262322E+02  0.17893166817E+03  0.12500117781E+03 0.  0.
         25    2    1    2    0    0  0.11433001909E+01  0.96857422405E+02 -0.69175646268E+02  0.17260251708E+03  0.12499476571E+03 0.  0.
          5    1    3    3  501    0  0.47381533114E+02 -0.13716371581E+02  0.63343106205E+02  0.80421313302E+02  0.47000000000E+01 0.  1.
         -5    1    3    3    0  501 -0.48524833305E+02 -0.83141050824E+02  0.20374156117E+02  0.98510354871E+02  0.47000000000E+01 0.  1.
          5    1    4    4  502    0  0.23861585435E+02  0.51947473669E+02 -0.98632169898E+02  0.11409780988E+03  0.47000000000E+01 0. -1.
         -5    1    4    4    0  502 -0.22718285245E+02  0.44909948735E+02  0.29456523630E+02  0.58504707197E+02  0.47000000000E+01 0. -1.
<mgrwt>
<rscale>  0 0.35123329E+03</rscale>
<asrwt>0</asrwt>
<pdfrwt beam="1">  1       21 0.28159677E-01 0.35123329E+03</pdfrwt>
<pdfrwt beam="2">  1       21 0.25922505E-01 0.35123329E+03</pdfrwt>
<totfact> 0.16329768E+05</totfact>
</mgrwt>
</event>
<event>
 8    1  0.9974463E-006  0.4857170E+03  0.7546771E-02  0.1017576E+00
         21   -1    0    0  504  503  0.00000000000E+00  0.00000000000E+00  0.16098572580E+03  0.16098572580E+03  0.00000000000E+00 0. -1.
         21   -1    0    0  503  504 -0.00000000000E+00 -0.00000000000E+00 -0.36636947237E+03  0.36636947237E+03  0.00000000000E+00 0. -1.
         25    2    1    2    0    0  0.86422453612E+02 -0.31042045011E+02  0.10020267501E+03  0.18465865936E+03  0.12500318136E+03 0.  0.
         25    2    1    2    0    0 -0.86422453612E+02  0.31042045011E+02 -0.30558642159E+03  0.34269653882E+03  0.12500163044E+03 0.  0.
          5    1    3    3  501    0  0.11620863244E+03 -0.24479132744E+02  0.57656343654E+02  0.13209851687E+03  0.47000000000E+01 0.  1.
         -5    1    3    3    0  501 -0.29786178832E+02 -0.65629122662E+01  0.42546331360E+02  0.52560142494E+02  0.47000000000E+01 0.  1.
          5    1    4    4  502    0  0.14323562482E+02 -0.29513007319E+02 -0.38172511841E+02  0.50551090032E+02  0.47000000000E+01 0.  1.
         -5    1    4    4    0  502 -0.10074601609E+03  0.60555052330E+02 -0.26741390974E+03  0.29214544879E+03  0.47000000000E+01 0.  1.
<mgrwt>
<rscale>  0 0.48571702E+03</rscale>
<asrwt>0</asrwt>
<pdfrwt beam="1">  1       21 0.24767035E-01 0.48571702E+03</pdfrwt>
<pdfrwt beam="2">  1       21 0.56364534E-01 0.48571702E+03</pdfrwt>
<totfact> 0.41572943E+04</totfact>
</mgrwt>
</event>
<event>
 8    1  0.9974463E-006  0.2616880E+03  0.7546771E-02  0.1106133E+00
         21   -1    0    0  504  503  0.00000000000E+00  0.00000000000E+00  0.33819531251E+03  0.33819531251E+03  0.00000000000E+00 0.  1.
         21   -1    0    0  503  504 -0.00000000000E+00 -0.00000000000E+00 -0.50622101142E+02  0.50622101142E+02  0.00000000000E+00 0.  1.
         25    2    1    2    0    0  0.37828857186E+02 -0.59182527669E+01  0.13508615555E+03  0.18798927764E+03  0.12500260371E+03 0.  0.
         25    2    1    2    0    0 -0.37828857186E+02  0.59182527669E+01  0.15248705582E+03  0.20082813601E+03  0.12495435114E+03 0.  0.
          5    1    3    3  501    0  0.35165800537E+02 -0.17504770323E+02  0.15738752988E+03  0.16228362540E+03  0.47000000000E+01 0. -1.
         -5    1    3    3    0  501  0.26630566495E+01  0.11586517556E+02 -0.22301374334E+02  0.25705652238E+02  0.47000000000E+01 0. -1.
          5    1    4    4  502    0  0.12932907346E+02 -0.25975939992E+02 -0.71398083219E+01  0.30250229979E+02  0.47000000000E+01 0. -1.
         -5    1    4    4    0  502 -0.50761764532E+02  0.31894192759E+02  0.15962686414E+03  0.17057790603E+03  0.47000000000E+01 0. -1.
<mgrwt>
<rscale>  0 0.26168804E+03</rscale>
<asrwt>0</asrwt>
<pdfrwt beam="1">  1       21 0.52030047E-01 0.26168804E+03</pdfrwt>
<pdfrwt beam="2">  1       21 0.77880158E-02 0.26168804E+03</pdfrwt>
<totfact> 0.43435767E+05</totfact>
</mgrwt>
</event>
<event>
 8    1  0.9974463E-006  0.2967515E+03  0.7546771E-02  0.1086876E+00
         21   -1    0    0  504  503  0.00000000000E+00  0.00000000000E+00  0.45818553775E+03  0.45818553775E+03  0.00000000000E+00 0.  1.
         21   -1    0    0  503  504 -0.00000000000E+00 -0.00000000000E+00 -0.48049004271E+02  0.48049004271E+02  0.00000000000E+00 0.  1.
         25    2    1    2    0    0 -0.55034580785E+02  0.84103564054E+00  0.10617984018E+03  0.17300127145E+03  0.12500307612E+03 0.  0.
         25    2    1    2    0    0  0.55034580785E+02 -0.84103564054E+00  0.30395669330E+03  0.33323327057E+03  0.12500091517E+03 0.  0.
          5    1    3    3  501    0  0.33620218442E+02  0.10910382617E+02  0.19411655733E+01  0.35710133866E+02  0.47000000000E+01 0.  1.
         -5    1    3    3    0  501 -0.88654799227E+02 -0.10069346976E+02  0.10423867460E+03  0.13729113758E+03  0.47000000000E+01 0.  1.
          5    1    4    4  502    0  0.89034718973E+02  0.36680411160E+01  0.14270634430E+03  0.16830872352E+03  0.47000000000E+01 0.  1.
         -5    1    4    4    0  502 -0.34000138189E+02 -0.45090767565E+01  0.16125034899E+03  0.16492454705E+03  0.47000000000E+01 0.  1.
<mgrwt>
<rscale>  0 0.29675147E+03</rscale>
<asrwt>0</asrwt>
<pdfrwt beam="1">  1       21 0.70490080E-01 0.29675147E+03</pdfrwt>
<pdfrwt beam="2">  1       21 0.73921548E-02 0.29675147E+03</pdfrwt>
<totfact> 0.24434956E+05</totfact>
</mgrwt>
</event>
<event>
 8    1  0.9974463E-006  0.4698702E+03  0.7546771E-02  0.1021957E+00
         21   -1    0    0  504  503  0.00000000000E+00  0.00000000000E+00  0.97509970048E+02  0.97509970048E+02  0.00000000000E+00 0. -1.
         21   -1    0    0  503  504 -0.00000000000E+00 -0.00000000000E+00 -0.56603957005E+03  0.56603957005E+03  0.00000000000E+00 0. -1.
         25    2    1    2    0    0 -0.45190814639E+02 -0.19220873741E+03 -0.20012633988E+03  0.30767314137E+03  0.12500320615E+03 0.  0.
         25    2    1    2    0    0  0.45190814639E+02  0.19220873741E+03 -0.26840326012E+03  0.35587639872E+03  0.12498516975E+03 0.  0.
          5    1    3    3  501    0 -0.72560153067E+02 -0.56212321611E+02 -0.10424182522E+03  0.13897211605E+03  0.47000000000E+01 0. -1.
         -5    1    3    3    0  501  0.27369338428E+02 -0.13599641580E+03 -0.95884514659E+02  0.16870102533E+03  0.47000000000E+01 0. -1.
          5    1    4    4  502    0  0.86695474287E+02  0.11865184720E+03 -0.19250372403E+03  0.24222745482E+03  0.47000000000E+01 0. -1.
         -5    1    4    4    0  502 -0.41504659648E+02  0.73556890209E+02 -0.75899536096E+02  0.11364894390E+03  0.47000000000E+01 0. -1.
<mgrwt>
<rscale>  0 0.46987020E+03</rscale>
<asrwt>0</asrwt>
<pdfrwt beam="1">  1       21 0.15001534E-01 0.46987020E+03</pdfrwt>
<pdfrwt beam="2">  1       21 0.87083010E-01 0.46987020E+03</pdfrwt>
<totfact> 0.40490346E+04</totfact>
</mgrwt>
</event>
<event>
 8    1  0.9974463E-006  0.3915081E+03  0.7546771E-02  0.1046760E+00
         21   -1    0    0  504  503  0.00000000000E+00  0.00000000000E+00  0.47348188834E+03  0.47348188834E+03  0.00000000000E+00 0.  1.
         21   -1    0    0  503  504 -0.00000000000E+00 -0.00000000000E+00 -0.80931614586E+02  0.80931614586E+02  0.00000000000E+00 0.  1.
         25    2    1    2    0    0 -0.14986429149E+03 -0.14095079113E+02  0.20480104159E+03  0.28324364912E+03  0.12500208401E+03 0.  0.
         25    2    1    2    0    0  0.14986429149E+03  0.14095079113E+02  0.18774923215E+03  0.27116985380E+03  0.12500135326E+03 0.  0.
          5    1    3    3  501    0 -0.16843718137E+03 -0.10429615933E+02  0.15280336889E+03  0.22770775239E+03  0.47000000000E+01 0.  1.
         -5    1    3    3    0  501  0.18572889872E+02 -0.36654631800E+01  0.51997672701E+02  0.55535896723E+02  0.47000000000E+01 0.  1.
          5    1    4    4  502    0 -0.15004303291E+02 -0.21554552440E+02  0.21209879666E+02  0.34083380753E+02  0.47000000000E+01 0.  1.
         -5    1    4    4    0  502  0.16486859479E+03  0.35649631553E+02  0.16653935249E+03  0.23708647305E+03  0.47000000000E+01 0.  1.
<mgrwt>
<rscale>  0 0.39150813E+03</rscale>
<asrwt>0</asrwt>
<pdfrwt beam="1">  1       21 0.72843366E-01 0.39150813E+03</pdfrwt>
<pdfrwt beam="2">  1       21 0.12451018E-01 0.39150813E+03</pdfrwt>
<totfact> 0.87639641E+04</totfact>
</mgrwt>
</event>
<event>
 8    1  0.9974463E-006  0.2542620E+03  0.7546771E-02  0.1110641E+00
         21   -1    0    0  504  503  0.00000000000E+00  0.00000000000E+00  0.21926978911E+03  0.21926978911E+03  0.00000000000E+00 0. -1.
         21   -1    0    0  503  504 -0.00000000000E+00 -0.00000000000E+00 -0.73709637472E+02  0.73709637472E+02  0.00000000000E+00 0. -1.
         25    2    1    2    0    0 -0.28742691226E+01  0.17625792745E+02  0.55998128019E+02  0.13817251933E+03  0.12504768996E+03 0.  0.
         25    2    1    2    0    0  0.28742691226E+01 -0.17625792745E+02  0.89562023617E+02  0.15480690725E+03  0.12499956986E+03 0.  0.
          5    1    3    3  501    0 -0.50891950531E+02  0.33261864414E+02  0.62166698075E+02  0.87081172492E+02  0.47000000000E+01 0. -1.
         -5    1    3    3    0  501  0.48017681408E+02 -0.15636071669E+02 -0.61685700562E+01  0.51091346837E+02  0.47000000000E+01 0. -1.
          5    1    4    4  502    0  0.56414195902E+02  0.66040480853E+01  0.13497245605E+02  0.58569963201E+02  0.47000000000E+01 0. -1.
         -5    1    4    4    0  502 -0.53539926780E+02 -0.24229840830E+02  0.76064778012E+02  0.96236944051E+02  0.47000000000E+01 0. -1.
<mgrwt>
<rscale>  0 0.25426204E+03</rscale>
<asrwt>0</asrwt>
<pdfrwt beam="1">  1       21 0.33733813E-01 0.25426204E+03</pdfrwt>
<pdfrwt beam="2">  1       21 0.11339944E-01 0.25426204E+03</pdfrwt>
<totfact> 0.54321979E+05</totfact>
</mgrwt>
</event>
<event>
 8    1  0.9974463E-006  0.2578882E+03  0.7546771E-02  0.1108419E+00
         21   -1    0    0  504  503  0.00000000000E+00  0.00000000000E+00  0.54233607217E+02  0.54233607217E+02  0.00000000000E+00 0. -1.
         21   -1    0    0  503  504 -0.00000000000E+00 -0.00000000000E+00 -0.30657345017E+03  0.30657345017E+03  0.00000000000E+00 0. -1.
         25    2    1    2    0    0  0.28829875409E+02 -0.80271512472E+01 -0.11171972880E+03  0.17029557598E+03  0.12499475399E+03 0.  0.
         25    2    1    2    0    0 -0.28829875409E+02  0.80271512472E+01 -0.14062011416E+03  0.19051148141E+03  0.12500004467E+03 0.  0.
          5    1    3    3  501    0 -0.29486450030E+02 -0.24827128344E+02  0.45085840093E+01  0.39092894072E+02  0.47000000000E+01 0. -1.
         -5    1    3    3    0  501  0.58316325438E+02  0.16799977097E+02 -0.11622831280E+03  0.13120268191E+03  0.47000000000E+01 0. -1.
          5    1    4    4  502    0  0.21812944472E+02  0.23726289330E+02  0.72373453098E+01  0.33364809591E+02  0.47000000000E+01 0. -1.
         -5    1    4    4    0  502 -0.50642819881E+02 -0.15699138082E+02 -0.14785745947E+03  0.15714667182E+03  0.47000000000E+01 0. -1.
<mgrwt>
<rscale>  0 0.25788822E+03</rscale>
<asrwt>0</asrwt>
<pdfrwt beam="1">  1       21 0.83436317E-02 0.25788822E+03</pdfrwt>
<pdfrwt beam="2">  1       21 0.47165147E-01 0.25788822E+03</pdfrwt>
<totfact> 0.47328359E+05</totfact>
</mgrwt>
</event>
<event>
 8    1  0.9974463E-006  0.2633637E+03  0.7546771E-02  0.1105139E+00
         21   -1    0    0  504  503  0.00000000000E+00  0.00000000000E+00  0.31433726421E+02  0.31433726421E+02  0.00000000000E+00 0.  1.
         21   -1    0    0  503  504 -0.00000000000E+00 -0.00000000000E+00 -0.55164043006E+03  0.55164043006E+03  0.00000000000E+00 0.  1.
         25    2    1    2    0    0  0.11100489038E+02 -0.23973978766E+02 -0.18954299708E+03  0.22858387179E+03  0.12500426467E+03 0.  0.
         25    2    1    2    0    0 -0.11100489038E+02  0.23973978766E+02 -0.33066370655E+03  0.35449028468E+03  0.12500761012E+03 0.  0.
          5    1    3    3  501    0  0.66681233047E+02 -0.47487968501E+01 -0.81815221802E+02  0.10575801828E+03  0.47000000000E+01 0. -1.
         -5    1    3    3    0  501 -0.55580744010E+02 -0.19225181916E+02 -0.10772777528E+03  0.12282585351E+03  0.47000000000E+01 0. -1.
          5    1    4    4  502    0 -0.52611979657E+02 -0.12993346481E+02 -0.74044095665E+02  0.91877448588E+02  0.47000000000E+01 0. -1.
         -5    1    4    4    0  502  0.41511490620E+02  0.36967325247E+02 -0.25661961089E+03  0.26261283610E+03  0.47000000000E+01 0. -1.
<mgrwt>
<rscale>  0 0.26336374E+03</rscale>
<asrwt>0</asrwt>
<pdfrwt beam="1">  1       21 0.48359578E-02 0.26336374E+03</pdfrwt>
<pdfrwt beam="2">  1       21 0.84867760E-01 0.26336374E+03</pdfrwt>
<totfact> 0.33608460E+05</totfact>
</mgrwt>
</event>
<event>
 8    1  0.9974463E-006  0.7098317E+03  0.7546771E-02  0.9700565E-01
         21   -1    0    0  504  503  0.00000000000E+00  0.00000000000E+00  0.41972938246E+03  0.41972938246E+03  0.00000000000E+00 0.  1.
         21   -1    0    0  503  504 -0.00000000000E+00 -0.00000000000E+00 -0.30011063197E+03  0.30011063197E+03  0.00000000000E+00 0.  1.
         25    2    1    2    0    0  0.22154113822E+03 -0.14056177602E+03  0.26639910085E+03  0.39425247306E+03  0.12501377037E+03 0.  0.
         25    2    1    2    0    0 -0.22154113822E+03  0.14056177602E+03 -0.14678035036E+03  0.32558754136E+03  0.12499874814E+03 0.  0.
          5    1    3    3  501    0  0.11958534606E+03 -0.20509864865E+02  0.62505145850E+02  0.13656607487E+03  0.47000000000E+01 0. -1.
         -5    1    3    3    0  501  0.10195579216E+03 -0.12005191115E+03  0.20389395500E+03  0.25768639819E+03  0.47000000000E+01 0. -1.
          5    1    4    4  502    0 -0.15367132295E+03  0.51111849275E+02 -0.13807134086E+03  0.21286869615E+03  0.47000000000E+01 0.  1.
         -5    1    4    4    0  502 -0.67869815270E+02  0.89449926745E+02 -0.87090094999E+01  0.11271884521E+03  0.47000000000E+01 0.  1.
<mgrwt>
<rscale>  0 0.70983167E+03</rscale>
<asrwt>0</asrwt>
<pdfrwt beam="1">  1       21 0.64573751E-01 0.70983167E+03</pdfrwt>
<pdfrwt beam="2">  1       21 0.46170867E-01 0.70983167E+03</pdfrwt>
<totfact> 0.83238224E+03</totfact>
</mgrwt>
</event>
<event>
 8    1  0.9974463E-006  0.3096146E+03  0.7546771E-02  0.1080531E+00
         21   -1    0    0  504  503  0.00000000000E+00  0.00000000000E+00  0.96724849532E+02  0.96724849532E+02  0.00000000000E+00 0.  1.
         21   -1    0    0  503  504 -0.00000000000E+00 -0.00000000000E+00 -0.24776778923E+03  0.24776778923E+03  0.00000000000E+00 0.  1.
         25    2    1    2    0    0  0.65239906445E+02 -0.49710920338E+02 -0.30844606357E+02  0.15265516222E+03  0.12499915126E+03 0.  0.
         25    2    1    2    0    0 -0.65239906445E+02  0.49710920338E+02 -0.12019833334E+03  0.19183747654E+03  0.12500622814E+03 0.  0.
          5    1    3    3  501    0  0.23925845704E+02 -0.48396046343E+02  0.42139386711E+02  0.68647223590E+02  0.47000000000E+01 0. -1.
         -5    1    3    3    0  501  0.41314060741E+02 -0.13148739951E+01 -0.72983993067E+02  0.84007938628E+02  0.47000000000E+01 0. -1.
          5    1    4    4  502    0 -0.56306944457E+02  0.29515503669E+02 -0.14494212806E+03  0.15834123732E+03  0.47000000000E+01 0.  1.
         -5    1    4    4    0  502 -0.89329619874E+01  0.20195416670E+02  0.24743794722E+02  0.33496239215E+02  0.47000000000E+01 0.  1.
<mgrwt>
<rscale>  0 0.30961461E+03</rscale>
<asrwt>0</asrwt>
<pdfrwt beam="1">  1       21 0.14880746E-01 0.30961461E+03</pdfrwt>
<pdfrwt beam="2">  1       21 0.38118121E-01 0.30961461E+03</pdfrwt>
<totfact> 0.25679240E+05</totfact>
</mgrwt>
</event>
<event>
 8    1  0.9974463E-006  0.3332290E+03  0.7546771E-02  0.1069717E+00
         21   -1    0    0  504  503  0.00000000000E+00  0.00000000000E+00  0.34030573084E+02  0.34030573084E+02  0.00000000000E+00 0. -1.
         21   -1    0    0  503  504 -0.00000000000E+00 -0.00000000000E+00 -0.81574870640E+03  0.81574870640E+03  0.00000000000E+00 0. -1.
         25    2    1    2    0    0  0.76719050618E+02 -0.29756684472E+02 -0.20407933454E+03  0.25306898600E+03  0.12499705553E+03 0.  0.
         25    2    1    2    0    0 -0.76719050618E+02  0.29756684472E+02 -0.57763879878E+03  0.59671029348E+03  0.12500127797E+03 0.  0.
          5    1    3    3  501    0  0.10560074036E+03 -0.60421535331E+01 -0.17850265831E+03  0.20754111161E+03  0.47000000000E+01 0.  1.
         -5    1    3    3    0  501 -0.28881689741E+02 -0.23714530939E+02 -0.25576676227E+02  0.45527874394E+02  0.47000000000E+01 0.  1.
          5    1    4    4  502    0 -0.62354902352E+02  0.34980125026E+02 -0.12723345461E+03  0.14602117985E+03  0.47000000000E+01 0. -1.
         -5    1    4    4    0  502 -0.14364148267E+02 -0.52234405538E+01 -0.45040534417E+03  0.45068911363E+03  0.47000000000E+01 0. -1.
<mgrwt>
<rscale>  0 0.33322903E+03</rscale>
<asrwt>0</asrwt>
<pdfrwt beam="1">  1       21 0.52354730E-02 0.33322903E+03</pdfrwt>
<pdfrwt beam="2">  1       21 0.12549979E+00 0.33322903E+03</pdfrwt>
<totfact> 0.11181885E+05</totfact>
</mgrwt>
</event>
<event>
 8    1  0.9974463E-006  0.2703497E+03  0.7546771E-02  0.1101080E+00
         21   -1    0    0  504  503  0.00000000000E+00  0.00000000000E+00  0.53309414729E+02  0.53309414729E+02  0.00000000000E+00 0.  1.
         21   -1    0    0  503  504 -0.00000000000E+00 -0.00000000000E+00 -0.34275832457E+03  0.34275832457E+03  0.00000000000E+00 0.  1.
         25    2    1    2    0    0 -0.60904546083E+01  0.60962557271E+01 -0.70319167136E+02  0.14364679809E+03  0.12496143151E+03 0.  0.
         25    2    1    2    0    0  0.60904546083E+01 -0.60962557271E+01 -0.21912974271E+03  0.25242094121E+03  0.12499691777E+03 0.  0.
          5    1    3    3  501    0 -0.51974857349E+02 -0.35145703218E+02 -0.29260692114E+02  0.69389367731E+02  0.47000000000E+01 0.  1.
         -5    1    3    3    0  501  0.45884402741E+02  0.41241958945E+02 -0.41058475021E+02  0.74257430359E+02  0.47000000000E+01 0.  1.
          5    1    4    4  502    0  0.42171567568E+02 -0.22672731280E+02 -0.25003111571E+02  0.54219364097E+02  0.47000000000E+01 0. -1.
         -5    1    4    4    0  502 -0.36081112960E+02  0.16576475553E+02 -0.19412663114E+03  0.19820157711E+03  0.47000000000E+01 0. -1.
<mgrwt>
<rscale>  0 0.27034974E+03</rscale>
<asrwt>0</asrwt>
<pdfrwt beam="1">  1       21 0.82014481E-02 0.27034974E+03</pdfrwt>
<pdfrwt beam="2">  1       21 0.52732052E-01 0.27034974E+03</pdfrwt>
<totfact> 0.38495976E+05</totfact>
</mgrwt>
</event>
<event>
 8    1  0.9974463E-006  0.2990180E+03  0.7546771E-02  0.1085733E+00
         21   -1    0    0  504  503  0.00000000000E+00  0.00000000000E+00  0.67958482693E+02  0.67958482693E+02  0.00000000000E+00 0. -1.
         21   -1    0    0  503  504 -0.00000000000E+00 -0.00000000000E+00 -0.32892055058E+03  0.32892055058E+03  0.00000000000E+00 0. -1.
         25    2    1    2    0    0  0.22840392271E+02  0.76986936623E+02 -0.10824765167E+03  0.18382264956E+03  0.12499816186E+03 0.  0.
         25    2    1    2    0    0 -0.22840392271E+02 -0.76986936623E+02 -0.15271441622E+03  0.21305638372E+03  0.12499063081E+03 0.  0.
          5    1    3    3  501    0  0.17968359728E+01  0.10774061260E+03 -0.95783192529E+02  0.14424901453E+03  0.47000000000E+01 0. -1.
         -5    1    3    3    0  501  0.21043556298E+02 -0.30753675973E+02 -0.12464459137E+02  0.39573635025E+02  0.47000000000E+01 0. -1.
          5    1    4    4  502    0 -0.40982490510E+02 -0.10543353401E+03 -0.10486479804E+03  0.15431950781E+03  0.47000000000E+01 0. -1.
         -5    1    4    4    0  502  0.18142098238E+02  0.28446597389E+02 -0.47849618178E+02  0.58736875907E+02  0.47000000000E+01 0.  1.
<mgrwt>
<rscale>  0 0.29901800E+03</rscale>
<asrwt>0</asrwt>
<pdfrwt beam="1">  1       21 0.10455151E-01 0.29901800E+03</pdfrwt>
<pdfrwt beam="2">  1       21 0.50603161E-01 0.29901800E+03</pdfrwt>
<totfact> 0.27154464E+05</totfact>
</mgrwt>
</event>
<event>
 8    1  0.9974463E-006  0.3053948E+03  0.7546771E-02  0.1082574E+00
         21   -1    0    0  504  503  0.00000000000E+00  0.00000000000E+00  0.49880208399E+02  0.49880208399E+02  0.00000000000E+00 0. -1.
         21   -1    0    0  503  504 -0.00000000000E+00 -0.00000000000E+00 -0.46744995039E+03  0.46744995039E+03  0.00000000000E+00 0. -1.
         25    2    1    2    0    0 -0.57647524054E+02  0.38661273083E+02 -0.29954104224E+03  0.33192999767E+03  0.12503901911E+03 0.  0.
         25    2    1    2    0    0  0.57647524054E+02 -0.38661273083E+02 -0.11802869975E+03  0.18540016112E+03  0.12499805883E+03 0.  0.
          5    1    3    3  501    0  0.19516237410E+02  0.34554068432E+02 -0.26073137304E+02  0.47715465592E+02  0.47000000000E+01 0. -1.
         -5    1    3    3    0  501 -0.77163761463E+02  0.41072046510E+01 -0.27346790494E+03  0.28421453208E+03  0.47000000000E+01 0. -1.
          5    1    4    4  502    0 -0.18243340929E+02 -0.23040394455E+02  0.13494736063E+02  0.32678389898E+02  0.47000000000E+01 0.  1.
         -5    1    4    4    0  502  0.75890864983E+02 -0.15620878628E+02 -0.13152343581E+03  0.15272177122E+03  0.47000000000E+01 0.  1.
<mgrwt>
<rscale>  0 0.30539483E+03</rscale>
<asrwt>0</asrwt>
<pdfrwt beam="1">  1       21 0.76738780E-02 0.30539483E+03</pdfrwt>
<pdfrwt beam="2">  1       21 0.71915379E-01 0.30539483E+03</pdfrwt>
<totfact> 0.21841187E+05</totfact>
</mgrwt>
</event>
<event>
 8    1  0.9974463E-006  0.2853117E+03  0.7546771E-02  0.1092823E+00
         21   -1    0    0  504  503  0.00000000000E+00  0.00000000000E+00  0.72318705439E+03  0.72318705439E+03  0.00000000000E+00 0. -1.
         21   -1    0    0  503  504 -0.00000000000E+00 -0.00000000000E+00 -0.28140277816E+02  0.28140277816E+02  0.00000000000E+00 0. -1.
         25    2    1    2    0    0  0.34498268476E+02 -0.33485081933E+02  0.21813357968E+03  0.25596658962E+03  0.12500102070E+03 0.  0.
         25    2    1    2    0    0 -0.34498268476E+02  0.33485081933E+02  0.47691319689E+03  0.49536074259E+03  0.12499874674E+03 0.  0.
          5    1    3    3  501    0  0.47332336959E+02 -0.32689324950E-01  0.21442817127E+03  0.21964034654E+03  0.47000000000E+01 0.  1.
         -5    1    3    3    0  501 -0.12834068484E+02 -0.33452392609E+02  0.37054084083E+01  0.36326243083E+02  0.47000000000E+01 0.  1.
          5    1    4    4  502    0  0.42235350487E+02  0.82226177399E+01  0.87404807204E+02  0.97535258218E+02  0.47000000000E+01 0.  1.
         -5    1    4    4    0  502 -0.76733618963E+02  0.25262464194E+02  0.38950838969E+03  0.39782548437E+03  0.47000000000E+01 0.  1.
<mgrwt>
<rscale>  0 0.28531165E+03</rscale>
<asrwt>0</asrwt>
<pdfrwt beam="1">  1       21 0.11125953E+00 0.28531165E+03</pdfrwt>
<pdfrwt beam="2">  1       21 0.43292740E-02 0.28531165E+03</pdfrwt>
<totfact> 0.21178113E+05</totfact>
</mgrwt>
</event>
<event>
 8    1  0.9974463E-006  0.4222237E+03  0.7546771E-02  0.1036345E+00
         21   -1    0    0  504  503  0.00000000000E+00  0.00000000000E+00  0.13113024331E+03  0.13113024331E+03  0.00000000000E+00 0. -1.
         21   -1    0    0  503  504 -0.00000000000E+00 -0.00000000000E+00 -0.33987750939E+03  0.33987750939E+03  0.00000000000E+00 0. -1.
         25    2    1    2    0    0 -0.84024848187E+02  0.11335835356E+03  0.16529873898E+01  0.18851246860E+03  0.12499570799E+03 0.  0.
         25    2    1    2    0    0  0.84024848187E+02 -0.11335835356E+03 -0.21040025347E+03  0.28249528410E+03  0.12500010976E+03 0.  0.
          5    1    3    3  501    0 -0.50651837039E+01  0.10351945219E+03  0.22415699342E+02  0.10614370751E+03  0.47000000000E+01 0.  1.
         -5    1    3    3    0  501 -0.78959664483E+02  0.98389013703E+01 -0.20762711952E+02  0.82368761087E+02  0.47000000000E+01 0.  1.
          5    1    4    4  502    0  0.88265994475E+02 -0.13424125282E+03 -0.20408673784E+03  0.25977891813E+03  0.47000000000E+01 0.  1.
         -5    1    4    4    0  502 -0.42411462880E+01  0.20882899259E+02 -0.63135156292E+01  0.22716365970E+02  0.47000000000E+01 0.  1.
<mgrwt>
<rscale>  0 0.42222373E+03</rscale>
<asrwt>0</asrwt>
<pdfrwt beam="1">  1       21 0.20173884E-01 0.42222373E+03</pdfrwt>
<pdfrwt beam="2">  1       21 0.52288847E-01 0.42222373E+03</pdfrwt>
<totfact> 0.73502740E+04</totfact>
</mgrwt>
</event>
<event>
 8    1  0.9974463E-006  0.2754907E+03  0.7546771E-02  0.1098178E+00
         21   -1    0    0  504  503  0.00000000000E+00  0.00000000000E+00  0.66821193029E+02  0.66821193029E+02  0.00000000000E+00 0.  1.
         21   -1    0    0  503  504 -0.00000000000E+00 -0.00000000000E+00 -0.28394858370E+03  0.28394858370E+03  0.00000000000E+00 0.  1.
         25    2    1    2    0    0 -0.46068917077E+02  0.25654214800E+02 -0.78130039929E+02  0.15655544193E+03  0.12499927760E+03 0.  0.
         25    2    1    2    0    0  0.46068917077E+02 -0.25654214800E+02 -0.13899735074E+03  0.19421433480E+03  0.12497383915E+03 0.  0.
          5    1    3    3  501    0 -0.71036274014E+02  0.59637602961E+02 -0.58881168378E+02  0.10996307518E+03  0.47000000000E+01 0. -1.
         -5    1    3    3    0  501  0.24967356937E+02 -0.33983388162E+02 -0.19248871551E+02  0.46592366750E+02  0.47000000000E+01 0. -1.
          5    1    4    4  502    0 -0.30188562937E+02  0.27361827241E+02 -0.57068933116E+02  0.70277820464E+02  0.47000000000E+01 0.  1.
         -5    1    4    4    0  502  0.76257480014E+02 -0.53016042040E+02 -0.81928417625E+02  0.12393651434E+03  0.47000000000E+01 0.  1.
<mgrwt>
<rscale>  0 0.27549071E+03</rscale>
<asrwt>0</asrwt>
<pdfrwt beam="1">  1       21 0.10280183E-01 0.27549071E+03</pdfrwt>
<pdfrwt beam="2">  1       21 0.43684399E-01 0.27549071E+03</pdfrwt>
<totfact> 0.38213466E+05</totfact>
</mgrwt>
</event>
<event>
 8    1  0.9974463E-006  0.3566514E+03  0.7546771E-02  0.1059918E+00
         21   -1    0    0  504  503  0.00000000000E+00  0.00000000000E+00  0.66903418315E+03  0.66903418315E+03  0.00000000000E+00 0. -1.
         21   -1    0    0  503  504 -0.00000000000E+00 -0.00000000000E+00 -0.47531288000E+02  0.47531288000E+02  0.00000000000E+00 0. -1.
         25    2    1    2    0    0 -0.83033584381E+02  0.50801020067E+02  0.14627699461E+03  0.21562742427E+03  0.12499162841E+03 0.  0.
         25    2    1    2    0    0  0.83033584381E+02 -0.50801020067E+02  0.47522590054E+03  0.50093804687E+03  0.12499580187E+03 0.  0.
          5    1    3    3  501    0 -0.10888774488E+03  0.13286364216E+02  0.83610619793E+02  0.13800686288E+03  0.47000000000E+01 0. -1.
         -5    1    3    3    0  501  0.25854160503E+02  0.37514655850E+02  0.62666374813E+02  0.77620561394E+02  0.47000000000E+01 0. -1.
          5    1    4    4  502    0  0.74720587310E+02  0.12550036283E+02  0.37028356097E+03  0.37798501968E+03  0.47000000000E+01 0. -1.
         -5    1    4    4    0  502  0.83129970709E+01 -0.63351056349E+02  0.10494233957E+03  0.12295302719E+03  0.47000000000E+01 0. -1.
<mgrwt>
<rscale>  0 0.35665141E+03</rscale>
<asrwt>0</asrwt>
<pdfrwt beam="1">  1       21 0.10292833E+00 0.35665141E+03</pdfrwt>
<pdfrwt beam="2">  1       21 0.73125063E-02 0.35665141E+03</pdfrwt>
<totfact> 0.10183539E+05</totfact>
</mgrwt>
</event>
<event>
 8    1  0.9974463E-006  0.2542087E+03  0.7546771E-02  0.1110674E+00
         21   -1    0    0  504  503  0.00000000000E+00  0.00000000000E+00  0.53141630836E+03  0.53141630836E+03  0.00000000000E+00 0.  1.
         21   -1    0    0  503  504 -0.00000000000E+00 -0.00000000000E+00 -0.30400869428E+02  0.30400869428E+02  0.00000000000E+00 0.  1.
         25    2    1    2    0    0 -0.42746732445E+01 -0.16579090600E+02  0.21647416646E+03  0.25055738376E+03  0.12499919494E+03 0.  0.
         25    2    1    2    0    0  0.42746732445E+01  0.16579090600E+02  0.28454127248E+03  0.31125979403E+03  0.12500313821E+03 0.  0.
          5    1    3    3  501    0  0.55706872286E+02 -0.15307260474E+02  0.62496907457E+02  0.85238027223E+02  0.47000000000E+01 0. -1.
         -5    1    3    3    0  501 -0.59981545530E+02 -0.12718301258E+01  0.15397725900E+03  0.16531935653E+03  0.47000000000E+01 0. -1.
          5    1    4    4  502    0  0.57997904923E+02  0.30220653200E+02  0.19617653542E+03  0.20684382491E+03  0.47000000000E+01 0.  1.
         -5    1    4    4    0  502 -0.53723231678E+02 -0.13641562600E+02  0.88364737059E+02  0.10441596912E+03  0.47000000000E+01 0.  1.
<mgrwt>
<rscale>  0 0.25420872E+03</rscale>
<asrwt>0</asrwt>
<pdfrwt beam="1">  1       21 0.81756349E-01 0.25420872E+03</pdfrwt>
<pdfrwt beam="2">  1       21 0.46770572E-02 0.25420872E+03</pdfrwt>
<totfact> 0.38841531E+05</totfact>
</mgrwt>
</event>
<event>
 8    1  0.9974463E-006  0.3741725E+03  0.7546771E-02  0.1053109E+00
         21   -1    0    0  504  503  0.00000000000E+00  0.00000000000E+00  0.63906883486E+03  0.63906883486E+03  0.00000000000E+00 0. -1.
         21   -1    0    0  503  504 -0.00000000000E+00 -0.00000000000E+00 -0.54769171032E+02  0.54769171032E+02  0.00000000000E+00 0. -1.
         25    2    1    2    0    0 -0.12129813434E+03  0.54235895410E+02  0.21512982774E+03  0.28205778327E+03  0.12498392126E+03 0.  0.
         25    2    1    2    0    0  0.12129813434E+03 -0.54235895410E+02  0.36916983608E+03  0.41178022262E+03  0.12498725583E+03 0.  0.
          5    1    3    3  501    0 -0.13478297540E+02  0.68961189318E+02  0.11043481213E+03  0.13097804346E+03  0.47000000000E+01 0.  1.
         -5    1    3    3    0  501 -0.10781983680E+03 -0.14725293908E+02  0.10469501560E+03  0.15107973981E+03  0.47000000000E+01 0.  1.
          5    1    4    4  502    0  0.43522257279E+02 -0.31152762421E+02  0.27073965302E+02  0.60164533425E+02  0.47000000000E+01 0. -1.
         -5    1    4    4    0  502  0.77775877063E+02 -0.23083132990E+02  0.34209587078E+03  0.35161568920E+03  0.47000000000E+01 0. -1.
<mgrwt>
<rscale>  0 0.37417253E+03</rscale>
<asrwt>0</asrwt>
<pdfrwt beam="1">  1       21 0.98318277E-01 0.37417253E+03</pdfrwt>
<pdfrwt beam="2">  1       21 0.84260268E-02 0.37417253E+03</pdfrwt>
<totfact> 0.88246042E+04</totfact>
</mgrwt>
</event>
<event>
 8    1  0.9974463E-006  0.2752539E+03  0.7546771E-02  0.1098310E+00
         21   -1    0    0  504  503  0.00000000000E+00  0.00000000000E+00  0.11890315712E+03  0.11890315712E+03  0.00000000000E+00 0. -1.
         21   -1    0    0  503  504 -0.00000000000E+00 -0.00000000000E+00 -0.15929915115E+03  0.15929915115E+03  0.00000000000E+00 0. -1.
         25    2    1    2    0    0 -0.50020147648E+01  0.67697305670E+01 -0.77776369820E+02  0.14746457287E+03  0.12500314854E+03 0.  0.
         25    2    1    2    0    0  0.50020147648E+01 -0.67697305670E+01  0.37380375787E+02  0.13073773540E+03  0.12499685420E+03 0.  0.
          5    1    3    3  501    0 -0.12912317318E+02  0.62453349869E+02 -0.20744779926E+02  0.67227856894E+02  0.47000000000E+01 0.  1.
         -5    1    3    3    0  501  0.79103025532E+01 -0.55683619302E+02 -0.57031589894E+02  0.80236715978E+02  0.47000000000E+01 0.  1.
          5    1    4    4  502    0 -0.15706995755E+02 -0.60083513424E+02  0.38718926670E+02  0.73334736541E+02  0.47000000000E+01 0. -1.
         -5    1    4    4    0  502  0.20709010520E+02  0.53313782857E+02 -0.13385508823E+01  0.57402998857E+02  0.47000000000E+01 0. -1.
<mgrwt>
<rscale>  0 0.27525386E+03</rscale>
<asrwt>0</asrwt>
<pdfrwt beam="1">  1       21 0.18292793E-01 0.27525386E+03</pdfrwt>
<pdfrwt beam="2">  1       21 0.24507562E-01 0.27525386E+03</pdfrwt>
<totfact> 0.42152262E+05</totfact>
</mgrwt>
</event>
<event>
 8    1  0.9974463E-006  0.2853365E+03  0.7546771E-02  0.1092809E+00
         21   -1    0    0  504  503  0.00000000000E+00  0.00000000000E+00  0.10781420497E+04  0.10781420497E+04  0.00000000000E+00 0. -1.
         21   -1    0    0  503  504 -0.00000000000E+00 -0.00000000000E+00 -0.18878991692E+02  0.18878991692E+02  0.00000000000E+00 0. -1.
         25    2    1    2    0    0 -0.12484668660E+02 -0.16047693837E+02  0.78214730927E+03  0.79233415601E+03  0.12500242377E+03 0.  0.
         25    2    1    2    0    0  0.12484668660E+02  0.16047693837E+02  0.27711574870E+03  0.30468688535E+03  0.12501025756E+03 0.  0.
          5    1    3    3  501    0  0.14094323103E+02  0.41753001727E+02  0.54363045694E+03  0.54543388858E+03  0.47000000000E+01 0. -1.
         -5    1    3    3    0  501 -0.26578991763E+02 -0.57800695564E+02  0.23851685233E+03  0.24690026743E+03  0.47000000000E+01 0. -1.
          5    1    4    4  502    0  0.60938782549E+02 -0.21072683553E+02  0.15919636505E+03  0.17182306555E+03  0.47000000000E+01 0.  1.
         -5    1    4    4    0  502 -0.48454113889E+02  0.37120377390E+02  0.11791938366E+03  0.13286381980E+03  0.47000000000E+01 0.  1.
<mgrwt>
<rscale>  0 0.28533654E+03</rscale>
<asrwt>0</asrwt>
<pdfrwt beam="1">  1       21 0.16586796E+00 0.28533654E+03</pdfrwt>
<pdfrwt beam="2">  1       21 0.29044611E-02 0.28533654E+03</pdfrwt>
<totfact> 0.14673072E+05</totfact>
</mgrwt>
</event>
<event>
 8    1  0.9974463E-006  0.3216832E+03  0.7546771E-02  0.1074877E+00
         21   -1    0    0  504  503  0.00000000000E+00  0.00000000000E+00  0.18327500971E+03  0.18327500971E+03  0.00000000000E+00 0.  1.
         21   -1    0    0  503  504 -0.00000000000E+00 -0.00000000000E+00 -0.14115414704E+03  0.14115414704E+03  0.00000000000E+00 0.  1.
         25    2    1    2    0    0 -0.23096598711E+02 -0.86263178694E+02 -0.26993539790E+02  0.15598126007E+03  0.12500685354E+03 0.  0.
         25    2    1    2    0    0  0.23096598711E+02  0.86263178694E+02  0.69114402455E+02  0.16844789668E+03  0.12499241736E+03 0.  0.
          5    1    3    3  501    0 -0.59388792509E+02 -0.98293814050E+02 -0.23361701837E+02  0.11728836971E+03  0.47000000000E+01 0. -1.
         -5    1    3    3    0  501  0.36292193798E+02  0.12030635356E+02 -0.36318379531E+01  0.38692890363E+02  0.47000000000E+01 0. -1.
          5    1    4    4  502    0  0.59159308184E+02  0.83144667565E+02  0.80667320590E+02  0.13016207628E+03  0.47000000000E+01 0. -1.
         -5    1    4    4    0  502 -0.36062709473E+02  0.31185111296E+01 -0.11552918135E+02  0.38285820399E+02  0.47000000000E+01 0. -1.
<mgrwt>
<rscale>  0 0.32168325E+03</rscale>
<asrwt>0</asrwt>
<pdfrwt beam="1">  1       21 0.28196155E-01 0.32168325E+03</pdfrwt>
<pdfrwt beam="2">  1       21 0.21716023E-01 0.32168325E+03</pdfrwt>
<totfact> 0.23034674E+05</totfact>
</mgrwt>
</event>
<event>
 8    1  0.9974463E-006  0.2543536E+03  0.7546771E-02  0.1110584E+00
         21   -1    0    0  504  503  0.00000000000E+00  0.00000000000E+00  0.11421215262E+03  0.11421215262E+03  0.00000000000E+00 0. -1.
         21   -1    0    0  503  504 -0.00000000000E+00 -0.00000000000E+00 -0.14161307402E+03  0.14161307402E+03  0.00000000000E+00 0. -1.
         25    2    1    2    0    0 -0.15621508323E+02  0.47719982615E+01  0.32151184790E+01  0.12610439964E+03  0.12500071653E+03 0.  0.
         25    2    1    2    0    0  0.15621508323E+02 -0.47719982615E+01 -0.30616039881E+02  0.12972082700E+03  0.12499339011E+03 0.  0.
          5    1    3    3  501    0 -0.94764994879E+01  0.40319552939E+02 -0.47815323125E+02  0.63433946096E+02  0.47000000000E+01 0.  1.
         -5    1    3    3    0  501 -0.61450088354E+01 -0.35547554678E+02  0.51030441604E+02  0.62670453544E+02  0.47000000000E+01 0.  1.
          5    1    4    4  502    0  0.37767676441E+02  0.80015174547E+01 -0.71430454154E+02  0.81331552586E+02  0.47000000000E+01 0. -1.
         -5    1    4    4    0  502 -0.22146168117E+02 -0.12773515716E+02  0.40814414274E+02  0.48389274416E+02  0.47000000000E+01 0. -1.
<mgrwt>
<rscale>  0 0.25435357E+03</rscale>
<asrwt>0</asrwt>
<pdfrwt beam="1">  1       21 0.17571100E-01 0.25435357E+03</pdfrwt>
<pdfrwt beam="2">  1       21 0.21786627E-01 0.25435357E+03</pdfrwt>
<totfact> 0.57075619E+05</totfact>
</mgrwt>
</event>
<event>
 8    1  0.9974463E-006  0.5139305E+03  0.7546771E-02  0.1010205E+00
         21   -1    0    0  504  503  0.00000000000E+00  0.00000000000E+00  0.32333021295E+03  0.32333021295E+03  0.00000000000E+00 0. -1.
         21   -1    0    0  503  504 -0.00000000000E+00 -0.00000000000E+00 -0.20422199922E+03  0.20422199922E+03  0.00000000000E+00 0. -1.
         25    2    1    2    0    0 -0.10889001401E+01  0.13003970373E+03 -0.12831438733E+03  0.22136335129E+03  0.12500256417E+03 0.  0.
         25    2    1    2    0    0  0.10889001401E+01 -0.13003970373E+03  0.24742260106E+03  0.30618886088E+03  0.12498865852E+03 0.  0.
          5    1    3    3  501    0 -0.29614150395E+02  0.12686805455E+02  0.13313734995E+02  0.35175253742E+02  0.47000000000E+01 0. -1.
         -5    1    3    3    0  501  0.28525250255E+02  0.11735289828E+03 -0.14162812232E+03  0.18618809755E+03  0.47000000000E+01 0. -1.
          5    1    4    4  502    0 -0.18742264724E+02 -0.22523834392E+02 -0.58852425228E+01  0.30254283701E+02  0.47000000000E+01 0.  1.
         -5    1    4    4    0  502  0.19831164864E+02 -0.10751586934E+03  0.25330784359E+03  0.27593457718E+03  0.47000000000E+01 0.  1.
<mgrwt>
<rscale>  0 0.51393051E+03</rscale>
<asrwt>0</asrwt>
<pdfrwt beam="1">  1       21 0.49743110E-01 0.51393051E+03</pdfrwt>
<pdfrwt beam="2">  1       21 0.31418769E-01 0.51393051E+03</pdfrwt>
<totfact> 0.33807750E+04</totfact>
</mgrwt>
</event>
<event>
 8    1  0.9974463E-006  0.3616457E+03  0.7546771E-02  0.1057934E+00
         21   -1    0    0  504  503  0.00000000000E+00  0.00000000000E+00  0.25311539577E+03  0.25311539577E+03  0.00000000000E+00 0. -1.
         21   -1    0    0  503  504 -0.00000000000E+00 -0.00000000000E+00 -0.12917788108E+03  0.12917788108E+03  0.00000000000E+00 0. -1.
         25    2    1    2    0    0 -0.11392423356E+03 -0.24174922032E+02  0.12457746800E+03  0.21144516203E+03  0.12500541253E+03 0.  0.
         25    2    1    2    0    0  0.11392423356E+03  0.24174922032E+02 -0.63995331604E+00  0.17084811483E+03  0.12500204379E+03 0.  0.
          5    1    3    3  501    0 -0.81301069733E+02  0.19329698793E+02  0.96984029596E+01  0.84259422115E+02  0.47000000000E+01 0.  1.
         -5    1    3    3    0  501 -0.32623163826E+02 -0.43504620825E+02  0.11487906504E+03  0.12718573991E+03  0.47000000000E+01 0.  1.
          5    1    4    4  502    0 -0.29274265060E+01 -0.25253664704E+02  0.30638606918E+02  0.40089046394E+02  0.47000000000E+01 0.  1.
         -5    1    4    4    0  502  0.11685166006E+03  0.49428586736E+02 -0.31278560234E+02  0.13075906843E+03  0.47000000000E+01 0.  1.
<mgrwt>
<rscale>  0 0.36164574E+03</rscale>
<asrwt>0</asrwt>
<pdfrwt beam="1">  1       21 0.38940830E-01 0.36164574E+03</pdfrwt>
<pdfrwt beam="2">  1       21 0.19873520E-01 0.36164574E+03</pdfrwt>
<totfact> 0.14180946E+05</totfact>
</mgrwt>
</event>
<event>
 8    1  0.9974463E-006  0.3151107E+03  0.7546771E-02  0.1077922E+00
         21   -1    0    0  504  503  0.00000000000E+00  0.00000000000E+00  0.19822133793E+03  0.19822133793E+03  0.00000000000E+00 0.  1.
         21   -1    0    0  503  504 -0.00000000000E+00 -0.00000000000E+00 -0.12523216729E+03  0.12523216729E+03  0.00000000000E+00 0.  1.
         25    2    1    2    0    0  0.28299232557E+02 -0.90994702683E+02  0.47604694304E+02  0.16423635488E+03  0.12500596332E+03 0.  0.
         25    2    1    2    0    0 -0.28299232557E+02  0.90994702683E+02  0.25384476336E+02  0.15921715035E+03  0.12499938738E+03 0.  0.
          5    1    3    3  501    0  0.19772377539E+02  0.17836663339E+02 -0.21849373134E+02  0.34764616767E+02  0.47000000000E+01 0.  1.
         -5    1    3    3    0  501  0.85268550177E+01 -0.10883136602E+03  0.69454067439E+02  0.12947173811E+03  0.47000000000E+01 0.  1.
          5    1    4    4  502    0 -0.34045918524E+02  0.18562965890E+02 -0.43863158371E+02  0.58734784694E+02  0.47000000000E+01 0.  1.
         -5    1    4    4    0  502  0.57466859671E+01  0.72431736793E+02  0.69247634707E+02  0.10048236565E+03  0.47000000000E+01 0.  1.
<mgrwt>
<rscale>  0 0.31511070E+03</rscale>
<asrwt>0</asrwt>
<pdfrwt beam="1">  1       21 0.30495590E-01 0.31511070E+03</pdfrwt>
<pdfrwt beam="2">  1       21 0.19266487E-01 0.31511070E+03</pdfrwt>
<totfact> 0.24797266E+05</totfact>
</mgrwt>
</event>
<event>
 8    1  0.9974463E-006  0.2707881E+03  0.7546771E-02  0.1100829E+00
         21   -1    0    0  504  503  0.00000000000E+00  0.00000000000E+00  0.88516606675E+02  0.88516606675E+02  0.00000000000E+00 0. -1.
         21   -1    0    0  503  504 -0.00000000000E+00 -0.00000000000E+00 -0.20709735878E+03  0.20709735878E+03  0.00000000000E+00 0. -1.
         25    2    1    2    0    0 -0.36104000153E+02  0.34735889660E+02 -0.74534074718E+02  0.15392501852E+03  0.12501000830E+03 0.  0.
         25    2    1    2    0    0  0.36104000153E+02 -0.34735889660E+02 -0.44046677388E+02  0.14168894693E+03  0.12500226812E+03 0.  0.
          5    1    3    3  501    0 -0.50508156951E+01  0.50739086716E+02 -0.98696728978E+02  0.11118947779E+03  0.47000000000E+01 0. -1.
         -5    1    3    3    0  501 -0.31053184458E+02 -0.16003197056E+02  0.24162654260E+02  0.42735540735E+02  0.47000000000E+01 0. -1.
          5    1    4    4  502    0 -0.27783177124E+02 -0.49677245205E+02 -0.49643136760E+02  0.75672086330E+02  0.47000000000E+01 0. -1.
         -5    1    4    4    0  502  0.63887177278E+02  0.14941355544E+02  0.55964593721E+01  0.66016860600E+02  0.47000000000E+01 0. -1.
<mgrwt>
<rscale>  0 0.27078815E+03</rscale>
<asrwt>0</asrwt>
<pdfrwt beam="1">  1       21 0.13617939E-01 0.27078815E+03</pdfrwt>
<pdfrwt beam="2">  1       21 0.31861132E-01 0.27078815E+03</pdfrwt>
<totfact> 0.43580627E+05</totfact>
</mgrwt>
</event>
<event>
 8    1  0.9974463E-006  0.3979836E+03  0.7546771E-02  0.1044480E+00
         21   -1    0    0  504  503  0.00000000000E+00  0.00000000000E+00  0.11000824165E+04  0.11000824165E+04  0.00000000000E+00 0. -1.
         21   -1    0    0  503  504 -0.00000000000E+00 -0.00000000000E+00 -0.35995247596E+02  0.35995247596E+02  0.00000000000E+00 0. -1.
         25    2    1    2    0    0 -0.24735260640E+02 -0.49038739839E+02  0.94530817300E+03  0.95511965300E+03  0.12501751269E+03 0.  0.
         25    2    1    2    0    0  0.24735260640E+02  0.49038739839E+02  0.11877899591E+03  0.18095801111E+03  0.12498288199E+03 0.  0.
          5    1    3    3  501    0 -0.30155096308E+02  0.15338273282E+02  0.75085177825E+02  0.82489189532E+02  0.47000000000E+01 0.  1.
         -5    1    3    3    0  501  0.54198356687E+01 -0.64377013121E+02  0.87022299518E+03  0.87263046347E+03  0.47000000000E+01 0.  1.
          5    1    4    4  502    0 -0.63327782586E+01  0.76797236752E+02  0.11547068158E+03  0.13890100057E+03  0.47000000000E+01 0. -1.
         -5    1    4    4    0  502  0.31068038898E+02 -0.27758496913E+02  0.33083143293E+01  0.42057010540E+02  0.47000000000E+01 0. -1.
<mgrwt>
<rscale>  0 0.39798361E+03</rscale>
<asrwt>0</asrwt>
<pdfrwt beam="1">  1       21 0.16924342E+00 0.39798361E+03</pdfrwt>
<pdfrwt beam="2">  1       21 0.55377312E-02 0.39798361E+03</pdfrwt>
<totfact> 0.44721847E+04</totfact>
</mgrwt>
</event>
<event>
 8    1  0.9974463E-006  0.2539376E+03  0.7546771E-02  0.1110841E+00
         21   -1    0    0  504  503  0.00000000000E+00  0.00000000000E+00  0.65909813709E+02  0.65909813709E+02  0.00000000000E+00 0. -1.
         21   -1    0    0  503  504 -0.00000000000E+00 -0.00000000000E+00 -0.24459291065E+03  0.24459291065E+03  0.00000000000E+00 0. -1.
         25    2    1    2    0    0 -0.17789764214E+02  0.85120794935E+01 -0.76695279497E+02  0.14797808338E+03  0.12500566409E+03 0.  0.
         25    2    1    2    0    0  0.17789764214E+02 -0.85120794935E+01 -0.10198781745E+03  0.16252464098E+03  0.12499525115E+03 0.  0.
          5    1    3    3  501    0  0.23064268402E+02  0.53983256054E+02 -0.14511247979E+02  0.60653266433E+02  0.47000000000E+01 0.  1.
         -5    1    3    3    0  501 -0.40854032616E+02 -0.45471176561E+02 -0.62184031518E+02  0.87324816946E+02  0.47000000000E+01 0.  1.
          5    1    4    4  502    0  0.44487211704E+02  0.18692446133E+02 -0.11267275080E+03  0.12266115245E+03  0.47000000000E+01 0. -1.
         -5    1    4    4    0  502 -0.26697447490E+02 -0.27204525626E+02  0.10684933355E+02  0.39863488531E+02  0.47000000000E+01 0. -1.
<mgrwt>
<rscale>  0 0.25393758E+03</rscale>
<asrwt>0</asrwt>
<pdfrwt beam="1">  1       21 0.10139971E-01 0.25393758E+03</pdfrwt>
<pdfrwt beam="2">  1       21 0.37629679E-01 0.25393758E+03</pdfrwt>
<totfact> 0.53297760E+05</totfact>
</mgrwt>
</event>
<event>
 8    1  0.9974463E-006  0.3087507E+03  0.7546771E-02  0.1080946E+00
         21   -1    0    0  504  503  0.00000000000E+00  0.00000000000E+00  0.78572876163E+02  0.78572876163E+02  0.00000000000E+00 0.  1.
         21   -1    0    0  503  504 -0.00000000000E+00 -0.00000000000E+00 -0.30330762801E+03  0.30330762801E+03  0.00000000000E+00 0.  1.
         25    2    1    2    0    0  0.34438723452E+02 -0.55293250879E+02 -0.34497538130E+02  0.14511531961E+03  0.12500002633E+03 0.  0.
         25    2    1    2    0    0 -0.34438723452E+02  0.55293250879E+02 -0.19023721372E+03  0.23676518457E+03  0.12499674345E+03 0.  0.
          5    1    3    3  501    0 -0.27752055647E+02 -0.43558046033E+02 -0.57665878622E+02  0.77555938032E+02  0.47000000000E+01 0.  1.
         -5    1    3    3    0  501  0.62190779099E+02 -0.11735204846E+02  0.23168340491E+02  0.67559381575E+02  0.47000000000E+01 0.  1.
          5    1    4    4  502    0 -0.64025686006E+02  0.84344881958E+01 -0.16185293240E+03  0.17432409698E+03  0.47000000000E+01 0.  1.
         -5    1    4    4    0  502  0.29586962555E+02  0.46858762683E+02 -0.28384281313E+02  0.62441087587E+02  0.47000000000E+01 0.  1.
<mgrwt>
<rscale>  0 0.30875073E+03</rscale>
<asrwt>0</asrwt>
<pdfrwt beam="1">  1       21 0.12088135E-01 0.30875073E+03</pdfrwt>
<pdfrwt beam="2">  1       21 0.46662713E-01 0.30875073E+03</pdfrwt>
<totfact> 0.24745854E+05</totfact>
</mgrwt>
</event>
<event>
 8    1  0.9974463E-006  0.3796237E+03  0.7546771E-02  0.1051073E+00
         21   -1    0    0  504  503  0.00000000000E+00  0.00000000000E+00  0.32286095375E+03  0.32286095375E+03  0.00000000000E+00 0. -1.
         21   -1    0    0  503  504 -0.00000000000E+00 -0.00000000000E+00 -0.11159147879E+03  0.11159147879E+03  0.00000000000E+00 0. -1.
         25    2    1    2    0    0 -0.73462003064E+01  0.12800687717E+02 -0.56948462309E+02  0.13816793208E+03  0.12501770207E+03 0.  0.
         25    2    1    2    0    0  0.73462003064E+01 -0.12800687717E+02  0.26821793728E+03  0.29628450046E+03  0.12500327625E+03 0.  0.
          5    1    3    3  501    0  0.50449233675E+02 -0.16743008802E+02 -0.49284489530E+02  0.72639551419E+02  0.47000000000E+01 0. -1.
         -5    1    3    3    0  501 -0.57795433981E+02  0.29543696519E+02 -0.76639727795E+01  0.65528380659E+02  0.47000000000E+01 0. -1.
          5    1    4    4  502    0  0.36302532993E+02 -0.29112130691E+02  0.29671990564E+02  0.55388690896E+02  0.47000000000E+01 0. -1.
         -5    1    4    4    0  502 -0.28956332687E+02  0.16311442975E+02  0.23854594671E+03  0.24089580957E+03  0.47000000000E+01 0. -1.
<mgrwt>
<rscale>  0 0.37962366E+03</rscale>
<asrwt>0</asrwt>
<pdfrwt beam="1">  1       21 0.49670916E-01 0.37962366E+03</pdfrwt>
<pdfrwt beam="2">  1       21 0.17167920E-01 0.37962366E+03</pdfrwt>
<totfact> 0.11216178E+05</totfact>
</mgrwt>
</event>
<event>
 8    1  0.9974463E-006  0.6309420E+03  0.7546771E-02  0.9843212E-01
         21   -1    0    0  504  503  0.00000000000E+00  0.00000000000E+00  0.39917437315E+03  0.39917437315E+03  0.00000000000E+00 0.  1.
         21   -1    0    0  503  504 -0.00000000000E+00 -0.00000000000E+00 -0.24931948839E+03  0.24931948839E+03  0.00000000000E+00 0.  1.
         25    2    1    2    0    0 -0.18998098480E+02  0.14403896176E+03  0.33247553956E+03  0.38376342770E+03  0.12500493503E+03 0.  0.
         25    2    1    2    0    0  0.18998098480E+02 -0.14403896176E+03 -0.18262065480E+03  0.26473043384E+03  0.12499499507E+03 0.  0.
          5    1    3    3  501    0 -0.22679896144E+02  0.64617249843E+02  0.37487254610E+02  0.78212217233E+02  0.47000000000E+01 0.  1.
         -5    1    3    3    0  501  0.36817976645E+01  0.79421711919E+02  0.29498828495E+03  0.30555121047E+03  0.47000000000E+01 0.  1.
          5    1    4    4  502    0  0.63030854116E+02 -0.34434651682E+02 -0.53591175917E+02  0.89737048889E+02  0.47000000000E+01 0. -1.
         -5    1    4    4    0  502 -0.44032755637E+02 -0.10960431008E+03 -0.12902947888E+03  0.17499338495E+03  0.47000000000E+01 0. -1.
<mgrwt>
<rscale>  0 0.63094200E+03</rscale>
<asrwt>0</asrwt>
<pdfrwt beam="1">  1       21 0.61411442E-01 0.63094200E+03</pdfrwt>
<pdfrwt beam="2">  1       21 0.38356844E-01 0.63094200E+03</pdfrwt>
<totfact> 0.13930290E+04</totfact>
</mgrwt>
</event>
<event>
 8    1  0.9974463E-006  0.3392474E+03  0.7546771E-02  0.1067117E+00
         21   -1    0    0  504  503  0.00000000000E+00  0.00000000000E+00  0.84396639829E+02  0.84396639829E+02  0.00000000000E+00 0.  1.
         21   -1    0    0  503  504 -0.00000000000E+00 -0.00000000000E+00 -0.34091647436E+03  0.34091647436E+03  0.00000000000E+00 0.  1.
         25    2    1    2    0    0  0.44716789973E+02 -0.95207073589E+02 -0.18548354670E+03  0.24717064799E+03  0.12500081985E+03 0.  0.
         25    2    1    2    0    0 -0.44716789973E+02  0.95207073589E+02 -0.71036287835E+02  0.17814246620E+03  0.12499842363E+03 0.  0.
          5    1    3    3  501    0 -0.68398313254E+01  0.28149735167E+02 -0.38701438950E+02  0.48570384591E+02  0.47000000000E+01 0.  1.
         -5    1    3    3    0  501  0.51556621298E+02 -0.12335680876E+03 -0.14678210775E+03  0.19860026340E+03  0.47000000000E+01 0.  1.
          5    1    4    4  502    0  0.26138960250E+02  0.15910053336E+02  0.21013053965E+02  0.37416753961E+02  0.47000000000E+01 0.  1.
         -5    1    4    4    0  502 -0.70855750222E+02  0.79297020253E+02 -0.92049341800E+02  0.14072571224E+03  0.47000000000E+01 0.  1.
<mgrwt>
<rscale>  0 0.33924743E+03</rscale>
<asrwt>0</asrwt>
<pdfrwt beam="1">  1       21 0.12984098E-01 0.33924743E+03</pdfrwt>
<pdfrwt beam="2">  1       21 0.52448688E-01 0.33924743E+03</pdfrwt>
<totfact> 0.16878398E+05</totfact>
</mgrwt>
</event>
<event>
 8    1  0.9974463E-006  0.3592311E+03  0.7546771E-02  0.1058889E+00
         21   -1    0    0  504  503  0.00000000000E+00  0.00000000000E+00  0.17394775956E+04  0.17394775956E+04  0.00000000000E+00 0. -1.
         21   -1    0    0  503  504 -0.00000000000E+00 -0.00000000000E+00 -0.18546800101E+02  0.18546800101E+02  0.00000000000E+00 0. -1.
         25    2    1    2    0    0 -0.15854872543E+02  0.96508380641E+02  0.12719104685E+04  0.12817750471E+04  0.12500314843E+03 0.  0.
         25    2    1    2    0    0  0.15854872543E+02 -0.96508380641E+02  0.44902032702E+03  0.47624934856E+03  0.12501577266E+03 0.  0.
          5    1    3    3  501    0 -0.53960238702E+02  0.91266627849E+02  0.64543068253E+03  0.65409797482E+03  0.47000000000E+01 0.  1.
         -5    1    3    3    0  501  0.38105366159E+02  0.52417527917E+01  0.62647978593E+03  0.62767707229E+03  0.47000000000E+01 0.  1.
          5    1    4    4  502    0  0.20280724310E+02 -0.22013467993E+02  0.11534926925E+02  0.32419825582E+02  0.47000000000E+01 0. -1.
         -5    1    4    4    0  502 -0.44258517667E+01 -0.74494912648E+02  0.43748540010E+03  0.44382952298E+03  0.47000000000E+01 0. -1.
<mgrwt>
<rscale>  0 0.35923109E+03</rscale>
<asrwt>0</asrwt>
<pdfrwt beam="1">  1       21 0.26761181E+00 0.35923109E+03</pdfrwt>
<pdfrwt beam="2">  1       21 0.28533552E-02 0.35923109E+03</pdfrwt>
<totfact> 0.32496648E+04</totfact>
</mgrwt>
</event>
<event>
 8    1  0.9974463E-006  0.3467910E+03  0.7546771E-02  0.1063940E+00
         21   -1    0    0  504  503  0.00000000000E+00  0.00000000000E+00  0.28624828712E+02  0.28624828712E+02  0.00000000000E+00 0.  1.
         21   -1    0    0  503  504 -0.00000000000E+00 -0.00000000000E+00 -0.10503467098E+04  0.10503467098E+04  0.00000000000E+00 0.  1.
         25    2    1    2    0    0 -0.81944582339E+01 -0.71292243884E+02 -0.21095984644E+03  0.25549723965E+03  0.12500019790E+03 0.  0.
         25    2    1    2    0    0  0.81944582339E+01  0.71292243884E+02 -0.81076203468E+03  0.82347429890E+03  0.12500044349E+03 0.  0.
          5    1    3    3  501    0 -0.31862983047E+02 -0.10009969967E+03 -0.13874962039E+03  0.17409407435E+03  0.47000000000E+01 0.  1.
         -5    1    3    3    0  501  0.23668524813E+02  0.28807455790E+02 -0.72210226048E+02  0.81403165306E+02  0.47000000000E+01 0.  1.
          5    1    4    4  502    0 -0.37752304865E+02 -0.17858171020E+02 -0.18541939962E+03  0.19012257770E+03  0.47000000000E+01 0. -1.
         -5    1    4    4    0  502  0.45946763099E+02  0.89150414905E+02 -0.62534263506E+03  0.63335172120E+03  0.47000000000E+01 0. -1.
<mgrwt>
<rscale>  0 0.34679097E+03</rscale>
<asrwt>0</asrwt>
<pdfrwt beam="1">  1       21 0.44038209E-02 0.34679097E+03</pdfrwt>
<pdfrwt beam="2">  1       21 0.16159176E+00 0.34679097E+03</pdfrwt>
<totfact> 0.76661666E+04</totfact>
</mgrwt>
</event>
<event>
 8    1  0.9974463E-006  0.2742820E+03  0.7546771E-02  0.1098854E+00
         21   -1    0    0  504  503  0.00000000000E+00  0.00000000000E+00  0.20436988815E+02  0.20436988815E+02  0.00000000000E+00 0. -1.
         21   -1    0    0  503  504 -0.00000000000E+00 -0.00000000000E+00 -0.92027497898E+03  0.92027497898E+03  0.00000000000E+00 0. -1.
         25    2    1    2    0    0 -0.46580086098E+02 -0.20529876199E+02 -0.36654941963E+03  0.39060829043E+03  0.12500071714E+03 0.  0.
         25    2    1    2    0    0  0.46580086098E+02  0.20529876199E+02 -0.53328857053E+03  0.55010367736E+03  0.12500470450E+03 0.  0.
          5    1    3    3  501    0  0.16382891755E+02  0.79098677108E+01 -0.12805266777E+01  0.18833345375E+02  0.47000000000E+01 0. -1.
         -5    1    3    3    0  501 -0.62962977853E+02 -0.28439743910E+02 -0.36526889295E+03  0.37177494506E+03  0.47000000000E+01 0. -1.
          5    1    4    4  502    0  0.51393564643E+02  0.65290774245E+02 -0.25720927961E+03  0.27033846786E+03  0.47000000000E+01 0.  1.
         -5    1    4    4    0  502 -0.48134785451E+01 -0.44760898046E+02 -0.27607929092E+03  0.27976520950E+03  0.47000000000E+01 0.  1.
<mgrwt>
<rscale>  0 0.27428197E+03</rscale>
<asrwt>0</asrwt>
<pdfrwt beam="1">  1       21 0.31441516E-02 0.27428197E+03</pdfrwt>
<pdfrwt beam="2">  1       21 0.14158079E+00 0.27428197E+03</pdfrwt>
<totfact> 0.19764914E+05</totfact>
</mgrwt>
</event>
<event>
 8    1  0.9974463E-006  0.3067958E+03  0.7546771E-02  0.1081892E+00
         21   -1    0    0  504  503  0.00000000000E+00  0.00000000000E+00  0.10980681263E+03  0.10980681263E+03  0.00000000000E+00 0.  1.
         21   -1    0    0  503  504 -0.00000000000E+00 -0.00000000000E+00 -0.21429376305E+03  0.21429376305E+03  0.00000000000E+00 0.  1.
         25    2    1    2    0    0  0.43280396883E+02  0.80401280132E+01  0.29373561507E+02  0.13573622384E+03  0.12499471962E+03 0.  0.
         25    2    1    2    0    0 -0.43280396883E+02 -0.80401280132E+01 -0.13386051192E+03  0.18836435184E+03  0.12499862391E+03 0.  0.
          5    1    3    3  501    0  0.13407035756E+02 -0.11304460441E+02  0.75292248140E+02  0.77450319971E+02  0.47000000000E+01 0. -1.
         -5    1    3    3    0  501  0.29873361127E+02  0.19344588454E+02 -0.45918686633E+02  0.58285903867E+02  0.47000000000E+01 0. -1.
          5    1    4    4  502    0 -0.16513854845E+02 -0.66097908817E+02 -0.64896421525E+02  0.94208685792E+02  0.47000000000E+01 0.  1.
         -5    1    4    4    0  502 -0.26766542037E+02  0.58057780804E+02 -0.68964090399E+02  0.94155666048E+02  0.47000000000E+01 0.  1.
<mgrwt>
<rscale>  0 0.30679580E+03</rscale>
<asrwt>0</asrwt>
<pdfrwt beam="1">  1       21 0.16893356E-01 0.30679580E+03</pdfrwt>
<pdfrwt beam="2">  1       21 0.32968271E-01 0.30679580E+03</pdfrwt>
<totfact> 0.27207805E+05</totfact>
</mgrwt>
</event>
<event>
 8    1  0.9974463E-006  0.3923745E+03  0.7546771E-02  0.1046453E+00
         21   -1    0    0  504  503  0.00000000000E+00  0.00000000000E+00  0.59298651629E+02  0.59298651629E+02  0.00000000000E+00 0. -1.
         21   -1    0    0  503  504 -0.00000000000E+00 -0.00000000000E+00 -0.64907783606E+03  0.64907783606E+03  0.00000000000E+00 0. -1.
         25    2    1    2    0    0  0.10004242850E+03  0.22544894869E+02 -0.94269328498E+02  0.18715754333E+03  0.12499791977E+03 0.  0.
         25    2    1    2    0    0 -0.10004242850E+03 -0.22544894869E+02 -0.49550985594E+03  0.52121894436E+03  0.12498964294E+03 0.  0.
          5    1    3    3  501    0  0.27562094158E+02 -0.51090856715E+02 -0.32885568028E+02  0.66884192892E+02  0.47000000000E+01 0. -1.
         -5    1    3    3    0  501  0.72480334340E+02  0.73635751584E+02 -0.61383760470E+02  0.12027335044E+03  0.47000000000E+01 0. -1.
          5    1    4    4  502    0 -0.31073029624E+02  0.33664305972E+02 -0.33048325624E+03  0.33367662687E+03  0.47000000000E+01 0.  1.
         -5    1    4    4    0  502 -0.68969398874E+02 -0.56209200841E+02 -0.16502659970E+03  0.18754231748E+03  0.47000000000E+01 0.  1.
<mgrwt>
<rscale>  0 0.39237452E+03</rscale>
<asrwt>0</asrwt>
<pdfrwt beam="1">  1       21 0.91228686E-02 0.39237452E+03</pdfrwt>
<pdfrwt beam="2">  1       21 0.99858138E-01 0.39237452E+03</pdfrwt>
<totfact> 0.73481655E+04</totfact>
</mgrwt>
</event>
<event>
 8    1  0.9974463E-006  0.3091022E+03  0.7546771E-02  0.1080777E+00
         21   -1    0    0  504  503  0.00000000000E+00  0.00000000000E+00  0.10521554755E+03  0.10521554755E+03  0.00000000000E+00 0. -1.
         21   -1    0    0  503  504 -0.00000000000E+00 -0.00000000000E+00 -0.22702001804E+03  0.22702001804E+03  0.00000000000E+00 0. -1.
         25    2    1    2    0    0  0.18312442628E+02  0.15071784439E+02  0.33386476048E+02  0.13155815271E+03  0.12502154423E+03 0.  0.
         25    2    1    2    0    0 -0.18312442628E+02 -0.15071784439E+02 -0.15519094653E+03  0.20067741288E+03  0.12499875964E+03 0.  0.
          5    1    3    3  501    0  0.38058759402E+02 -0.19373316855E+02  0.66819835584E+02  0.79440386458E+02  0.47000000000E+01 0.  1.
         -5    1    3    3    0  501 -0.19746316774E+02  0.34445101295E+02 -0.33433359536E+02  0.52117766253E+02  0.47000000000E+01 0.  1.
          5    1    4    4  502    0 -0.12609717005E+02  0.13412781923E+02 -0.16764843627E+03  0.16872165204E+03  0.47000000000E+01 0. -1.
         -5    1    4    4    0  502 -0.57027256229E+01 -0.28484566362E+02  0.12457489736E+02  0.31955760841E+02  0.47000000000E+01 0. -1.
<mgrwt>
<rscale>  0 0.30910215E+03</rscale>
<asrwt>0</asrwt>
<pdfrwt beam="1">  1       21 0.16187008E-01 0.30910215E+03</pdfrwt>
<pdfrwt beam="2">  1       21 0.34926156E-01 0.30910215E+03</pdfrwt>
<totfact> 0.26230980E+05</totfact>
</mgrwt>
</event>
<event>
 8    1  0.9974463E-006  0.3338639E+03  0.7546771E-02  0.1069440E+00
         21   -1    0    0  504  503  0.00000000000E+00  0.00000000000E+00  0.32137010315E+02  0.32137010315E+02  0.00000000000E+00 0. -1.
         21   -1    0    0  503  504 -0.00000000000E+00 -0.00000000000E+00 -0.86710877041E+03  0.86710877041E+03  0.00000000000E+00 0. -1.
         25    2    1    2    0    0 -0.70426218865E+02  0.82333551592E+02 -0.47784047413E+03  0.50566475401E+03  0.12500663468E+03 0.  0.
         25    2    1    2    0    0  0.70426218865E+02 -0.82333551592E+02 -0.35713128596E+03  0.39358102671E+03  0.12499841260E+03 0.  0.
          5    1    3    3  501    0 -0.15327293178E+02 -0.15379870900E+02 -0.25665325569E+03  0.25761298493E+03  0.47000000000E+01 0.  1.
         -5    1    3    3    0  501 -0.55098925687E+02  0.97713422492E+02 -0.22118721844E+03  0.24805176908E+03  0.47000000000E+01 0.  1.
          5    1    4    4  502    0  0.75704116765E+01 -0.99502484568E+02 -0.22506550331E+03  0.24624099242E+03  0.47000000000E+01 0. -1.
         -5    1    4    4    0  502  0.62855807188E+02  0.17168932976E+02 -0.13206578265E+03  0.14734003429E+03  0.47000000000E+01 0. -1.
<mgrwt>
<rscale>  0 0.33386395E+03</rscale>
<asrwt>0</asrwt>
<pdfrwt beam="1">  1       21 0.49441554E-02 0.33386395E+03</pdfrwt>
<pdfrwt beam="2">  1       21 0.13340135E+00 0.33386395E+03</pdfrwt>
<totfact> 0.10544736E+05</totfact>
</mgrwt>
</event>
<event>
 8    1  0.9974463E-006  0.2845172E+03  0.7546771E-02  0.1093247E+00
         21   -1    0    0  504  503  0.00000000000E+00  0.00000000000E+00  0.24654906605E+03  0.24654906605E+03  0.00000000000E+00 0. -1.
         21   -1    0    0  503  504 -0.00000000000E+00 -0.00000000000E+00 -0.82083099427E+02  0.82083099427E+02  0.00000000000E+00 0. -1.
         25    2    1    2    0    0 -0.40360508199E+01 -0.40638544796E+02  0.14490977079E+03  0.19568739615E+03  0.12500773701E+03 0.  0.
         25    2    1    2    0    0  0.40360508199E+01  0.40638544796E+02  0.19556195831E+02  0.13294476933E+03  0.12499634341E+03 0.  0.
          5    1    3    3  501    0  0.94276430072E+01 -0.83683746437E+02  0.78154570428E+02  0.11498728951E+03  0.47000000000E+01 0. -1.
         -5    1    3    3    0  501 -0.13463693827E+02  0.43045201641E+02  0.66755200362E+02  0.80700106636E+02  0.47000000000E+01 0. -1.
          5    1    4    4  502    0  0.61626459276E+02  0.27063282815E+02  0.27888689915E+02  0.73007607718E+02  0.47000000000E+01 0.  1.
         -5    1    4    4    0  502 -0.57590408456E+02  0.13575261981E+02 -0.83324940840E+01  0.59937161608E+02  0.47000000000E+01 0.  1.
<mgrwt>
<rscale>  0 0.28451722E+03</rscale>
<asrwt>0</asrwt>
<pdfrwt beam="1">  1       21 0.37930625E-01 0.28451722E+03</pdfrwt>
<pdfrwt beam="2">  1       21 0.12628169E-01 0.28451722E+03</pdfrwt>
<totfact> 0.35172813E+05</totfact>
</mgrwt>
</event>
<event>
 8    1  0.9974463E-006  0.3250099E+03  0.7546771E-02  0.1073366E+00
         21   -1    0    0  504  503  0.00000000000E+00  0.00000000000E+00  0.92037353541E+02  0.92037353541E+02  0.00000000000E+00 0.  1.
         21   -1    0    0  503  504 -0.00000000000E+00 -0.00000000000E+00 -0.28692536873E+03  0.28692536873E+03  0.00000000000E+00 0.  1.
         25    2    1    2    0    0 -0.33810432005E+02  0.38079860069E+02 -0.20296737091E+03  0.24375029388E+03  0.12500092423E+03 0.  0.
         25    2    1    2    0    0  0.33810432005E+02 -0.38079860069E+02  0.80793557150E+01  0.13521242839E+03  0.12499561491E+03 0.  0.
          5    1    3    3  501    0  0.30399596963E+01  0.13332670621E+02  0.15249307414E+02  0.21015062157E+02  0.47000000000E+01 0.  1.
         -5    1    3    3    0  501 -0.36850391701E+02  0.24747189448E+02 -0.21821667832E+03  0.22273523173E+03  0.47000000000E+01 0.  1.
          5    1    4    4  502    0  0.37302263628E+02  0.13001138972E+02 -0.45849063083E+02  0.60701853941E+02  0.47000000000E+01 0. -1.
         -5    1    4    4    0  502 -0.34918316227E+01 -0.51080999041E+02  0.53928418798E+02  0.74510574452E+02  0.47000000000E+01 0. -1.
<mgrwt>
<rscale>  0 0.32500986E+03</rscale>
<asrwt>0</asrwt>
<pdfrwt beam="1">  1       21 0.14159593E-01 0.32500986E+03</pdfrwt>
<pdfrwt beam="2">  1       21 0.44142364E-01 0.32500986E+03</pdfrwt>
<totfact> 0.20754737E+05</totfact>
</mgrwt>
</event>
<event>
 8    1  0.9974463E-006  0.2814491E+03  0.7546771E-02  0.1094900E+00
         21   -1    0    0  504  503  0.00000000000E+00  0.00000000000E+00  0.73769696203E+02  0.73769696203E+02  0.00000000000E+00 0. -1.
         21   -1    0    0  503  504 -0.00000000000E+00 -0.00000000000E+00 -0.26844892042E+03  0.26844892042E+03  0.00000000000E+00 0. -1.
         25    2    1    2    0    0 -0.56887140191E+02 -0.29556364567E+02 -0.10742378580E+03  0.17684371371E+03  0.12499641562E+03 0.  0.
         25    2    1    2    0    0  0.56887140191E+02  0.29556364567E+02 -0.87255438416E+02  0.16537490291E+03  0.12500248628E+03 0.  0.
          5    1    3    3  501    0 -0.21680596409E+02  0.49198754541E+02 -0.44788105938E+02  0.70132946199E+02  0.47000000000E+01 0.  1.
         -5    1    3    3    0  501 -0.35206543782E+02 -0.78755119108E+02 -0.62635679864E+02  0.10671076751E+03  0.47000000000E+01 0.  1.
          5    1    4    4  502    0 -0.26282292794E+02  0.41850936525E+02 -0.90599814583E+01  0.50462194428E+02  0.47000000000E+01 0.  1.
         -5    1    4    4    0  502  0.83169432985E+02 -0.12294571958E+02 -0.78195456958E+02  0.11491270849E+03  0.47000000000E+01 0.  1.
<mgrwt>
<rscale>  0 0.28144907E+03</rscale>
<asrwt>0</asrwt>
<pdfrwt beam="1">  1       21 0.11349184E-01 0.28144907E+03</pdfrwt>
<pdfrwt beam="2">  1       21 0.41299833E-01 0.28144907E+03</pdfrwt>
<totfact> 0.35883943E+05</totfact>
</mgrwt>
</event>
<event>
 8    1  0.9974463E-006  0.2915988E+03  0.7546771E-02  0.1089517E+00
         21   -1    0    0  504  503  0.00000000000E+00  0.00000000000E+00  0.54420026739E+02  0.54420026739E+02  0.00000000000E+00 0.  1.
         21   -1    0    0  503  504 -0.00000000000E+00 -0.00000000000E+00 -0.39061836267E+03  0.39061836267E+03  0.00000000000E+00 0.  1.
         25    2    1    2    0    0  0.48983899794E+02  0.16252508903E+02 -0.84976489568E+02  0.15972950198E+03  0.12501577316E+03 0.  0.
         25    2    1    2    0    0 -0.48983899794E+02 -0.16252508903E+02 -0.25122184636E+03  0.28530888742E+03  0.12500071468E+03 0.  0.
          5    1    3    3  501    0  0.44279725125E+02 -0.50373516915E+02 -0.32596034461E+02  0.74717981277E+02  0.47000000000E+01 0. -1.
         -5    1    3    3    0  501  0.47041746691E+01  0.66626025818E+02 -0.52380455107E+02  0.85011520707E+02  0.47000000000E+01 0. -1.
          5    1    4    4  502    0 -0.25801690526E+02  0.51924945472E+02 -0.15093160139E+03  0.16175402776E+03  0.47000000000E+01 0.  1.
         -5    1    4    4    0  502 -0.23182209268E+02 -0.68177454376E+02 -0.10029024496E+03  0.12355485966E+03  0.47000000000E+01 0.  1.
<mgrwt>
<rscale>  0 0.29159878E+03</rscale>
<asrwt>0</asrwt>
<pdfrwt beam="1">  1       21 0.83723119E-02 0.29159878E+03</pdfrwt>
<pdfrwt beam="2">  1       21 0.60095132E-01 0.29159878E+03</pdfrwt>
<totfact> 0.27929521E+05</totfact>
</mgrwt>
</event>
<event>
 8    1  0.9974463E-006  0.2639271E+03  0.7546771E-02  0.1104806E+00
         21   -1    0    0  504  503  0.00000000000E+00  0.00000000000E+00  0.14337683797E+02  0.14337683797E+02  0.00000000000E+00 0. -1.
         21   -1    0    0  503  504 -0.00000000000E+00 -0.00000000000E+00 -0.12145878604E+04  0.12145878604E+04  0.00000000000E+00 0. -1.
         25    2    1    2    0    0 -0.26935301352E+02  0.87431087079E-01 -0.44816312356E+03  0.46604854906E+03  0.12500218658E+03 0.  0.
         25    2    1    2    0    0  0.26935301352E+02 -0.87431087079E-01 -0.75208705305E+03  0.76287699515E+03  0.12498342396E+03 0.  0.
          5    1    3    3  501    0  0.44096552884E+02 -0.11396467583E+02 -0.26985989582E+03  0.27371671272E+03  0.47000000000E+01 0. -1.
         -5    1    3    3    0  501 -0.71031854235E+02  0.11483898670E+02 -0.17830322775E+03  0.19233183634E+03  0.47000000000E+01 0. -1.
          5    1    4    4  502    0  0.30814354538E+02  0.41759250383E+02 -0.65386846311E+03  0.65594162583E+03  0.47000000000E+01 0. -1.
         -5    1    4    4    0  502 -0.38790531857E+01 -0.41846681470E+02 -0.98218589935E+02  0.10693536932E+03  0.47000000000E+01 0. -1.
<mgrwt>
<rscale>  0 0.26392709E+03</rscale>
<asrwt>0</asrwt>
<pdfrwt beam="1">  1       21 0.22057968E-02 0.26392709E+03</pdfrwt>
<pdfrwt beam="2">  1       21 0.18685973E+00 0.26392709E+03</pdfrwt>
<totfact> 0.16629991E+05</totfact>
</mgrwt>
</event>
<event>
 8    1  0.9974463E-006  0.4550065E+03  0.7546771E-02  0.1026240E+00
         21   -1    0    0  504  503  0.00000000000E+00  0.00000000000E+00  0.70075115612E+02  0.70075115612E+02  0.00000000000E+00 0. -1.
         21   -1    0    0  503  504 -0.00000000000E+00 -0.00000000000E+00 -0.73860339600E+03  0.73860339600E+03  0.00000000000E+00 0. -1.
         25    2    1    2    0    0 -0.58479363254E+02 -0.14049957675E+03 -0.53669945907E+03  0.57169175985E+03  0.12500076772E+03 0.  0.
         25    2    1    2    0    0  0.58479363254E+02  0.14049957675E+03 -0.13182882132E+03  0.23698675175E+03  0.12499566146E+03 0.  0.
          5    1    3    3  501    0 -0.21235101824E+02  0.18034807943E+02 -0.14033690235E+03  0.14315278554E+03  0.47000000000E+01 0.  1.
         -5    1    3    3    0  501 -0.37244261429E+02 -0.15853438469E+03 -0.39636255672E+03  0.42853897432E+03  0.47000000000E+01 0.  1.
          5    1    4    4  502    0  0.66371013885E+02  0.96858523241E+02 -0.14850472189E+03  0.18937377704E+03  0.47000000000E+01 0.  1.
         -5    1    4    4    0  502 -0.78916506316E+01  0.43641053505E+02  0.16675900573E+02  0.47612974709E+02  0.47000000000E+01 0.  1.
<mgrwt>
<rscale>  0 0.45500645E+03</rscale>
<asrwt>0</asrwt>
<pdfrwt beam="1">  1       21 0.10780787E-01 0.45500645E+03</pdfrwt>
<pdfrwt beam="2">  1       21 0.11363129E+00 0.45500645E+03</pdfrwt>
<totfact> 0.39009044E+04</totfact>
</mgrwt>
</event>
<event>
 8    1  0.9974463E-006  0.3108730E+03  0.7546771E-02  0.1079928E+00
         21   -1    0    0  504  503  0.00000000000E+00  0.00000000000E+00  0.57747888647E+03  0.57747888647E+03  0.00000000000E+00 0. -1.
         21   -1    0    0  503  504 -0.00000000000E+00 -0.00000000000E+00 -0.41837898216E+02  0.41837898216E+02  0.00000000000E+00 0. -1.
         25    2    1    2    0    0 -0.61678237912E+02 -0.24425074322E+02  0.13972740216E+03  0.19887319824E+03  0.12500405104E+03 0.  0.
         25    2    1    2    0    0  0.61678237912E+02  0.24425074322E+02  0.39591358609E+03  0.42044358645E+03  0.12499780976E+03 0.  0.
          5    1    3    3  501    0 -0.61628802282E+02 -0.30102772809E+02  0.16169430907E+03  0.17570266300E+03  0.47000000000E+01 0. -1.
         -5    1    3    3    0  501 -0.49435629548E-01  0.56776984867E+01 -0.21966906907E+02  0.23170535235E+02  0.47000000000E+01 0. -1.
          5    1    4    4  502    0  0.50623416841E+02 -0.28865932165E+02  0.32856175199E+03  0.33372277004E+03  0.47000000000E+01 0. -1.
         -5    1    4    4    0  502  0.11054821071E+02  0.53291006487E+02  0.67351834101E+02  0.86720816406E+02  0.47000000000E+01 0. -1.
<mgrwt>
<rscale>  0 0.31087298E+03</rscale>
<asrwt>0</asrwt>
<pdfrwt beam="1">  1       21 0.88842900E-01 0.31087298E+03</pdfrwt>
<pdfrwt beam="2">  1       21 0.64366001E-02 0.31087298E+03</pdfrwt>
<totfact> 0.18275118E+05</totfact>
</mgrwt>
</event>
<event>
 8    1  0.9974463E-006  0.3034262E+03  0.7546771E-02  0.1083540E+00
         21   -1    0    0  504  503  0.00000000000E+00  0.00000000000E+00  0.11968649950E+03  0.11968649950E+03  0.00000000000E+00 0.  1.
         21   -1    0    0  503  504 -0.00000000000E+00 -0.00000000000E+00 -0.19230961509E+03  0.19230961509E+03  0.00000000000E+00 0.  1.
         25    2    1    2    0    0 -0.64509013842E+02 -0.50111456303E+02 -0.87359977382E+01  0.14957873822E+03  0.12499964140E+03 0.  0.
         25    2    1    2    0    0  0.64509013842E+02  0.50111456303E+02 -0.63887117849E+02  0.16241737636E+03  0.12500107759E+03 0.  0.
          5    1    3    3  501    0 -0.30817656790E+01 -0.37238779909E+01  0.51365818107E+02  0.51806387799E+02  0.47000000000E+01 0.  1.
         -5    1    3    3    0  501 -0.61427248163E+02 -0.46387578312E+02 -0.60101815845E+02  0.97772350419E+02  0.47000000000E+01 0.  1.
          5    1    4    4  502    0  0.50338153197E+02 -0.35912838616E+02 -0.26393887621E+02  0.67397247336E+02  0.47000000000E+01 0.  1.
         -5    1    4    4    0  502  0.14170860645E+02  0.86024294919E+02 -0.37493230229E+02  0.95020129029E+02  0.47000000000E+01 0.  1.
<mgrwt>
<rscale>  0 0.30342620E+03</rscale>
<asrwt>0</asrwt>
<pdfrwt beam="1">  1       21 0.18413308E-01 0.30342620E+03</pdfrwt>
<pdfrwt beam="2">  1       21 0.29586094E-01 0.30342620E+03</pdfrwt>
<totfact> 0.28723955E+05</totfact>
</mgrwt>
</event>
<event>
 8    1  0.9974463E-006  0.2882918E+03  0.7546771E-02  0.1091244E+00
         21   -1    0    0  504  503  0.00000000000E+00  0.00000000000E+00  0.43756559641E+02  0.43756559641E+02  0.00000000000E+00 0.  1.
         21   -1    0    0  503  504 -0.00000000000E+00 -0.00000000000E+00 -0.47485535586E+03  0.47485535586E+03  0.00000000000E+00 0.  1.
         25    2    1    2    0    0 -0.48717880695E+02 -0.11354642318E+02 -0.30816450269E+03  0.33629377974E+03  0.12500314305E+03 0.  0.
         25    2    1    2    0    0  0.48717880695E+02  0.11354642318E+02 -0.12293429354E+03  0.18231813577E+03  0.12499880920E+03 0.  0.
          5    1    3    3  501    0 -0.68528009958E+02 -0.41968034860E+02 -0.11951366606E+03  0.14409375585E+03  0.47000000000E+01 0.  1.
         -5    1    3    3    0  501  0.19810129264E+02  0.30613392543E+02 -0.18865083663E+03  0.19220002389E+03  0.47000000000E+01 0.  1.
          5    1    4    4  502    0 -0.14780025707E+01  0.58385244680E+02 -0.27868695615E+02  0.64882782641E+02  0.47000000000E+01 0.  1.
         -5    1    4    4    0  502  0.50195883265E+02 -0.47030602362E+02 -0.95065597921E+02  0.11743535312E+03  0.47000000000E+01 0.  1.
<mgrwt>
<rscale>  0 0.28829177E+03</rscale>
<asrwt>0</asrwt>
<pdfrwt beam="1">  1       21 0.67317780E-02 0.28829177E+03</pdfrwt>
<pdfrwt beam="2">  1       21 0.73054674E-01 0.28829177E+03</pdfrwt>
<totfact> 0.26604087E+05</totfact>
</mgrwt>
</event>
<event>
 8    1  0.9974463E-006  0.3091726E+03  0.7546771E-02  0.1080743E+00
         21   -1    0    0  504  503  0.00000000000E+00  0.00000000000E+00  0.16650233545E+03  0.16650233545E+03  0.00000000000E+00 0.  1.
         21   -1    0    0  503  504 -0.00000000000E+00 -0.00000000000E+00 -0.14352304999E+03  0.14352304999E+03  0.00000000000E+00 0.  1.
         25    2    1    2    0    0  0.37161264201E+02 -0.22701436817E+02 -0.68647263700E+02  0.14911083469E+03  0.12500111766E+03 0.  0.
         25    2    1    2    0    0 -0.37161264201E+02  0.22701436817E+02  0.91626549157E+02  0.16091455075E+03  0.12490697876E+03 0.  0.
          5    1    3    3  501    0  0.14110530316E+02 -0.86009451419E+01  0.36555523531E+02  0.40391578624E+02  0.47000000000E+01 0. -1.
         -5    1    3    3    0  501  0.23050733886E+02 -0.14100491676E+02 -0.10520278723E+03  0.10871925606E+03  0.47000000000E+01 0. -1.
          5    1    4    4  502    0  0.24709809643E+02  0.40638846268E+02  0.82964957473E+02  0.95746355999E+02  0.47000000000E+01 0. -1.
         -5    1    4    4    0  502 -0.61871073844E+02 -0.17937409451E+02  0.86615916836E+01  0.65168194750E+02  0.47000000000E+01 0. -1.
<mgrwt>
<rscale>  0 0.30917259E+03</rscale>
<asrwt>0</asrwt>
<pdfrwt beam="1">  1       21 0.25615744E-01 0.30917259E+03</pdfrwt>
<pdfrwt beam="2">  1       21 0.22080469E-01 0.30917259E+03</pdfrwt>
<totfact> 0.26965793E+05</totfact>
</mgrwt>
</event>
<event>
 8    1  0.9974463E-006  0.2539758E+03  0.7546771E-02  0.1110818E+00
         21   -1    0    0  504  503  0.00000000000E+00  0.00000000000E+00  0.87619527004E+01  0.87619527004E+01  0.00000000000E+00 0. -1.
         21   -1    0    0  503  504 -0.00000000000E+00 -0.00000000000E+00 -0.18404493915E+04  0.18404493915E+04  0.00000000000E+00 0. -1.
         25    2    1    2    0    0  0.16990683399E+02  0.14491301502E+02 -0.90474583596E+03  0.91361295449E+03  0.12499968715E+03 0.  0.
         25    2    1    2    0    0 -0.16990683399E+02 -0.14491301502E+02 -0.92694160282E+03  0.93559838968E+03  0.12499972243E+03 0.  0.
          5    1    3    3  501    0 -0.29427232982E+02  0.23292596156E+02 -0.76666754465E+03  0.76759997466E+03  0.47000000000E+01 0.  1.
         -5    1    3    3    0  501  0.46417916382E+02 -0.88012946535E+01 -0.13807829130E+03  0.14601297983E+03  0.47000000000E+01 0.  1.
          5    1    4    4  502    0 -0.44570564547E+01 -0.46132912036E+02 -0.85068523094E+03  0.85195983654E+03  0.47000000000E+01 0. -1.
         -5    1    4    4    0  502 -0.12533626944E+02  0.31641610534E+02 -0.76256371873E+02  0.83638553148E+02  0.47000000000E+01 0. -1.
<mgrwt>
<rscale>  0 0.25397583E+03</rscale>
<asrwt>0</asrwt>
<pdfrwt beam="1">  1       21 0.13479916E-02 0.25397583E+03</pdfrwt>
<pdfrwt beam="2">  1       21 0.28314629E+00 0.25397583E+03</pdfrwt>
<totfact> 0.95234263E+04</totfact>
</mgrwt>
</event>
<event>
 8    1  0.9974463E-006  0.2726533E+03  0.7546771E-02  0.1099771E+00
         21   -1    0    0  504  503  0.00000000000E+00  0.00000000000E+00  0.35734077047E+02  0.35734077047E+02  0.00000000000E+00 0. -1.
         21   -1    0    0  503  504 -0.00000000000E+00 -0.00000000000E+00 -0.52009060020E+03  0.52009060020E+03  0.00000000000E+00 0. -1.
         25    2    1    2    0    0  0.91062643325E+01  0.53618032369E+02 -0.23809390754E+03  0.27435197354E+03  0.12498991612E+03 0.  0.
         25    2    1    2    0    0 -0.91062643325E+01 -0.53618032369E+02 -0.24626261562E+03  0.28147270371E+03  0.12499515846E+03 0.  0.
          5    1    3    3  501    0 -0.44421260600E+02 -0.48114026274E+01 -0.14606081180E+03  0.15281442580E+03  0.47000000000E+01 0.  1.
         -5    1    3    3    0  501  0.53527524933E+02  0.58429434997E+02 -0.92033095738E+02  0.12153754774E+03  0.47000000000E+01 0.  1.
          5    1    4    4  502    0  0.34430803370E+02 -0.70834986203E+02 -0.97380064588E+02  0.12533172970E+03  0.47000000000E+01 0. -1.
         -5    1    4    4    0  502 -0.43537067703E+02  0.17216953834E+02 -0.14888255103E+03  0.15614097401E+03  0.47000000000E+01 0. -1.
<mgrwt>
<rscale>  0 0.27265332E+03</rscale>
<asrwt>0</asrwt>
<pdfrwt beam="1">  1       21 0.54975504E-02 0.27265332E+03</pdfrwt>
<pdfrwt beam="2">  1       21 0.80013938E-01 0.27265332E+03</pdfrwt>
<totfact> 0.30829627E+05</totfact>
</mgrwt>
</event>
<event>
 8    1  0.9974463E-006  0.6231981E+03  0.7546771E-02  0.9858413E-01
         21   -1    0    0  504  503  0.00000000000E+00  0.00000000000E+00  0.71368736865E+03  0.71368736865E+03  0.00000000000E+00 0. -1.
         21   -1    0    0  503  504 -0.00000000000E+00 -0.00000000000E+00 -0.13604549672E+03  0.13604549672E+03  0.00000000000E+00 0. -1.
         25    2    1    2    0    0 -0.21972270700E+03 -0.40603176907E+02  0.46660599748E+02  0.26024764500E+03  0.12499975686E+03 0.  0.
         25    2    1    2    0    0  0.21972270700E+03  0.40603176907E+02  0.53098127219E+03  0.58948522037E+03  0.12500011070E+03 0.  0.
          5    1    3    3  501    0 -0.11330335930E+03  0.14920455777E+02  0.75064350715E+02  0.13681015305E+03  0.47000000000E+01 0. -1.
         -5    1    3    3    0  501 -0.10641934770E+03 -0.55523632684E+02 -0.28403750967E+02  0.12343749196E+03  0.47000000000E+01 0. -1.
          5    1    4    4  502    0  0.18713797372E+03  0.10974266692E+02  0.29623502468E+03  0.35059711292E+03  0.47000000000E+01 0. -1.
         -5    1    4    4    0  502  0.32584733271E+02  0.29628910215E+02  0.23474624751E+03  0.23888810745E+03  0.47000000000E+01 0. -1.
<mgrwt>
<rscale>  0 0.62319805E+03</rscale>
<asrwt>0</asrwt>
<pdfrwt beam="1">  1       21 0.10979805E+00 0.62319805E+03</pdfrwt>
<pdfrwt beam="2">  1       21 0.20930077E-01 0.62319805E+03</pdfrwt>
<totfact> 0.11889971E+04</totfact>
</mgrwt>
</event>
<event>
 8    1  0.9974463E-006  0.2807007E+03  0.7546771E-02  0.1095307E+00
         21   -1    0    0  504  503  0.00000000000E+00  0.00000000000E+00  0.50865684272E+02  0.50865684272E+02  0.00000000000E+00 0.  1.
         21   -1    0    0  503  504 -0.00000000000E+00 -0.00000000000E+00 -0.38725945685E+03  0.38725945685E+03  0.00000000000E+00 0.  1.
         25    2    1    2    0    0 -0.45369067073E+02 -0.29059468988E+01 -0.98254718944E+02  0.16536690060E+03  0.12500170097E+03 0.  0.
         25    2    1    2    0    0  0.45369067073E+02  0.29059468988E+01 -0.23813905363E+03  0.27275824052E+03  0.12498020696E+03 0.  0.
          5    1    3    3  501    0 -0.48244551076E+02  0.53279845221E+02 -0.75923614347E+02  0.10465545294E+03  0.47000000000E+01 0. -1.
         -5    1    3    3    0  501  0.28754840031E+01 -0.56185792120E+02 -0.22331104597E+02  0.60711447659E+02  0.47000000000E+01 0. -1.
          5    1    4    4  502    0 -0.93352134102E+01  0.31374589838E+02 -0.19394360550E+03  0.19674278440E+03  0.47000000000E+01 0. -1.
         -5    1    4    4    0  502  0.54704280483E+02 -0.28468642939E+02 -0.44195448131E+02  0.76015456122E+02  0.47000000000E+01 0. -1.
<mgrwt>
<rscale>  0 0.28070068E+03</rscale>
<asrwt>0</asrwt>
<pdfrwt beam="1">  1       21 0.78254897E-02 0.28070068E+03</pdfrwt>
<pdfrwt beam="2">  1       21 0.59578379E-01 0.28070068E+03</pdfrwt>
<totfact> 0.32116845E+05</totfact>
</mgrwt>
</event>
<event>
 8    1  0.9974463E-006  0.2671108E+03  0.7546771E-02  0.1102945E+00
         21   -1    0    0  504  503  0.00000000000E+00  0.00000000000E+00  0.59141301707E+02  0.59141301707E+02  0.00000000000E+00 0.  1.
         21   -1    0    0  503  504 -0.00000000000E+00 -0.00000000000E+00 -0.30160039233E+03  0.30160039233E+03  0.00000000000E+00 0.  1.
         25    2    1    2    0    0  0.46906616479E+02 -0.68902722350E+00 -0.11643146190E+03  0.17714887807E+03  0.12499893701E+03 0.  0.
         25    2    1    2    0    0 -0.46906616479E+02  0.68902722350E+00 -0.12602762872E+03  0.18359281596E+03  0.12499061343E+03 0.  0.
          5    1    3    3  501    0  0.84004617294E+02  0.57096824056E+01 -0.43378603399E+02  0.94832322722E+02  0.47000000000E+01 0.  1.
         -5    1    3    3    0  501 -0.37098000815E+02 -0.63987096291E+01 -0.73052858499E+02  0.82316555348E+02  0.47000000000E+01 0.  1.
          5    1    4    4  502    0  0.10965698701E+02 -0.42775411181E+02 -0.80913432709E+01  0.45139142499E+02  0.47000000000E+01 0.  1.
         -5    1    4    4    0  502 -0.57872315180E+02  0.43464438404E+02 -0.11793628545E+03  0.13845367346E+03  0.47000000000E+01 0.  1.
<mgrwt>
<rscale>  0 0.26711076E+03</rscale>
<asrwt>0</asrwt>
<pdfrwt beam="1">  1       21 0.90986618E-02 0.26711076E+03</pdfrwt>
<pdfrwt beam="2">  1       21 0.46400060E-01 0.26711076E+03</pdfrwt>
<totfact> 0.41961195E+05</totfact>
</mgrwt>
</event>
<event>
 8    1  0.9974463E-006  0.3444692E+03  0.7546771E-02  0.1064908E+00
         21   -1    0    0  504  503  0.00000000000E+00  0.00000000000E+00  0.44820279942E+03  0.44820279942E+03  0.00000000000E+00 0. -1.
         21   -1    0    0  503  504 -0.00000000000E+00 -0.00000000000E+00 -0.66186021164E+02  0.66186021164E+02  0.00000000000E+00 0. -1.
         25    2    1    2    0    0 -0.86336758364E+02 -0.76897460026E+02  0.22973713566E+03  0.28595441973E+03  0.12499409368E+03 0.  0.
         25    2    1    2    0    0  0.86336758364E+02  0.76897460026E+02  0.15227964259E+03  0.22843440085E+03  0.12500372292E+03 0.  0.
          5    1    3    3  501    0 -0.14474684262E+02 -0.25736517557E+01 -0.14199417761E+02  0.20972687777E+02  0.47000000000E+01 0.  1.
         -5    1    3    3    0  501 -0.71862074101E+02 -0.74323808271E+02  0.24393655343E+03  0.26498173195E+03  0.47000000000E+01 0.  1.
          5    1    4    4  502    0  0.73666774168E+02 -0.12828399479E+01  0.12379214310E+03  0.14413543627E+03  0.47000000000E+01 0.  1.
         -5    1    4    4    0  502  0.12669984196E+02  0.78180299974E+02  0.28487499491E+02  0.84298964589E+02  0.47000000000E+01 0.  1.
<mgrwt>
<rscale>  0 0.34446921E+03</rscale>
<asrwt>0</asrwt>
<pdfrwt beam="1">  1       21 0.68954275E-01 0.34446921E+03</pdfrwt>
<pdfrwt beam="2">  1       21 0.10182465E-01 0.34446921E+03</pdfrwt>
<totfact> 0.14408286E+05</totfact>
</mgrwt>
</event>
<event>
 8    1  0.9974463E-006  0.2835172E+03  0.7546771E-02  0.1093783E+00
         21   -1    0    0  504  503  0.00000000000E+00  0.00000000000E+00  0.43309160939E+02  0.43309160939E+02  0.00000000000E+00 0. -1.
         21   -1    0    0  503  504 -0.00000000000E+00 -0.00000000000E+00 -0.46400127677E+03  0.46400127677E+03  0.00000000000E+00 0. -1.
         25    2    1    2    0    0  0.61222685338E+02  0.25707571740E+02 -0.22400157884E+03  0.26498398369E+03  0.12502282930E+03 0.  0.
         25    2    1    2    0    0 -0.61222685338E+02 -0.25707571740E+02 -0.19669053699E+03  0.24232645402E+03  0.12500338607E+03 0.  0.
          5    1    3    3  501    0  0.10870281966E+02  0.70539525854E+02 -0.13961594127E+03  0.15687156784E+03  0.47000000000E+01 0.  1.
         -5    1    3    3    0  501  0.50352403372E+02 -0.44831954114E+02 -0.84385637566E+02  0.10811241586E+03  0.47000000000E+01 0.  1.
          5    1    4    4  502    0  0.48821119509E+01  0.38816881419E+02 -0.10472394101E+03  0.11189181883E+03  0.47000000000E+01 0. -1.
         -5    1    4    4    0  502 -0.66104797289E+02 -0.64524453159E+02 -0.91966595988E+02  0.13043463519E+03  0.47000000000E+01 0. -1.
<mgrwt>
<rscale>  0 0.28351724E+03</rscale>
<asrwt>0</asrwt>
<pdfrwt beam="1">  1       21 0.66629476E-02 0.28351724E+03</pdfrwt>
<pdfrwt beam="2">  1       21 0.71384814E-01 0.28351724E+03</pdfrwt>
<totfact> 0.28553385E+05</totfact>
</mgrwt>
</event>
<event>
 8    1  0.9974463E-006  0.3845138E+03  0.7546771E-02  0.1049278E+00
         21   -1    0    0  504  503  0.00000000000E+00  0.00000000000E+00  0.12189301576E+02  0.12189301576E+02  0.00000000000E+00 0.  1.
         21   -1    0    0  503  504 -0.00000000000E+00 -0.00000000000E+00 -0.30323900859E+04  0.30323900859E+04  0.00000000000E+00 0.  1.
         25    2    1    2    0    0  0.97642003327E+02  0.84287477796E+02 -0.96716567625E+03  0.98370336223E+03  0.12499807929E+03 0.  0.
         25    2    1    2    0    0 -0.97642003327E+02 -0.84287477796E+02 -0.20530351081E+04  0.20608760253E+04  0.12497398413E+03 0.  0.
          5    1    3    3  501    0  0.10805061111E+03  0.10810256620E+03 -0.80374121114E+03  0.81815837333E+03  0.47000000000E+01 0. -1.
         -5    1    3    3    0  501 -0.10408607785E+02 -0.23815088401E+02 -0.16342446512E+03  0.16554498890E+03  0.47000000000E+01 0. -1.
          5    1    4    4  502    0 -0.94398705952E-01 -0.49277361021E+02 -0.24971277165E+03  0.25457184751E+03  0.47000000000E+01 0.  1.
         -5    1    4    4    0  502 -0.97547604621E+02 -0.35010116775E+02 -0.18033223364E+04  0.18063041778E+04  0.47000000000E+01 0.  1.
<mgrwt>
<rscale>  0 0.38451381E+03</rscale>
<asrwt>0</asrwt>
<pdfrwt beam="1">  1       21 0.18752790E-02 0.38451381E+03</pdfrwt>
<pdfrwt beam="2">  1       21 0.46652109E+00 0.38451381E+03</pdfrwt>
<totfact> 0.36565537E+03</totfact>
</mgrwt>
</event>
<event>
 8    1  0.9974463E-006  0.3489359E+03  0.7546771E-02  0.1063053E+00
         21   -1    0    0  504  503  0.00000000000E+00  0.00000000000E+00  0.92260444662E+02  0.92260444662E+02  0.00000000000E+00 0.  1.
         21   -1    0    0  503  504 -0.00000000000E+00 -0.00000000000E+00 -0.32992537924E+03  0.32992537924E+03  0.00000000000E+00 0.  1.
         25    2    1    2    0    0  0.54692624060E+02  0.12602982338E+02  0.11837275036E+02  0.13753137291E+03  0.12499855665E+03 0.  0.
         25    2    1    2    0    0 -0.54692624060E+02 -0.12602982338E+02 -0.24950220962E+03  0.28465445099E+03  0.12500674212E+03 0.  0.
          5    1    3    3  501    0  0.91475089356E+02 -0.65434279480E+01  0.22318669115E+02  0.94502494217E+02  0.47000000000E+01 0.  1.
         -5    1    3    3    0  501 -0.36782465296E+02  0.19146410286E+02 -0.10481394079E+02  0.43028878697E+02  0.47000000000E+01 0.  1.
          5    1    4    4  502    0 -0.34178497932E+01 -0.75085037136E+01 -0.22868588496E+03  0.22888290304E+03  0.47000000000E+01 0.  1.
         -5    1    4    4    0  502 -0.51274774267E+02 -0.50944786244E+01 -0.20816324659E+02  0.55771547951E+02  0.47000000000E+01 0.  1.
<mgrwt>
<rscale>  0 0.34893588E+03</rscale>
<asrwt>0</asrwt>
<pdfrwt beam="1">  1       21 0.14193914E-01 0.34893588E+03</pdfrwt>
<pdfrwt beam="2">  1       21 0.50757751E-01 0.34893588E+03</pdfrwt>
<totfact> 0.15341200E+05</totfact>
</mgrwt>
</event>
<event>
 8    1  0.9974463E-006  0.2812835E+03  0.7546771E-02  0.1094990E+00
         21   -1    0    0  504  503  0.00000000000E+00  0.00000000000E+00  0.42701755366E+03  0.42701755366E+03  0.00000000000E+00 0. -1.
         21   -1    0    0  503  504 -0.00000000000E+00 -0.00000000000E+00 -0.46321518404E+02  0.46321518404E+02  0.00000000000E+00 0. -1.
         25    2    1    2    0    0  0.80835531410E+00  0.59187790285E+02  0.14734464572E+03  0.20208092187E+03  0.12498962519E+03 0.  0.
         25    2    1    2    0    0 -0.80835531410E+00 -0.59187790285E+02  0.23335138954E+03  0.27125815019E+03  0.12499706033E+03 0.  0.
          5    1    3    3  501    0  0.92101164410E+01  0.85789013185E+02  0.15057511010E+03  0.17360741577E+03  0.47000000000E+01 0. -1.
         -5    1    3    3    0  501 -0.84017611269E+01 -0.26601222900E+02 -0.32304643767E+01  0.28473506105E+02  0.47000000000E+01 0. -1.
          5    1    4    4  502    0  0.18352295419E+01 -0.31508402956E+02 -0.40696108685E+01  0.32168295835E+02  0.47000000000E+01 0. -1.
         -5    1    4    4    0  502 -0.26435848560E+01 -0.27679387329E+02  0.23742100041E+03  0.23908985436E+03  0.47000000000E+01 0. -1.
<mgrwt>
<rscale>  0 0.28128350E+03</rscale>
<asrwt>0</asrwt>
<pdfrwt beam="1">  1       21 0.65695006E-01 0.28128350E+03</pdfrwt>
<pdfrwt beam="2">  1       21 0.71263877E-02 0.28128350E+03</pdfrwt>
<totfact> 0.30553756E+05</totfact>
</mgrwt>
</event>
<event>
 8    1  0.9974463E-006  0.2656580E+03  0.7546771E-02  0.1103791E+00
         21   -1    0    0  504  503  0.00000000000E+00  0.00000000000E+00  0.16417258009E+03  0.16417258009E+03  0.00000000000E+00 0. -1.
         21   -1    0    0  503  504 -0.00000000000E+00 -0.00000000000E+00 -0.10746946529E+03  0.10746946529E+03  0.00000000000E+00 0. -1.
         25    2    1    2    0    0 -0.16280034024E+02 -0.40580753604E+02  0.38846894111E+02  0.13800555516E+03  0.12499846000E+03 0.  0.
         25    2    1    2    0    0  0.16280034024E+02  0.40580753604E+02  0.17856220694E+02  0.13363649022E+03  0.12501211873E+03 0.  0.
          5    1    3    3  501    0  0.49938380718E+02 -0.18179375518E+02 -0.76791427913E+01  0.53901677125E+02  0.47000000000E+01 0. -1.
         -5    1    3    3    0  501 -0.66218414741E+02 -0.22401378086E+02  0.46526036902E+02  0.84103878037E+02  0.47000000000E+01 0. -1.
          5    1    4    4  502    0 -0.24703412569E+02  0.74262879350E+02  0.35171201542E+01  0.78483717905E+02  0.47000000000E+01 0.  1.
         -5    1    4    4    0  502  0.40983446593E+02 -0.33682125746E+02  0.14339100540E+02  0.55152772312E+02  0.47000000000E+01 0.  1.
<mgrwt>
<rscale>  0 0.26565797E+03</rscale>
<asrwt>0</asrwt>
<pdfrwt beam="1">  1       21 0.25257320E-01 0.26565797E+03</pdfrwt>
<pdfrwt beam="2">  1       21 0.16533764E-01 0.26565797E+03</pdfrwt>
<totfact> 0.48078913E+05</totfact>
</mgrwt>
</event>
<event>
 8    1  0.9974463E-006  0.3392551E+03  0.7546771E-02  0.1067114E+00
         21   -1    0    0  504  503  0.00000000000E+00  0.00000000000E+00  0.14415567912E+03  0.14415567912E+03  0.00000000000E+00 0.  1.
         21   -1    0    0  503  504 -0.00000000000E+00 -0.00000000000E+00 -0.19960021286E+03  0.19960021286E+03  0.00000000000E+00 0.  1.
         25    2    1    2    0    0 -0.76702085418E+02  0.58623083197E+02  0.34973481941E+02  0.16176607276E+03  0.12500096826E+03 0.  0.
         25    2    1    2    0    0  0.76702085418E+02 -0.58623083197E+02 -0.90418015678E+02  0.18198981923E+03  0.12500000381E+03 0.  0.
          5    1    3    3  501    0 -0.14979447100E+02  0.79981378363E+02  0.48577329875E+02  0.94885466210E+02  0.47000000000E+01 0. -1.
         -5    1    3    3    0  501 -0.61722638318E+02 -0.21358295165E+02 -0.13603847934E+02  0.66880606546E+02  0.47000000000E+01 0. -1.
          5    1    4    4  502    0  0.97725385017E+02 -0.80162763102E+02 -0.64440843786E+02  0.14195433002E+03  0.47000000000E+01 0.  1.
         -5    1    4    4    0  502 -0.21023299598E+02  0.21539679905E+02 -0.25977171892E+02  0.40035489206E+02  0.47000000000E+01 0.  1.
<mgrwt>
<rscale>  0 0.33925509E+03</rscale>
<asrwt>0</asrwt>
<pdfrwt beam="1">  1       21 0.22177797E-01 0.33925509E+03</pdfrwt>
<pdfrwt beam="2">  1       21 0.30707725E-01 0.33925509E+03</pdfrwt>
<totfact> 0.18639702E+05</totfact>
</mgrwt>
</event>
<event>
 8    1  0.9974463E-006  0.4510356E+03  0.7546771E-02  0.1027414E+00
         21   -1    0    0  504  503  0.00000000000E+00  0.00000000000E+00  0.32556680058E+03  0.32556680058E+03  0.00000000000E+00 0. -1.
         21   -1    0    0  503  504 -0.00000000000E+00 -0.00000000000E+00 -0.15621455552E+03  0.15621455552E+03  0.00000000000E+00 0. -1.
         25    2    1    2    0    0  0.10606484499E+03 -0.72244288304E+02 -0.61635781140E+02  0.18946516702E+03  0.12501636477E+03 0.  0.
         25    2    1    2    0    0 -0.10606484499E+03  0.72244288304E+02  0.23098802620E+03  0.29231618909E+03  0.12499719044E+03 0.  0.
          5    1    3    3  501    0 -0.55051900846E+01 -0.25410953787E+02  0.28233142428E+02  0.38668126688E+02  0.47000000000E+01 0.  1.
         -5    1    3    3    0  501  0.11157003508E+03 -0.46833334517E+02 -0.89868923568E+02  0.15079704033E+03  0.47000000000E+01 0.  1.
          5    1    4    4  502    0 -0.46855919108E+02 -0.15861632245E+02  0.15495272799E+02  0.52050571679E+02  0.47000000000E+01 0. -1.
         -5    1    4    4    0  502 -0.59208925884E+02  0.88105920548E+02  0.21549275340E+03  0.24026561741E+03  0.47000000000E+01 0. -1.
<mgrwt>
<rscale>  0 0.45103558E+03</rscale>
<asrwt>0</asrwt>
<pdfrwt beam="1">  1       21 0.50087200E-01 0.45103558E+03</pdfrwt>
<pdfrwt beam="2">  1       21 0.24033009E-01 0.45103558E+03</pdfrwt>
<totfact> 0.57221128E+04</totfact>
</mgrwt>
</event>
<event>
 8    1  0.9974463E-006  0.3433927E+03  0.7546771E-02  0.1065360E+00
         21   -1    0    0  504  503  0.00000000000E+00  0.00000000000E+00  0.57074469974E+03  0.57074469974E+03  0.00000000000E+00 0.  1.
         21   -1    0    0  503  504 -0.00000000000E+00 -0.00000000000E+00 -0.51651187048E+02  0.51651187048E+02  0.00000000000E+00 0.  1.
         25    2    1    2    0    0 -0.66330515980E+02 -0.91023361623E+02  0.32153995177E+03  0.36289639542E+03  0.12498345296E+03 0.  0.
         25    2    1    2    0    0  0.66330515980E+02  0.91023361623E+02  0.19755356093E+03  0.25949949137E+03  0.12501034708E+03 0.  0.
          5    1    3    3  501    0 -0.56389181318E+02 -0.78037273656E+02  0.33007310331E+03  0.34386029049E+03  0.47000000000E+01 0.  1.
         -5    1    3    3    0  501 -0.99413346627E+01 -0.12986087966E+02 -0.85331515410E+01  0.19036104926E+02  0.47000000000E+01 0.  1.
          5    1    4    4  502    0  0.34543361632E+02 -0.27439310002E+02  0.39651341058E+02  0.59501919414E+02  0.47000000000E+01 0. -1.
         -5    1    4    4    0  502  0.31787154348E+02  0.11846267163E+03  0.15790221987E+03  0.19999757196E+03  0.47000000000E+01 0. -1.
<mgrwt>
<rscale>  0 0.34339273E+03</rscale>
<asrwt>0</asrwt>
<pdfrwt beam="1">  1       21 0.87806873E-01 0.34339273E+03</pdfrwt>
<pdfrwt beam="2">  1       21 0.79463369E-02 0.34339273E+03</pdfrwt>
<totfact> 0.12891972E+05</totfact>
</mgrwt>
</event>
<event>
 8    1  0.9974463E-006  0.3692158E+03  0.7546771E-02  0.1054993E+00
         21   -1    0    0  504  503  0.00000000000E+00  0.00000000000E+00  0.87771030714E+02  0.87771030714E+02  0.00000000000E+00 0. -1.
         21   -1    0    0  503  504 -0.00000000000E+00 -0.00000000000E+00 -0.38828379720E+03  0.38828379720E+03  0.00000000000E+00 0. -1.
         25    2    1    2    0    0  0.48339952326E+02  0.10335965411E+03 -0.24530139527E+03  0.29802787702E+03  0.12501148695E+03 0.  0.
         25    2    1    2    0    0 -0.48339952326E+02 -0.10335965411E+03 -0.55211371214E+02  0.17802695090E+03  0.12500132258E+03 0.  0.
          5    1    3    3  501    0  0.64514829955E+02  0.95006655047E+02 -0.25286586624E+03  0.27776188381E+03  0.47000000000E+01 0. -1.
         -5    1    3    3    0  501 -0.16174877629E+02  0.83529990581E+01  0.75644709720E+01  0.20265993207E+02  0.47000000000E+01 0. -1.
          5    1    4    4  502    0 -0.67182332349E+02 -0.34134758475E+02  0.15617515790E+02  0.77101519541E+02  0.47000000000E+01 0. -1.
         -5    1    4    4    0  502  0.18842380023E+02 -0.69224895630E+02 -0.70828887004E+02  0.10092543135E+03  0.47000000000E+01 0. -1.
<mgrwt>
<rscale>  0 0.36921576E+03</rscale>
<asrwt>0</asrwt>
<pdfrwt beam="1">  1       21 0.13503235E-01 0.36921576E+03</pdfrwt>
<pdfrwt beam="2">  1       21 0.59735969E-01 0.36921576E+03</pdfrwt>
<totfact> 0.11795305E+05</totfact>
</mgrwt>
</event>
<event>
 8    1  0.9974463E-006  0.4103432E+03  0.7546771E-02  0.1040256E+00
         21   -1    0    0  504  503  0.00000000000E+00  0.00000000000E+00  0.39029568616E+03  0.39029568616E+03  0.00000000000E+00 0.  1.
         21   -1    0    0  503  504 -0.00000000000E+00 -0.00000000000E+00 -0.10785510180E+03  0.10785510180E+03  0.00000000000E+00 0.  1.
         25    2    1    2    0    0  0.58289176375E+02 -0.15140451375E+03  0.15607181679E+03  0.25749641785E+03  0.12500015337E+03 0.  0.
         25    2    1    2    0    0 -0.58289176375E+02  0.15140451375E+03  0.12636876757E+03  0.24065437011E+03  0.12499802225E+03 0.  0.
          5    1    3    3  501    0  0.57828258365E+02 -0.91405467062E+02  0.21917609986E+02  0.11046057442E+03  0.47000000000E+01 0.  1.
         -5    1    3    3    0  501  0.46091800973E+00 -0.59999046688E+02  0.13415420680E+03  0.14703584342E+03  0.47000000000E+01 0.  1.
          5    1    4    4  502    0 -0.83135728265E+02  0.47564543022E+02  0.76728649895E+02  0.12281413103E+03  0.47000000000E+01 0. -1.
         -5    1    4    4    0  502  0.24846551889E+02  0.10383997073E+03  0.49640117680E+02  0.11784023907E+03  0.47000000000E+01 0. -1.
<mgrwt>
<rscale>  0 0.41034318E+03</rscale>
<asrwt>0</asrwt>
<pdfrwt beam="1">  1       21 0.60045490E-01 0.41034318E+03</pdfrwt>
<pdfrwt beam="2">  1       21 0.16593093E-01 0.41034318E+03</pdfrwt>
<totfact> 0.78961768E+04</totfact>
</mgrwt>
</event>
<event>
 8    1  0.9974463E-006  0.4040749E+03  0.7546771E-02  0.1042378E+00
         21   -1    0    0  504  503  0.00000000000E+00  0.00000000000E+00  0.23724793307E+03  0.23724793307E+03  0.00000000000E+00 0.  1.
         21   -1    0    0  503  504 -0.00000000000E+00 -0.00000000000E+00 -0.17205262338E+03  0.17205262338E+03  0.00000000000E+00 0.  1.
         25    2    1    2    0    0 -0.85793070909E+02 -0.25307554555E+02 -0.10019011316E+03  0.18351656394E+03  0.12505737536E+03 0.  0.
         25    2    1    2    0    0  0.85793070909E+02  0.25307554555E+02  0.16538542285E+03  0.22578399252E+03  0.12500059941E+03 0.  0.
          5    1    3    3  501    0 -0.79513266243E+02 -0.51590143480E+02 -0.17635253817E+02  0.96524580238E+02  0.47000000000E+01 0. -1.
         -5    1    3    3    0  501 -0.62798046659E+01  0.26282588926E+02 -0.82554859342E+02  0.86991983701E+02  0.47000000000E+01 0. -1.
          5    1    4    4  502    0  0.30843692999E+01 -0.23385577146E+02 -0.98023633279E+01  0.25972579373E+02  0.47000000000E+01 0.  1.
         -5    1    4    4    0  502  0.82708701609E+02  0.48693131701E+02  0.17518778618E+03  0.19981141314E+03  0.47000000000E+01 0.  1.
<mgrwt>
<rscale>  0 0.40407489E+03</rscale>
<asrwt>0</asrwt>
<pdfrwt beam="1">  1       21 0.36499682E-01 0.40407489E+03</pdfrwt>
<pdfrwt beam="2">  1       21 0.26469634E-01 0.40407489E+03</pdfrwt>
<totfact> 0.92423033E+04</totfact>
</mgrwt>
</event>
<event>
 8    1  0.9974463E-006  0.3753642E+03  0.7546771E-02  0.1052661E+00
         21   -1    0    0  504  503  0.00000000000E+00  0.00000000000E+00  0.28409638195E+02  0.28409638195E+02  0.00000000000E+00 0. -1.
         21   -1    0    0  503  504 -0.00000000000E+00 -0.00000000000E+00 -0.12398809716E+04  0.12398809716E+04  0.00000000000E+00 0. -1.
         25    2    1    2    0    0 -0.46481731086E+02  0.11907535809E+03 -0.41281289279E+03  0.44986492865E+03  0.12499790935E+03 0.  0.
         25    2    1    2    0    0  0.46481731086E+02 -0.11907535809E+03 -0.79865844065E+03  0.81842568119E+03  0.12500319425E+03 0.  0.
          5    1    3    3  501    0  0.14668322211E+02  0.96036858214E+02 -0.33132487986E+03  0.34530639123E+03  0.47000000000E+01 0.  1.
         -5    1    3    3    0  501 -0.61150053297E+02  0.23038499876E+02 -0.81488012933E+02  0.10455853742E+03  0.47000000000E+01 0.  1.
          5    1    4    4  502    0  0.58597158826E+02 -0.58249690398E+02 -0.67451081442E+03  0.67956867366E+03  0.47000000000E+01 0.  1.
         -5    1    4    4    0  502 -0.12115427740E+02 -0.60825667692E+02 -0.12414762623E+03  0.13885700753E+03  0.47000000000E+01 0.  1.
<mgrwt>
<rscale>  0 0.37536420E+03</rscale>
<asrwt>0</asrwt>
<pdfrwt beam="1">  1       21 0.43707129E-02 0.37536420E+03</pdfrwt>
<pdfrwt beam="2">  1       21 0.19075095E+00 0.37536420E+03</pdfrwt>
<totfact> 0.47820137E+04</totfact>
</mgrwt>
</event>
<event>
 8    1  0.9974463E-006  0.2661728E+03  0.7546771E-02  0.1103490E+00
         21   -1    0    0  504  503  0.00000000000E+00  0.00000000000E+00  0.43489141562E+02  0.43489141562E+02  0.00000000000E+00 0. -1.
         21   -1    0    0  503  504 -0.00000000000E+00 -0.00000000000E+00 -0.40727379097E+03  0.40727379097E+03  0.00000000000E+00 0. -1.
         25    2    1    2    0    0 -0.11051360361E+02 -0.22731706327E+02 -0.11745317401E+03  0.17337567049E+03  0.12500004797E+03 0.  0.
         25    2    1    2    0    0  0.11051360361E+02  0.22731706327E+02 -0.24633147540E+03  0.27738726204E+03  0.12500253731E+03 0.  0.
          5    1    3    3  501    0  0.23056405138E+02 -0.17337367362E+02  0.17451980074E+02  0.34041793922E+02  0.47000000000E+01 0. -1.
         -5    1    3    3    0  501 -0.34107765499E+02 -0.53943389655E+01 -0.13490515408E+03  0.13933387656E+03  0.47000000000E+01 0. -1.
          5    1    4    4  502    0 -0.87020206095E+01  0.23214332384E+02 -0.25431515540E+03  0.25556392284E+03  0.47000000000E+01 0. -1.
         -5    1    4    4    0  502  0.19753380970E+02 -0.48262605637E+00  0.79836800021E+01  0.21823339205E+02  0.47000000000E+01 0. -1.
<mgrwt>
<rscale>  0 0.26617278E+03</rscale>
<asrwt>0</asrwt>
<pdfrwt beam="1">  1       21 0.66906370E-02 0.26617278E+03</pdfrwt>
<pdfrwt beam="2">  1       21 0.62657507E-01 0.26617278E+03</pdfrwt>
<totfact> 0.37943688E+05</totfact>
</mgrwt>
</event>
<event>
 8    1  0.9974463E-006  0.2641258E+03  0.7546771E-02  0.1104689E+00
         21   -1    0    0  504  503  0.00000000000E+00  0.00000000000E+00  0.26183817745E+02  0.26183817745E+02  0.00000000000E+00 0.  1.
         21   -1    0    0  503  504 -0.00000000000E+00 -0.00000000000E+00 -0.66608357693E+03  0.66608357693E+03  0.00000000000E+00 0.  1.
         25    2    1    2    0    0  0.38665772183E+02 -0.49461250027E+01 -0.36513722447E+03  0.38790482848E+03  0.12500182868E+03 0.  0.
         25    2    1    2    0    0 -0.38665772183E+02  0.49461250027E+01 -0.27476253471E+03  0.30436256619E+03  0.12499046014E+03 0.  0.
          5    1    3    3  501    0 -0.13933496532E+02 -0.55300723800E+02 -0.18129351380E+03  0.19010981175E+03  0.47000000000E+01 0.  1.
         -5    1    3    3    0  501  0.52599268715E+02  0.50354598798E+02 -0.18384371067E+03  0.19779501673E+03  0.47000000000E+01 0.  1.
          5    1    4    4  502    0 -0.17284995589E+02  0.31663092870E+02 -0.10515987541E+02  0.37868172871E+02  0.47000000000E+01 0. -1.
         -5    1    4    4    0  502 -0.21380776594E+02 -0.26716967868E+02 -0.26424654717E+03  0.26649439332E+03  0.47000000000E+01 0. -1.
<mgrwt>
<rscale>  0 0.26412581E+03</rscale>
<asrwt>0</asrwt>
<pdfrwt beam="1">  1       21 0.40282805E-02 0.26412581E+03</pdfrwt>
<pdfrwt beam="2">  1       21 0.10247438E+00 0.26412581E+03</pdfrwt>
<totfact> 0.29388786E+05</totfact>
</mgrwt>
</event>
<event>
 8    1  0.9974463E-006  0.3346597E+03  0.7546771E-02  0.1069094E+00
         21   -1    0    0  504  503  0.00000000000E+00  0.00000000000E+00  0.10932266771E+03  0.10932266771E+03  0.00000000000E+00 0. -1.
         21   -1    0    0  503  504 -0.00000000000E+00 -0.00000000000E+00 -0.25611589320E+03  0.25611589320E+03  0.00000000000E+00 0. -1.
         25    2    1    2    0    0  0.66617400839E+02  0.87493745406E+02 -0.55286508844E+02  0.17542571735E+03  0.12499820265E+03 0.  0.
         25    2    1    2    0    0 -0.66617400839E+02 -0.87493745406E+02 -0.91506716641E+02  0.19001284356E+03  0.12505346036E+03 0.  0.
          5    1    3    3  501    0  0.64419910765E+02 -0.14625951218E+01 -0.57210935009E+02  0.86297422743E+02  0.47000000000E+01 0.  1.
         -5    1    3    3    0  501  0.21974900743E+01  0.88956340528E+02  0.19244261653E+01  0.89128294603E+02  0.47000000000E+01 0.  1.
          5    1    4    4  502    0 -0.13987347094E+02 -0.94449969392E+02 -0.14988591377E+02  0.96763580279E+02  0.47000000000E+01 0. -1.
         -5    1    4    4    0  502 -0.52630053745E+02  0.69562239860E+01 -0.76518125264E+02  0.93249263285E+02  0.47000000000E+01 0. -1.
<mgrwt>
<rscale>  0 0.33465966E+03</rscale>
<asrwt>0</asrwt>
<pdfrwt beam="1">  1       21 0.16818872E-01 0.33465966E+03</pdfrwt>
<pdfrwt beam="2">  1       21 0.39402444E-01 0.33465966E+03</pdfrwt>
<totfact> 0.19042158E+05</totfact>
</mgrwt>
</event>
<event>
 8    1  0.9974463E-006  0.3917460E+03  0.7546771E-02  0.1046676E+00
         21   -1    0    0  504  503  0.00000000000E+00  0.00000000000E+00  0.38440468078E+03  0.38440468078E+03  0.00000000000E+00 0.  1.
         21   -1    0    0  503  504 -0.00000000000E+00 -0.00000000000E+00 -0.99806862736E+02  0.99806862736E+02  0.00000000000E+00 0.  1.
         25    2    1    2    0    0 -0.84176419465E+02  0.13400434873E+02  0.29606336915E+03  0.33248208985E+03  0.12500232108E+03 0.  0.
         25    2    1    2    0    0  0.84176419465E+02 -0.13400434873E+02 -0.11465551100E+02  0.15172945366E+03  0.12500050799E+03 0.  0.
          5    1    3    3  501    0 -0.31172504687E+02 -0.48531382109E+01  0.79880466348E+00  0.31906207669E+02  0.47000000000E+01 0.  1.
         -5    1    3    3    0  501 -0.53003914778E+02  0.18253573084E+02  0.29526456448E+03  0.30057588219E+03  0.47000000000E+01 0.  1.
          5    1    4    4  502    0  0.37396773676E+02 -0.29392391726E+02  0.52337134200E+02  0.70878043067E+02  0.47000000000E+01 0. -1.
         -5    1    4    4    0  502  0.46779645789E+02  0.15991956853E+02 -0.63802685300E+02  0.80851410597E+02  0.47000000000E+01 0. -1.
<mgrwt>
<rscale>  0 0.39174596E+03</rscale>
<asrwt>0</asrwt>
<pdfrwt beam="1">  1       21 0.59139181E-01 0.39174596E+03</pdfrwt>
<pdfrwt beam="2">  1       21 0.15354902E-01 0.39174596E+03</pdfrwt>
<totfact> 0.94677503E+04</totfact>
</mgrwt>
</event>
<event>
 8    1  0.9974463E-006  0.2890605E+03  0.7546771E-02  0.1090841E+00
         21   -1    0    0  504  503  0.00000000000E+00  0.00000000000E+00  0.16593985419E+03  0.16593985419E+03  0.00000000000E+00 0.  1.
         21   -1    0    0  503  504 -0.00000000000E+00 -0.00000000000E+00 -0.12588295775E+03  0.12588295775E+03  0.00000000000E+00 0.  1.
         25    2    1    2    0    0 -0.67478799112E+02 -0.17092861045E+02  0.40563550848E+02  0.14873804832E+03  0.12502820135E+03 0.  0.
         25    2    1    2    0    0  0.67478799112E+02  0.17092861045E+02 -0.50665440232E+00  0.14308476362E+03  0.12500975423E+03 0.  0.
          5    1    3    3  501    0  0.22526322196E+01 -0.60311419482E+02  0.22652548481E+02  0.64635668362E+02  0.47000000000E+01 0.  1.
         -5    1    3    3    0  501 -0.69731431331E+02  0.43218558437E+02  0.17911002367E+02  0.84102379959E+02  0.47000000000E+01 0.  1.
          5    1    4    4  502    0  0.48597807365E+02  0.57002969570E+02  0.38168428007E+02  0.84202163375E+02  0.47000000000E+01 0. -1.
         -5    1    4    4    0  502  0.18880991746E+02 -0.39910108525E+02 -0.38675082409E+02  0.58882600241E+02  0.47000000000E+01 0. -1.
<mgrwt>
<rscale>  0 0.28906054E+03</rscale>
<asrwt>0</asrwt>
<pdfrwt beam="1">  1       21 0.25529208E-01 0.28906054E+03</pdfrwt>
<pdfrwt beam="2">  1       21 0.19366609E-01 0.28906054E+03</pdfrwt>
<totfact> 0.34925400E+05</totfact>
</mgrwt>
</event>
<event>
 8    1  0.9974463E-006  0.2543985E+03  0.7546771E-02  0.1110556E+00
         21   -1    0    0  504  503  0.00000000000E+00  0.00000000000E+00  0.23137896757E+03  0.23137896757E+03  0.00000000000E+00 0. -1.
         21   -1    0    0  503  504 -0.00000000000E+00 -0.00000000000E+00 -0.69927078967E+02  0.69927078967E+02  0.00000000000E+00 0. -1.
         25    2    1    2    0    0  0.42747227957E+01 -0.21479537866E+02  0.70611145390E+02  0.14523090802E+03  0.12500575582E+03 0.  0.
         25    2    1    2    0    0 -0.42747227957E+01  0.21479537866E+02  0.90840743214E+02  0.15607513852E+03  0.12501105725E+03 0.  0.
          5    1    3    3  501    0  0.56199517085E+02 -0.16252937768E+02  0.17711872150E+01  0.58717721438E+02  0.47000000000E+01 0. -1.
         -5    1    3    3    0  501 -0.51924794290E+02 -0.52266000985E+01  0.68839958175E+02  0.86513186580E+02  0.47000000000E+01 0. -1.
          5    1    4    4  502    0  0.40591673959E+02 -0.15129768351E+02  0.87657616321E+02  0.97890457064E+02  0.47000000000E+01 0.  1.
         -5    1    4    4    0  502 -0.44866396755E+02  0.36609306217E+02  0.31831268934E+01  0.58184681457E+02  0.47000000000E+01 0.  1.
<mgrwt>
<rscale>  0 0.25439855E+03</rscale>
<asrwt>0</asrwt>
<pdfrwt beam="1">  1       21 0.35596764E-01 0.25439855E+03</pdfrwt>
<pdfrwt beam="2">  1       21 0.10758012E-01 0.25439855E+03</pdfrwt>
<totfact> 0.53619753E+05</totfact>
</mgrwt>
</event>
<event>
 8    1  0.9974463E-006  0.4821850E+03  0.7546771E-02  0.1018536E+00
         21   -1    0    0  504  503  0.00000000000E+00  0.00000000000E+00  0.18438206383E+04  0.18438206383E+04  0.00000000000E+00 0.  1.
         21   -1    0    0  503  504 -0.00000000000E+00 -0.00000000000E+00 -0.31524537227E+02  0.31524537227E+02  0.00000000000E+00 0.  1.
         25    2    1    2    0    0 -0.68896187847E+02  0.10585728873E+03  0.15397704066E+04  0.15499901442E+04  0.12499636639E+03 0.  0.
         25    2    1    2    0    0  0.68896187847E+02 -0.10585728873E+03  0.27252569446E+03  0.32535503138E+03  0.12503276380E+03 0.  0.
          5    1    3    3  501    0  0.12649070892E+02 -0.66753107579E+01  0.27591546606E+02  0.31431548041E+02  0.47000000000E+01 0.  1.
         -5    1    3    3    0  501 -0.81545258740E+02  0.11253259949E+03  0.15121788600E+04  0.15185585961E+04  0.47000000000E+01 0.  1.
          5    1    4    4  502    0 -0.11050658369E+00  0.22159099604E+02  0.85180969932E+02  0.88141508641E+02  0.47000000000E+01 0. -1.
         -5    1    4    4    0  502  0.69006694431E+02 -0.12801638834E+03  0.18734472453E+03  0.23721352274E+03  0.47000000000E+01 0. -1.
<mgrwt>
<rscale>  0 0.48218500E+03</rscale>
<asrwt>0</asrwt>
<pdfrwt beam="1">  1       21 0.28366463E+00 0.48218500E+03</pdfrwt>
<pdfrwt beam="2">  1       21 0.48499303E-02 0.48218500E+03</pdfrwt>
<totfact> 0.10030590E+04</totfact>
</mgrwt>
</event>
<event>
 8    1  0.9974463E-006  0.2955575E+03  0.7546771E-02  0.1087483E+00
         21   -1    0    0  504  503  0.00000000000E+00  0.00000000000E+00  0.48492764362E+03  0.48492764362E+03  0.00000000000E+00 0.  1.
         21   -1    0    0  503  504 -0.00000000000E+00 -0.00000000000E+00 -0.45034663193E+02  0.45034663193E+02  0.00000000000E+00 0.  1.
         25    2    1    2    0    0  0.39936928977E+02  0.59361160989E+02  0.16062884998E+03  0.21574378795E+03  0.12500019544E+03 0.  0.
         25    2    1    2    0    0 -0.39936928977E+02 -0.59361160989E+02  0.27926413045E+03  0.31421851887E+03  0.12500446919E+03 0.  0.
          5    1    3    3  501    0  0.62219658418E+02  0.84779957410E+02  0.14230479954E+03  0.17700755081E+03  0.47000000000E+01 0. -1.
         -5    1    3    3    0  501 -0.22282729441E+02 -0.25418796421E+02  0.18324050446E+02  0.38736237138E+02  0.47000000000E+01 0. -1.
          5    1    4    4  502    0  0.11365836377E+01 -0.87905465938E+02  0.13239174877E+03  0.15899159696E+03  0.47000000000E+01 0.  1.
         -5    1    4    4    0  502 -0.41073512614E+02  0.28544304949E+02  0.14687238168E+03  0.15522692191E+03  0.47000000000E+01 0.  1.
<mgrwt>
<rscale>  0 0.29555746E+03</rscale>
<asrwt>0</asrwt>
<pdfrwt beam="1">  1       21 0.74604249E-01 0.29555746E+03</pdfrwt>
<pdfrwt beam="2">  1       21 0.69284101E-02 0.29555746E+03</pdfrwt>
<totfact> 0.24097279E+05</totfact>
</mgrwt>
</event>
<event>
 8    1  0.9974463E-006  0.3208192E+03  0.7546771E-02  0.1075273E+00
         21   -1    0    0  504  503  0.00000000000E+00  0.00000000000E+00  0.11852647852E+03  0.11852647852E+03  0.00000000000E+00 0. -1.
         21   -1    0    0  503  504 -0.00000000000E+00 -0.00000000000E+00 -0.21709278322E+03  0.21709278322E+03  0.00000000000E+00 0. -1.
         25    2    1    2    0    0 -0.78396436200E+02 -0.39268999421E+02 -0.10072862685E+03  0.18291615057E+03  0.12499602532E+03 0.  0.
         25    2    1    2    0    0  0.78396436200E+02  0.39268999421E+02  0.21623221480E+01  0.15270311117E+03  0.12500203598E+03 0.  0.
          5    1    3    3  501    0  0.29100894993E+02  0.10093816350E+02 -0.37334295999E+02  0.48628046184E+02  0.47000000000E+01 0. -1.
         -5    1    3    3    0  501 -0.10749733119E+03 -0.49362815771E+02 -0.63394330856E+02  0.13428810438E+03  0.47000000000E+01 0. -1.
          5    1    4    4  502    0 -0.28206343742E+02  0.26230332116E+02  0.20126231728E+02  0.43712507979E+02  0.47000000000E+01 0. -1.
         -5    1    4    4    0  502  0.10660277994E+03  0.13038667305E+02 -0.17963909580E+02  0.10899060319E+03  0.47000000000E+01 0. -1.
<mgrwt>
<rscale>  0 0.32081922E+03</rscale>
<asrwt>0</asrwt>
<pdfrwt beam="1">  1       21 0.18234843E-01 0.32081922E+03</pdfrwt>
<pdfrwt beam="2">  1       21 0.33398890E-01 0.32081922E+03</pdfrwt>
<totfact> 0.22926572E+05</totfact>
</mgrwt>
</event>
<event>
 8    1  0.9974463E-006  0.3174863E+03  0.7546771E-02  0.1076812E+00
         21   -1    0    0  504  503  0.00000000000E+00  0.00000000000E+00  0.28315611662E+03  0.28315611662E+03  0.00000000000E+00 0.  1.
         21   -1    0    0  503  504 -0.00000000000E+00 -0.00000000000E+00 -0.88994667896E+02  0.88994667896E+02  0.00000000000E+00 0.  1.
         25    2    1    2    0    0  0.90402766495E+02  0.15076137467E+01  0.14102002400E+03  0.20901266798E+03  0.12499886047E+03 0.  0.
         25    2    1    2    0    0 -0.90402766495E+02 -0.15076137467E+01  0.53141424722E+02  0.16313811653E+03  0.12496039755E+03 0.  0.
          5    1    3    3  501    0  0.11994476608E+03  0.45922920597E+01  0.91208571711E+02  0.15082748294E+03  0.47000000000E+01 0.  1.
         -5    1    3    3    0  501 -0.29541999582E+02 -0.30846783130E+01  0.49811452288E+02  0.58185185044E+02  0.47000000000E+01 0.  1.
          5    1    4    4  502    0  0.18155782460E+02  0.15506273769E+02 -0.19624543413E+02  0.31261632509E+02  0.47000000000E+01 0. -1.
         -5    1    4    4    0  502 -0.10855854895E+03 -0.17013887516E+02  0.72765968135E+02  0.13187648402E+03  0.47000000000E+01 0. -1.
<mgrwt>
<rscale>  0 0.31748628E+03</rscale>
<asrwt>0</asrwt>
<pdfrwt beam="1">  1       21 0.43562479E-01 0.31748628E+03</pdfrwt>
<pdfrwt beam="2">  1       21 0.13691487E-01 0.31748628E+03</pdfrwt>
<totfact> 0.22720545E+05</totfact>
</mgrwt>
</event>
<event>
 8    1  0.9974463E-006  0.4932316E+03  0.7546771E-02  0.1015561E+00
         21   -1    0    0  504  503  0.00000000000E+00  0.00000000000E+00  0.15871890209E+03  0.15871890209E+03  0.00000000000E+00 0.  1.
         21   -1    0    0  503  504 -0.00000000000E+00 -0.00000000000E+00 -0.38318913928E+03  0.38318913928E+03  0.00000000000E+00 0.  1.
         25    2    1    2    0    0  0.16863294188E+03 -0.84197160761E+02 -0.22025896336E+03  0.31569859461E+03  0.12500144294E+03 0.  0.
         25    2    1    2    0    0 -0.16863294188E+03  0.84197160761E+02 -0.42112738403E+01  0.22620944676E+03  0.12500699184E+03 0.  0.
          5    1    3    3  501    0  0.10645920549E+03 -0.70505365783E+02 -0.21694331015E+03  0.25177581071E+03  0.47000000000E+01 0. -1.
         -5    1    3    3    0  501  0.62173736389E+02 -0.13691794978E+02 -0.33156532055E+01  0.63922783908E+02  0.47000000000E+01 0. -1.
          5    1    4    4  502    0 -0.10661092137E+03 -0.16329014597E+02 -0.22740770382E+01  0.10798049222E+03  0.47000000000E+01 0.  1.
         -5    1    4    4    0  502 -0.62022020507E+02  0.10052617536E+03 -0.19371968020E+01  0.11822895454E+03  0.47000000000E+01 0.  1.
<mgrwt>
<rscale>  0 0.49323163E+03</rscale>
<asrwt>0</asrwt>
<pdfrwt beam="1">  1       21 0.24418293E-01 0.49323163E+03</pdfrwt>
<pdfrwt beam="2">  1       21 0.58952175E-01 0.49323163E+03</pdfrwt>
<totfact> 0.38690085E+04</totfact>
</mgrwt>
</event>
<event>
 8    1  0.9974463E-006  0.2775568E+03  0.7546771E-02  0.1097031E+00
         21   -1    0    0  504  503  0.00000000000E+00  0.00000000000E+00  0.45046864043E+03  0.45046864043E+03  0.00000000000E+00 0. -1.
         21   -1    0    0  503  504 -0.00000000000E+00 -0.00000000000E+00 -0.42754224689E+02  0.42754224689E+02  0.00000000000E+00 0. -1.
         25    2    1    2    0    0  0.26005810859E+01 -0.17580226705E+02  0.10151441425E+03  0.16201242176E+03  0.12500808418E+03 0.  0.
         25    2    1    2    0    0 -0.26005810859E+01  0.17580226705E+02  0.30620000149E+03  0.33121044336E+03  0.12500435786E+03 0.  0.
          5    1    3    3  501    0 -0.37354088964E+02  0.96139776028E+01 -0.10223454418E+02  0.40179168084E+02  0.47000000000E+01 0.  1.
         -5    1    3    3    0  501  0.39954670050E+02 -0.27194204307E+02  0.11173786867E+03  0.12183325368E+03  0.47000000000E+01 0.  1.
          5    1    4    4  502    0 -0.31909450420E+02 -0.34326313786E+02  0.22775568840E+03  0.23257526189E+03  0.47000000000E+01 0.  1.
         -5    1    4    4    0  502  0.29308869334E+02  0.51906540491E+02  0.78444313089E+02  0.98635181469E+02  0.47000000000E+01 0.  1.
<mgrwt>
<rscale>  0 0.27755675E+03</rscale>
<asrwt>0</asrwt>
<pdfrwt beam="1">  1       21 0.69302865E-01 0.27755675E+03</pdfrwt>
<pdfrwt beam="2">  1       21 0.65775733E-02 0.27755675E+03</pdfrwt>
<totfact> 0.31231083E+05</totfact>
</mgrwt>
</event>
<event>
 8    1  0.9974463E-006  0.4449534E+03  0.7546771E-02  0.1029238E+00
         21   -1    0    0  504  503  0.00000000000E+00  0.00000000000E+00  0.44923133949E+03  0.44923133949E+03  0.00000000000E+00 0.  1.
         21   -1    0    0  503  504 -0.00000000000E+00 -0.00000000000E+00 -0.11017903727E+03  0.11017903727E+03  0.00000000000E+00 0.  1.
         25    2    1    2    0    0  0.98200070020E+02  0.55585242318E+02 -0.13269142721E+02  0.16891168062E+03  0.12498845061E+03 0.  0.
         25    2    1    2    0    0 -0.98200070020E+02 -0.55585242318E+02  0.35232144494E+03  0.39049869614E+03  0.12500343278E+03 0.  0.
          5    1    3    3  501    0  0.52662470069E+01  0.38870645688E+02  0.43398734106E+02  0.58687311880E+02  0.47000000000E+01 0.  1.
         -5    1    3    3    0  501  0.92933823013E+02  0.16714596629E+02 -0.56667876827E+02  0.11022436874E+03  0.47000000000E+01 0.  1.
          5    1    4    4  502    0  0.24431022204E+01 -0.26651187145E+02  0.22007479685E+03  0.22174593735E+03  0.47000000000E+01 0.  1.
         -5    1    4    4    0  502 -0.10064317224E+03 -0.28934055172E+02  0.13224664810E+03  0.16875275879E+03  0.47000000000E+01 0.  1.
<mgrwt>
<rscale>  0 0.44495338E+03</rscale>
<asrwt>0</asrwt>
<pdfrwt beam="1">  1       21 0.69112513E-01 0.44495338E+03</pdfrwt>
<pdfrwt beam="2">  1       21 0.16950621E-01 0.44495338E+03</pdfrwt>
<totfact> 0.55141427E+04</totfact>
</mgrwt>
</event>
<event>
 8    1  0.9974463E-006  0.4556700E+03  0.7546771E-02  0.1026045E+00
         21   -1    0    0  504  503  0.00000000000E+00  0.00000000000E+00  0.17674066746E+03  0.17674066746E+03  0.00000000000E+00 0.  1.
         21   -1    0    0  503  504 -0.00000000000E+00 -0.00000000000E+00 -0.29370025406E+03  0.29370025406E+03  0.00000000000E+00 0.  1.
         25    2    1    2    0    0  0.13210382578E+03  0.13596888653E+03 -0.39121062066E+02  0.23041948130E+03  0.12499488379E+03 0.  0.
         25    2    1    2    0    0 -0.13210382578E+03 -0.13596888653E+03 -0.77838524532E+02  0.24002144023E+03  0.12494997791E+03 0.  0.
          5    1    3    3  501    0  0.11705882376E+03  0.91502729994E+02  0.25074918820E+02  0.15075264300E+03  0.47000000000E+01 0.  1.
         -5    1    3    3    0  501  0.15045002019E+02  0.44466156536E+02 -0.64195980886E+02  0.79666838300E+02  0.47000000000E+01 0.  1.
          5    1    4    4  502    0  0.22083504528E+02 -0.26828122178E+02  0.14549207381E+01  0.35094673473E+02  0.47000000000E+01 0.  1.
         -5    1    4    4    0  502 -0.15418733031E+03 -0.10914076435E+03 -0.79293445270E+02  0.20492676676E+03  0.47000000000E+01 0.  1.
<mgrwt>
<rscale>  0 0.45566996E+03</rscale>
<asrwt>0</asrwt>
<pdfrwt beam="1">  1       21 0.27190872E-01 0.45566996E+03</pdfrwt>
<pdfrwt beam="2">  1       21 0.45184654E-01 0.45566996E+03</pdfrwt>
<totfact> 0.55851093E+04</totfact>
</mgrwt>
</event>
<event>
 8    1  0.9974463E-006  0.3487798E+03  0.7546771E-02  0.1063117E+00
         21   -1    0    0  504  503  0.00000000000E+00  0.00000000000E+00  0.29223432403E+03  0.29223432403E+03  0.00000000000E+00 0. -1.
         21   -1    0    0  503  504 -0.00000000000E+00 -0.00000000000E+00 -0.10406660452E+03  0.10406660452E+03  0.00000000000E+00 0. -1.
         25    2    1    2    0    0 -0.99060607110E+02  0.40213739687E+02  0.15992046217E+03  0.22941315774E+03  0.12500277589E+03 0.  0.
         25    2    1    2    0    0  0.99060607110E+02 -0.40213739687E+02  0.28247257338E+02  0.16688777082E+03  0.12499388690E+03 0.  0.
          5    1    3    3  501    0 -0.50206332671E+02 -0.35005679002E+02  0.11173938645E+03  0.12749060314E+03  0.47000000000E+01 0. -1.
         -5    1    3    3    0  501 -0.48854274439E+02  0.75219418688E+02  0.48181075718E+02  0.10192255460E+03  0.47000000000E+01 0. -1.
          5    1    4    4  502    0  0.16576417446E+02 -0.45097516293E+02  0.61076303004E+02  0.77852221418E+02  0.47000000000E+01 0. -1.
         -5    1    4    4    0  502  0.82484189663E+02  0.48837766056E+01 -0.32829045666E+02  0.89035549404E+02  0.47000000000E+01 0. -1.
<mgrwt>
<rscale>  0 0.34877978E+03</rscale>
<asrwt>0</asrwt>
<pdfrwt beam="1">  1       21 0.44959126E-01 0.34877978E+03</pdfrwt>
<pdfrwt beam="2">  1       21 0.16010247E-01 0.34877978E+03</pdfrwt>
<totfact> 0.15849807E+05</totfact>
</mgrwt>
</event>
<event>
 8    1  0.9974463E-006  0.6796138E+03  0.7546771E-02  0.9752745E-01
         21   -1    0    0  504  503  0.00000000000E+00  0.00000000000E+00  0.99034847414E+03  0.99034847414E+03  0.00000000000E+00 0.  1.
         21   -1    0    0  503  504 -0.00000000000E+00 -0.00000000000E+00 -0.11659402602E+03  0.11659402602E+03  0.00000000000E+00 0.  1.
         25    2    1    2    0    0 -0.15671804572E+03  0.20227421923E+03  0.13492451529E+03  0.31512704608E+03  0.12500009891E+03 0.  0.
         25    2    1    2    0    0  0.15671804572E+03 -0.20227421923E+03  0.73882993283E+03  0.79181545408E+03  0.12500655207E+03 0.  0.
          5    1    3    3  501    0 -0.12063723285E+03  0.61060867481E+02  0.90175180126E+02  0.16258974322E+03  0.47000000000E+01 0. -1.
         -5    1    3    3    0  501 -0.36080812871E+02  0.14121335174E+03  0.44749335168E+02  0.15253730287E+03  0.47000000000E+01 0. -1.
          5    1    4    4  502    0  0.12222101517E+03 -0.19917299103E+03  0.51871020375E+03  0.56893780185E+03  0.47000000000E+01 0. -1.
         -5    1    4    4    0  502  0.34497030555E+02 -0.31012281982E+01  0.22011972908E+03  0.22287765223E+03  0.47000000000E+01 0. -1.
<mgrwt>
<rscale>  0 0.67961376E+03</rscale>
<asrwt>0</asrwt>
<pdfrwt beam="1">  1       21 0.15236130E+00 0.67961376E+03</pdfrwt>
<pdfrwt beam="2">  1       21 0.17937543E-01 0.67961376E+03</pdfrwt>
<totfact> 0.66747723E+03</totfact>
</mgrwt>
</event>
<event>
 8    1  0.9974463E-006  0.3725277E+03  0.7546771E-02  0.1053731E+00
         21   -1    0    0  504  503  0.00000000000E+00  0.00000000000E+00  0.58223921541E+02  0.58223921541E+02  0.00000000000E+00 0.  1.
         21   -1    0    0  503  504 -0.00000000000E+00 -0.00000000000E+00 -0.59587565163E+03  0.59587565163E+03  0.00000000000E+00 0.  1.
         25    2    1    2    0    0 -0.56415418561E+02 -0.36895523112E+02 -0.48045462401E+03  0.50100401346E+03  0.12499758673E+03 0.  0.
         25    2    1    2    0    0  0.56415418561E+02  0.36895523112E+02 -0.57197106073E+02  0.15309555971E+03  0.12499104921E+03 0.  0.
          5    1    3    3  501    0 -0.73210203197E+02 -0.53774199432E+02 -0.20248340269E+03  0.22197526155E+03  0.47000000000E+01 0.  1.
         -5    1    3    3    0  501  0.16794784636E+02  0.16878676320E+02 -0.27797122133E+03  0.27902875191E+03  0.47000000000E+01 0.  1.
          5    1    4    4  502    0  0.76477000684E+02  0.58811051519E+02 -0.71120603781E+02  0.11994874612E+03  0.47000000000E+01 0.  1.
         -5    1    4    4    0  502 -0.20061582123E+02 -0.21915528407E+02  0.13923497708E+02  0.33146813588E+02  0.47000000000E+01 0.  1.
<mgrwt>
<rscale>  0 0.37252768E+03</rscale>
<asrwt>0</asrwt>
<pdfrwt beam="1">  1       21 0.89575263E-02 0.37252768E+03</pdfrwt>
<pdfrwt beam="2">  1       21 0.91673178E-01 0.37252768E+03</pdfrwt>
<totfact> 0.93582884E+04</totfact>
</mgrwt>
</event>
<event>
 8    1  0.9974463E-006  0.3013169E+03  0.7546771E-02  0.1084584E+00
         21   -1    0    0  504  503  0.00000000000E+00  0.00000000000E+00  0.18933051359E+03  0.18933051359E+03  0.00000000000E+00 0.  1.
         21   -1    0    0  503  504 -0.00000000000E+00 -0.00000000000E+00 -0.11988540186E+03  0.11988540186E+03  0.00000000000E+00 0.  1.
         25    2    1    2    0    0 -0.79996719714E+02  0.24675844942E+02  0.43005348518E+02  0.15646713551E+03  0.12499652798E+03 0.  0.
         25    2    1    2    0    0  0.79996719714E+02 -0.24675844942E+02  0.26439763212E+02  0.15274877993E+03  0.12499902481E+03 0.  0.
          5    1    3    3  501    0 -0.81841837453E+02 -0.18619169282E+02 -0.13459562205E+02  0.85135243214E+02  0.47000000000E+01 0.  1.
         -5    1    3    3    0  501  0.18451177386E+01  0.43295014224E+02  0.56464910723E+02  0.71331892301E+02  0.47000000000E+01 0.  1.
          5    1    4    4  502    0 -0.11252234094E+02  0.28768413768E+02  0.34553052657E+02  0.46585811690E+02  0.47000000000E+01 0.  1.
         -5    1    4    4    0  502  0.91248953808E+02 -0.53444258710E+02 -0.81132894447E+01  0.10616296824E+03  0.47000000000E+01 0.  1.
<mgrwt>
<rscale>  0 0.30131687E+03</rscale>
<asrwt>0</asrwt>
<pdfrwt beam="1">  1       21 0.29127771E-01 0.30131687E+03</pdfrwt>
<pdfrwt beam="2">  1       21 0.18443908E-01 0.30131687E+03</pdfrwt>
<totfact> 0.29538906E+05</totfact>
</mgrwt>
</event>
<event>
 8    1  0.9974463E-006  0.2854823E+03  0.7546771E-02  0.1092732E+00
         21   -1    0    0  504  503  0.00000000000E+00  0.00000000000E+00  0.13310250595E+03  0.13310250595E+03  0.00000000000E+00 0.  1.
         21   -1    0    0  503  504 -0.00000000000E+00 -0.00000000000E+00 -0.15307777304E+03  0.15307777304E+03  0.00000000000E+00 0.  1.
         25    2    1    2    0    0  0.31408743091E+02 -0.18906105901E+02  0.48553915721E+02  0.13901796503E+03  0.12499824753E+03 0.  0.
         25    2    1    2    0    0 -0.31408743091E+02  0.18906105901E+02 -0.68529182810E+02  0.14716231395E+03  0.12496618650E+03 0.  0.
          5    1    3    3  501    0  0.37009279885E+02 -0.33983208041E+02  0.85029907611E+02  0.98877299794E+02  0.47000000000E+01 0.  1.
         -5    1    3    3    0  501 -0.56005367942E+01  0.15077102139E+02 -0.36475991890E+02  0.40140665237E+02  0.47000000000E+01 0.  1.
          5    1    4    4  502    0  0.94746532822E+01 -0.40076937695E+02 -0.62492694898E+02  0.74989045236E+02  0.47000000000E+01 0.  1.
         -5    1    4    4    0  502 -0.40883396373E+02  0.58983043597E+02 -0.60364879117E+01  0.72173268717E+02  0.47000000000E+01 0.  1.
<mgrwt>
<rscale>  0 0.28548230E+03</rscale>
<asrwt>0</asrwt>
<pdfrwt beam="1">  1       21 0.20477309E-01 0.28548230E+03</pdfrwt>
<pdfrwt beam="2">  1       21 0.23550426E-01 0.28548230E+03</pdfrwt>
<totfact> 0.36743170E+05</totfact>
</mgrwt>
</event>
<event>
 8    1  0.9974463E-006  0.3207465E+03  0.7546771E-02  0.1075306E+00
         21   -1    0    0  504  503  0.00000000000E+00  0.00000000000E+00  0.18019964224E+03  0.18019964224E+03  0.00000000000E+00 0.  1.
         21   -1    0    0  503  504 -0.00000000000E+00 -0.00000000000E+00 -0.14272822047E+03  0.14272822047E+03  0.00000000000E+00 0.  1.
         25    2    1    2    0    0 -0.89666724622E+02  0.28355259099E+02 -0.16860340051E+02  0.15733325527E+03  0.12500135969E+03 0.  0.
         25    2    1    2    0    0  0.89666724622E+02 -0.28355259099E+02  0.54331761818E+02  0.16559460744E+03  0.12500196577E+03 0.  0.
          5    1    3    3  501    0 -0.54621956978E+02 -0.24366806666E+02 -0.56566670873E+02  0.82457126465E+02  0.47000000000E+01 0.  1.
         -5    1    3    3    0  501 -0.35044767644E+02  0.52722065765E+02  0.39706330822E+02  0.74876128807E+02  0.47000000000E+01 0.  1.
          5    1    4    4  502    0  0.58438277077E+02 -0.12533889781E+02  0.94620607294E+02  0.11201464166E+03  0.47000000000E+01 0. -1.
         -5    1    4    4    0  502  0.31228447545E+02 -0.15821369318E+02 -0.40288845476E+02  0.53579965780E+02  0.47000000000E+01 0. -1.
<mgrwt>
<rscale>  0 0.32074647E+03</rscale>
<asrwt>0</asrwt>
<pdfrwt beam="1">  1       21 0.27723022E-01 0.32074647E+03</pdfrwt>
<pdfrwt beam="2">  1       21 0.21958188E-01 0.32074647E+03</pdfrwt>
<totfact> 0.23316577E+05</totfact>
</mgrwt>
</event>
<event>
 8    1  0.9974463E-006  0.2815741E+03  0.7546771E-02  0.1094832E+00
         21   -1    0    0  504  503  0.00000000000E+00  0.00000000000E+00  0.27123732350E+03  0.27123732350E+03  0.00000000000E+00 0. -1.
         21   -1    0    0  503  504 -0.00000000000E+00 -0.00000000000E+00 -0.73076182720E+02  0.73076182720E+02  0.00000000000E+00 0. -1.
         25    2    1    2    0    0 -0.26649848592E+02 -0.39369874058E+02  0.15287133571E+03  0.20311486130E+03  0.12500320070E+03 0.  0.
         25    2    1    2    0    0  0.26649848592E+02  0.39369874058E+02  0.45289805066E+02  0.14119864492E+03  0.12500275785E+03 0.  0.
          5    1    3    3  501    0  0.20881354118E+02  0.11200071477E+02 -0.98971078127E+01  0.26105847888E+02  0.47000000000E+01 0. -1.
         -5    1    3    3    0  501 -0.47531202710E+02 -0.50569945535E+02  0.16276844353E+03  0.17700901341E+03  0.47000000000E+01 0. -1.
          5    1    4    4  502    0  0.50263388695E+02 -0.30596402482E+02  0.27366150180E+02  0.65065691909E+02  0.47000000000E+01 0. -1.
         -5    1    4    4    0  502 -0.23613540103E+02  0.69966276540E+02  0.17923654886E+02  0.76132953006E+02  0.47000000000E+01 0. -1.
<mgrwt>
<rscale>  0 0.28157406E+03</rscale>
<asrwt>0</asrwt>
<pdfrwt beam="1">  1       21 0.41728819E-01 0.28157406E+03</pdfrwt>
<pdfrwt beam="2">  1       21 0.11242490E-01 0.28157406E+03</pdfrwt>
<totfact> 0.35732355E+05</totfact>
</mgrwt>
</event>
<event>
 8    1  0.9974463E-006  0.2980062E+03  0.7546771E-02  0.1086242E+00
         21   -1    0    0  504  503  0.00000000000E+00  0.00000000000E+00  0.47817543117E+03  0.47817543117E+03  0.00000000000E+00 0.  1.
         21   -1    0    0  503  504 -0.00000000000E+00 -0.00000000000E+00 -0.46430507617E+02  0.46430507617E+02  0.00000000000E+00 0.  1.
         25    2    1    2    0    0 -0.65786103555E+02 -0.32389998771E+02  0.15485011343E+03  0.21208059182E+03  0.12499078508E+03 0.  0.
         25    2    1    2    0    0  0.65786103555E+02  0.32389998771E+02  0.27689481012E+03  0.31252534697E+03  0.12499773272E+03 0.  0.
          5    1    3    3  501    0  0.26893625084E+02 -0.41687433275E+02  0.70482543791E+02  0.86319106474E+02  0.47000000000E+01 0.  1.
         -5    1    3    3    0  501 -0.92679728639E+02  0.92974345047E+01  0.84367569639E+02  0.12576148534E+03  0.47000000000E+01 0.  1.
          5    1    4    4  502    0 -0.31430730983E+02  0.20640155858E+02  0.35267170929E+02  0.51766497171E+02  0.47000000000E+01 0. -1.
         -5    1    4    4    0  502  0.97216834538E+02  0.11749842912E+02  0.24162763919E+03  0.26075884980E+03  0.47000000000E+01 0. -1.
<mgrwt>
<rscale>  0 0.29800623E+03</rscale>
<asrwt>0</asrwt>
<pdfrwt beam="1">  1       21 0.73565448E-01 0.29800623E+03</pdfrwt>
<pdfrwt beam="2">  1       21 0.71431553E-02 0.29800623E+03</pdfrwt>
<totfact> 0.23568339E+05</totfact>
</mgrwt>
</event>
<event>
 8    1  0.9974463E-006  0.2699266E+03  0.7546771E-02  0.1101322E+00
         21   -1    0    0  504  503  0.00000000000E+00  0.00000000000E+00  0.13773561832E+03  0.13773561832E+03  0.00000000000E+00 0. -1.
         21   -1    0    0  503  504 -0.00000000000E+00 -0.00000000000E+00 -0.13224680362E+03  0.13224680362E+03  0.00000000000E+00 0. -1.
         25    2    1    2    0    0 -0.19089043369E+02  0.39081283140E+02 -0.23688474559E+02  0.13445409143E+03  0.12500008243E+03 0.  0.
         25    2    1    2    0    0  0.19089043369E+02 -0.39081283140E+02  0.29177289256E+02  0.13552833051E+03  0.12499950357E+03 0.  0.
          5    1    3    3  501    0  0.27113352123E+02  0.29740940095E+02 -0.61633715817E+02  0.73759489603E+02  0.47000000000E+01 0. -1.
         -5    1    3    3    0  501 -0.46202395492E+02  0.93403430451E+01  0.37945241258E+02  0.60694601832E+02  0.47000000000E+01 0. -1.
          5    1    4    4  502    0  0.38362152365E+02 -0.40556614565E+02 -0.36526770754E+02  0.66878910733E+02  0.47000000000E+01 0. -1.
         -5    1    4    4    0  502 -0.19273108996E+02  0.14753314243E+01  0.65704060011E+02  0.68649419773E+02  0.47000000000E+01 0. -1.
<mgrwt>
<rscale>  0 0.26992662E+03</rscale>
<asrwt>0</asrwt>
<pdfrwt beam="1">  1       21 0.21190095E-01 0.26992662E+03</pdfrwt>
<pdfrwt beam="2">  1       21 0.20345662E-01 0.26992662E+03</pdfrwt>
<totfact> 0.45603804E+05</totfact>
</mgrwt>
</event>
<event>
 8    1  0.9974463E-006  0.2804295E+03  0.7546771E-02  0.1095455E+00
         21   -1    0    0  504  503  0.00000000000E+00  0.00000000000E+00  0.22595622313E+02  0.22595622313E+02  0.00000000000E+00 0. -1.
         21   -1    0    0  503  504 -0.00000000000E+00 -0.00000000000E+00 -0.87008762380E+03  0.87008762380E+03  0.00000000000E+00 0. -1.
         25    2    1    2    0    0 -0.42806294765E+02  0.38339809349E+02 -0.50990920929E+03  0.52814141319E+03  0.12499452291E+03 0.  0.
         25    2    1    2    0    0  0.42806294765E+02 -0.38339809349E+02 -0.33758279219E+03  0.36454183292E+03  0.12500514593E+03 0.  0.
          5    1    3    3  501    0  0.48076612708E+01  0.39207680716E+02 -0.44863554470E+03  0.45039571246E+03  0.47000000000E+01 0. -1.
         -5    1    3    3    0  501 -0.47613956036E+02 -0.86787136632E+00 -0.61273664593E+02  0.77745700735E+02  0.47000000000E+01 0. -1.
          5    1    4    4  502    0 -0.20914933419E+02 -0.50905221238E+02 -0.24627131874E+03  0.25238943802E+03  0.47000000000E+01 0. -1.
         -5    1    4    4    0  502  0.63721228185E+02  0.12565411889E+02 -0.91311473453E+02  0.11215239490E+03  0.47000000000E+01 0. -1.
<mgrwt>
<rscale>  0 0.28042947E+03</rscale>
<asrwt>0</asrwt>
<pdfrwt beam="1">  1       21 0.34762492E-02 0.28042947E+03</pdfrwt>
<pdfrwt beam="2">  1       21 0.13385965E+00 0.28042947E+03</pdfrwt>
<totfact> 0.19292388E+05</totfact>
</mgrwt>
</event>
<event>
 8    1  0.9974463E-006  0.3484758E+03  0.7546771E-02  0.1063242E+00
         21   -1    0    0  504  503  0.00000000000E+00  0.00000000000E+00  0.88002224551E+02  0.88002224551E+02  0.00000000000E+00 0.  1.
         21   -1    0    0  503  504 -0.00000000000E+00 -0.00000000000E+00 -0.34497812540E+03  0.34497812540E+03  0.00000000000E+00 0.  1.
         25    2    1    2    0    0 -0.19255660489E+02  0.60901176759E+02 -0.25670728262E+03  0.29257584154E+03  0.12498904078E+03 0.  0.
         25    2    1    2    0    0  0.19255660489E+02 -0.60901176759E+02 -0.26861823630E+00  0.14040450841E+03  0.12503447539E+03 0.  0.
          5    1    3    3  501    0 -0.18542819123E+02 -0.15913843850E+02 -0.18728042986E+03  0.18892627127E+03  0.47000000000E+01 0. -1.
         -5    1    3    3    0  501 -0.71284136670E+00  0.76815020609E+02 -0.69426852752E+02  0.10364957027E+03  0.47000000000E+01 0. -1.
          5    1    4    4  502    0  0.39074425533E+02  0.19179424066E+02 -0.29459644594E+02  0.52769514853E+02  0.47000000000E+01 0.  1.
         -5    1    4    4    0  502 -0.19818765044E+02 -0.80080600825E+02  0.29191026358E+02  0.87634993559E+02  0.47000000000E+01 0.  1.
<mgrwt>
<rscale>  0 0.34847578E+03</rscale>
<asrwt>0</asrwt>
<pdfrwt beam="1">  1       21 0.13538804E-01 0.34847578E+03</pdfrwt>
<pdfrwt beam="2">  1       21 0.53073559E-01 0.34847578E+03</pdfrwt>
<totfact> 0.15216694E+05</totfact>
</mgrwt>
</event>
<event>
 8    1  0.9974463E-006  0.5186059E+03  0.7546771E-02  0.1009033E+00
         21   -1    0    0  504  503  0.00000000000E+00  0.00000000000E+00  0.79340070925E+02  0.79340070925E+02  0.00000000000E+00 0.  1.
         21   -1    0    0  503  504 -0.00000000000E+00 -0.00000000000E+00 -0.84746594770E+03  0.84746594770E+03  0.00000000000E+00 0.  1.
         25    2    1    2    0    0 -0.77697144405E+02  0.18294389548E+03 -0.58070202686E+03  0.62637459334E+03  0.12499988817E+03 0.  0.
         25    2    1    2    0    0  0.77697144405E+02 -0.18294389548E+03 -0.18742384992E+03  0.30043142528E+03  0.12500410650E+03 0.  0.
          5    1    3    3  501    0 -0.42350308150E+02  0.19233333836E+03 -0.50792312032E+03  0.54478770892E+03  0.47000000000E+01 0. -1.
         -5    1    3    3    0  501 -0.35346836255E+02 -0.93894428814E+01 -0.72778906549E+02  0.81586884420E+02  0.47000000000E+01 0. -1.
          5    1    4    4  502    0  0.10533467264E+03 -0.15569560763E+03 -0.12178352831E+03  0.22403087569E+03  0.47000000000E+01 0. -1.
         -5    1    4    4    0  502 -0.27637528238E+02 -0.27248287849E+02 -0.65640321607E+02  0.76400549596E+02  0.47000000000E+01 0. -1.
<mgrwt>
<rscale>  0 0.51860586E+03</rscale>
<asrwt>0</asrwt>
<pdfrwt beam="1">  1       21 0.12206164E-01 0.51860586E+03</pdfrwt>
<pdfrwt beam="2">  1       21 0.13037938E+00 0.51860586E+03</pdfrwt>
<totfact> 0.21569600E+04</totfact>
</mgrwt>
</event>
<event>
 8    1  0.9974463E-006  0.3050321E+03  0.7546771E-02  0.1082752E+00
         21   -1    0    0  504  503  0.00000000000E+00  0.00000000000E+00  0.32163149009E+02  0.32163149009E+02  0.00000000000E+00 0. -1.
         21   -1    0    0  503  504 -0.00000000000E+00 -0.00000000000E+00 -0.72322352559E+03  0.72322352559E+03  0.00000000000E+00 0. -1.
         25    2    1    2    0    0 -0.92874189163E+01  0.57845483655E+02 -0.18489449886E+03  0.23074140294E+03  0.12499305258E+03 0.  0.
         25    2    1    2    0    0  0.92874189163E+01 -0.57845483655E+02 -0.50616587772E+03  0.52464527166E+03  0.12496563197E+03 0.  0.
          5    1    3    3  501    0  0.21525635945E+02 -0.34298547801E+02 -0.53866426020E+02  0.67553128990E+02  0.47000000000E+01 0.  1.
         -5    1    3    3    0  501 -0.30813054861E+02  0.92144031457E+02 -0.13102807284E+03  0.16318827395E+03  0.47000000000E+01 0.  1.
          5    1    4    4  502    0 -0.46230243021E+02 -0.79713706272E+01 -0.32876254513E+03  0.33212599898E+03  0.47000000000E+01 0.  1.
         -5    1    4    4    0  502  0.55517661938E+02 -0.49874113028E+02 -0.17740333259E+03  0.19251927268E+03  0.47000000000E+01 0.  1.
<mgrwt>
<rscale>  0 0.30503210E+03</rscale>
<asrwt>0</asrwt>
<pdfrwt beam="1">  1       21 0.49481767E-02 0.30503210E+03</pdfrwt>
<pdfrwt beam="2">  1       21 0.11126516E+00 0.30503210E+03</pdfrwt>
<totfact> 0.16775876E+05</totfact>
</mgrwt>
</event>
<event>
 8    1  0.9974463E-006  0.2757229E+03  0.7546771E-02  0.1098048E+00
         21   -1    0    0  504  503  0.00000000000E+00  0.00000000000E+00  0.57610298427E+03  0.57610298427E+03  0.00000000000E+00 0. -1.
         21   -1    0    0  503  504 -0.00000000000E+00 -0.00000000000E+00 -0.32990238143E+02  0.32990238143E+02  0.00000000000E+00 0. -1.
         25    2    1    2    0    0 -0.78602253206E+01 -0.54006835832E+02  0.31589231387E+03  0.34407849995E+03  0.12499415468E+03 0.  0.
         25    2    1    2    0    0  0.78602253206E+01  0.54006835832E+02  0.22722043226E+03  0.26501472246E+03  0.12500062732E+03 0.  0.
          5    1    3    3  501    0 -0.36423927671E+02  0.21227752847E+02  0.18933394591E+03  0.19402771213E+03  0.47000000000E+01 0. -1.
         -5    1    3    3    0  501  0.28563702350E+02 -0.75234588679E+02  0.12655836796E+03  0.15005078782E+03  0.47000000000E+01 0. -1.
          5    1    4    4  502    0 -0.23968852714E+01  0.94220866845E+02  0.16488667702E+03  0.18998163876E+03  0.47000000000E+01 0.  1.
         -5    1    4    4    0  502  0.10257110592E+02 -0.40214031013E+02  0.62333755234E+02  0.75033083700E+02  0.47000000000E+01 0.  1.
<mgrwt>
<rscale>  0 0.27572287E+03</rscale>
<asrwt>0</asrwt>
<pdfrwt beam="1">  1       21 0.88631222E-01 0.27572287E+03</pdfrwt>
<pdfrwt beam="2">  1       21 0.50754216E-02 0.27572287E+03</pdfrwt>
<totfact> 0.27904938E+05</totfact>
</mgrwt>
</event>
<event>
 8    1  0.9974463E-006  0.2572897E+03  0.7546771E-02  0.1108783E+00
         21   -1    0    0  504  503  0.00000000000E+00  0.00000000000E+00  0.12304206339E+03  0.12304206339E+03  0.00000000000E+00 0. -1.
         21   -1    0    0  503  504 -0.00000000000E+00 -0.00000000000E+00 -0.13450280488E+03  0.13450280488E+03  0.00000000000E+00 0. -1.
         25    2    1    2    0    0  0.37693799683E+01  0.28560665607E+02  0.42430419195E+01  0.12834750074E+03  0.12500063078E+03 0.  0.
         25    2    1    2    0    0 -0.37693799683E+01 -0.28560665607E+02 -0.15703783406E+02  0.12919736753E+03  0.12496171861E+03 0.  0.
          5    1    3    3  501    0 -0.31274837226E+02 -0.13534883925E+02  0.47322166748E+02  0.58504580949E+02  0.47000000000E+01 0.  1.
         -5    1    3    3    0  501  0.35044217194E+02  0.42095549531E+02 -0.43079124828E+02  0.69842919792E+02  0.47000000000E+01 0.  1.
          5    1    4    4  502    0 -0.27824452867E+02 -0.60959594387E+02 -0.43449435084E+02  0.80001348328E+02  0.47000000000E+01 0.  1.
         -5    1    4    4    0  502  0.24055072898E+02  0.32398928780E+02  0.27745651678E+02  0.49196019202E+02  0.47000000000E+01 0.  1.
<mgrwt>
<rscale>  0 0.25728974E+03</rscale>
<asrwt>0</asrwt>
<pdfrwt beam="1">  1       21 0.18929548E-01 0.25728974E+03</pdfrwt>
<pdfrwt beam="2">  1       21 0.20692739E-01 0.25728974E+03</pdfrwt>
<totfact> 0.54736786E+05</totfact>
</mgrwt>
</event>
<event>
 8    1  0.9974463E-006  0.4775902E+03  0.7546771E-02  0.1019800E+00
         21   -1    0    0  504  503  0.00000000000E+00  0.00000000000E+00  0.26997766585E+03  0.26997766585E+03  0.00000000000E+00 0. -1.
         21   -1    0    0  503  504 -0.00000000000E+00 -0.00000000000E+00 -0.21121416733E+03  0.21121416733E+03  0.00000000000E+00 0. -1.
         25    2    1    2    0    0  0.16976041732E+03  0.10854871059E+02 -0.83088051290E+02  0.22686295345E+03  0.12500699128E+03 0.  0.
         25    2    1    2    0    0 -0.16976041732E+03 -0.10854871059E+02  0.14185154981E+03  0.25432887972E+03  0.12499955745E+03 0.  0.
          5    1    3    3  501    0  0.13408208416E+03 -0.37013041114E+02 -0.21266779551E+02  0.14079181943E+03  0.47000000000E+01 0. -1.
         -5    1    3    3    0  501  0.35678333156E+02  0.47867912173E+02 -0.61821271739E+02  0.86071134023E+02  0.47000000000E+01 0. -1.
          5    1    4    4  502    0 -0.10694591518E+01 -0.39334292960E+02  0.32318229079E+02  0.51135978297E+02  0.47000000000E+01 0. -1.
         -5    1    4    4    0  502 -0.16869095817E+03  0.28479421901E+02  0.10953332073E+03  0.20319290143E+03  0.47000000000E+01 0. -1.
<mgrwt>
<rscale>  0 0.47759023E+03</rscale>
<asrwt>0</asrwt>
<pdfrwt beam="1">  1       21 0.41535026E-01 0.47759023E+03</pdfrwt>
<pdfrwt beam="2">  1       21 0.32494487E-01 0.47759023E+03</pdfrwt>
<totfact> 0.46515145E+04</totfact>
</mgrwt>
</event>
<event>
 8    1  0.9974463E-006  0.3233558E+03  0.7546771E-02  0.1074115E+00
         21   -1    0    0  504  503  0.00000000000E+00  0.00000000000E+00  0.92191053205E+02  0.92191053205E+02  0.00000000000E+00 0. -1.
         21   -1    0    0  503  504 -0.00000000000E+00 -0.00000000000E+00 -0.28353875495E+03  0.28353875495E+03  0.00000000000E+00 0. -1.
         25    2    1    2    0    0 -0.98776107724E+01 -0.83750613580E+02 -0.16346123512E+03  0.22238830732E+03  0.12500100550E+03 0.  0.
         25    2    1    2    0    0  0.98776107724E+01  0.83750613580E+02 -0.27886466622E+02  0.15334150083E+03  0.12499691351E+03 0.  0.
          5    1    3    3  501    0  0.48391068090E+02 -0.34734315580E+02 -0.12131581811E+03  0.13523234034E+03  0.47000000000E+01 0. -1.
         -5    1    3    3    0  501 -0.58268678863E+02 -0.49016298000E+02 -0.42145417016E+02  0.87155966987E+02  0.47000000000E+01 0. -1.
          5    1    4    4  502    0 -0.41616196170E+02  0.27075817180E+02  0.29130679093E+02  0.57755468348E+02  0.47000000000E+01 0.  1.
         -5    1    4    4    0  502  0.51493806943E+02  0.56674796400E+02 -0.57017145715E+02  0.95586032483E+02  0.47000000000E+01 0.  1.
<mgrwt>
<rscale>  0 0.32335576E+03</rscale>
<asrwt>0</asrwt>
<pdfrwt beam="1">  1       21 0.14183239E-01 0.32335576E+03</pdfrwt>
<pdfrwt beam="2">  1       21 0.43621347E-01 0.32335576E+03</pdfrwt>
<totfact> 0.21213902E+05</totfact>
</mgrwt>
</event>
<event>
 8    1  0.9974463E-006  0.3282074E+03  0.7546771E-02  0.1071933E+00
         21   -1    0    0  504  503  0.00000000000E+00  0.00000000000E+00  0.20604848417E+03  0.20604848417E+03  0.00000000000E+00 0.  1.
         21   -1    0    0  503  504 -0.00000000000E+00 -0.00000000000E+00 -0.13069751088E+03  0.13069751088E+03  0.00000000000E+00 0.  1.
         25    2    1    2    0    0 -0.22482405801E+02  0.55424655227E+02  0.12786603448E+03  0.18854585774E+03  0.12498986647E+03 0.  0.
         25    2    1    2    0    0  0.22482405801E+02 -0.55424655227E+02 -0.52515061189E+02  0.14820013731E+03  0.12501239167E+03 0.  0.
          5    1    3    3  501    0 -0.22360872319E+02 -0.16211910315E+02  0.11142953770E+03  0.11489763496E+03  0.47000000000E+01 0. -1.
         -5    1    3    3    0  501 -0.12153348149E+00  0.71636565541E+02  0.16436496780E+02  0.73648222785E+02  0.47000000000E+01 0. -1.
          5    1    4    4  502    0 -0.31250196481E+02 -0.44494076698E+02 -0.71531598943E+02  0.89973092026E+02  0.47000000000E+01 0.  1.
         -5    1    4    4    0  502  0.53732602282E+02 -0.10930578528E+02  0.19016537754E+02  0.58227045289E+02  0.47000000000E+01 0.  1.
<mgrwt>
<rscale>  0 0.32820740E+03</rscale>
<asrwt>0</asrwt>
<pdfrwt beam="1">  1       21 0.31699767E-01 0.32820740E+03</pdfrwt>
<pdfrwt beam="2">  1       21 0.20107309E-01 0.32820740E+03</pdfrwt>
<totfact> 0.21132447E+05</totfact>
</mgrwt>
</event>
<event>
 8    1  0.9974463E-006  0.3182717E+03  0.7546771E-02  0.1076447E+00
         21   -1    0    0  504  503  0.00000000000E+00  0.00000000000E+00  0.18435726684E+03  0.18435726684E+03  0.00000000000E+00 0.  1.
         21   -1    0    0  503  504 -0.00000000000E+00 -0.00000000000E+00 -0.13736490239E+03  0.13736490239E+03  0.00000000000E+00 0.  1.
         25    2    1    2    0    0  0.39132745388E+02 -0.59173464986E+02  0.92533052639E+02  0.17093662615E+03  0.12499637438E+03 0.  0.
         25    2    1    2    0    0 -0.39132745388E+02  0.59173464986E+02 -0.45540688190E+02  0.15078554309E+03  0.12501781875E+03 0.  0.
          5    1    3    3  501    0  0.23884580727E+02 -0.49431269693E+02 -0.18666845958E+02  0.58176152829E+02  0.47000000000E+01 0.  1.
         -5    1    3    3    0  501  0.15248164662E+02 -0.97421952924E+01  0.11119989860E+03  0.11276047332E+03  0.47000000000E+01 0.  1.
          5    1    4    4  502    0 -0.39710297358E+02  0.53509838952E+02  0.31173988419E+02  0.73716471259E+02  0.47000000000E+01 0.  1.
         -5    1    4    4    0  502  0.57755196935E+00  0.56636260339E+01 -0.76714676608E+02  0.77069071833E+02  0.47000000000E+01 0.  1.
<mgrwt>
<rscale>  0 0.31827170E+03</rscale>
<asrwt>0</asrwt>
<pdfrwt beam="1">  1       21 0.28362657E-01 0.31827170E+03</pdfrwt>
<pdfrwt beam="2">  1       21 0.21133062E-01 0.31827170E+03</pdfrwt>
<totfact> 0.23996335E+05</totfact>
</mgrwt>
</event>
<event>
 8    1  0.9974463E-006  0.3558713E+03  0.7546771E-02  0.1060231E+00
         21   -1    0    0  504  503  0.00000000000E+00  0.00000000000E+00  0.37405412338E+02  0.37405412338E+02  0.00000000000E+00 0.  1.
         21   -1    0    0  503  504 -0.00000000000E+00 -0.00000000000E+00 -0.84643094056E+03  0.84643094056E+03  0.00000000000E+00 0.  1.
         25    2    1    2    0    0 -0.35641509710E+02  0.10582646160E+03 -0.55281673311E+03  0.57766865901E+03  0.12500072801E+03 0.  0.
         25    2    1    2    0    0  0.35641509710E+02 -0.10582646160E+03 -0.25620879511E+03  0.30616769388E+03  0.12500461151E+03 0.  0.
          5    1    3    3  501    0  0.23305934225E+02  0.72896130904E+02 -0.14261445047E+03  0.16191968365E+03  0.47000000000E+01 0. -1.
         -5    1    3    3    0  501 -0.58947443934E+02  0.32930330700E+02 -0.41020228264E+03  0.41574897535E+03  0.47000000000E+01 0. -1.
          5    1    4    4  502    0 -0.39160193097E+02 -0.23575443352E+01 -0.52463914141E+02  0.65678238601E+02  0.47000000000E+01 0.  1.
         -5    1    4    4    0  502  0.74801702807E+02 -0.10346891727E+03 -0.20374488096E+03  0.24048945528E+03  0.47000000000E+01 0.  1.
<mgrwt>
<rscale>  0 0.35587132E+03</rscale>
<asrwt>0</asrwt>
<pdfrwt beam="1">  1       21 0.57546789E-02 0.35587132E+03</pdfrwt>
<pdfrwt beam="2">  1       21 0.13022014E+00 0.35587132E+03</pdfrwt>
<totfact> 0.85879283E+04</totfact>
</mgrwt>
</event>
<event>
 8    1  0.9974463E-006  0.2962373E+03  0.7546771E-02  0.1087137E+00
         21   -1    0    0  504  503  0.00000000000E+00  0.00000000000E+00  0.11278693916E+03  0.11278693916E+03  0.00000000000E+00 0. -1.
         21   -1    0    0  503  504 -0.00000000000E+00 -0.00000000000E+00 -0.19451835769E+03  0.19451835769E+03  0.00000000000E+00 0. -1.
         25    2    1    2    0    0 -0.14857382243E+02 -0.60558443868E+02 -0.91957234313E+02  0.16724254570E+03  0.12500347683E+03 0.  0.
         25    2    1    2    0    0  0.14857382243E+02  0.60558443868E+02  0.10225815788E+02  0.14006275115E+03  0.12499976009E+03 0.  0.
          5    1    3    3  501    0  0.13479796639E+02 -0.76391179050E+02 -0.92412969605E+01  0.78261157183E+02  0.47000000000E+01 0.  1.
         -5    1    3    3    0  501 -0.28337178881E+02  0.15832735182E+02 -0.82715937353E+02  0.88981388517E+02  0.47000000000E+01 0.  1.
          5    1    4    4  502    0 -0.47086965383E+02  0.31292761340E+02  0.35460092327E+02  0.66902371924E+02  0.47000000000E+01 0. -1.
         -5    1    4    4    0  502  0.61944347626E+02  0.29265682528E+02 -0.25234276539E+02  0.73160379230E+02  0.47000000000E+01 0. -1.
<mgrwt>
<rscale>  0 0.29623727E+03</rscale>
<asrwt>0</asrwt>
<pdfrwt beam="1">  1       21 0.17351837E-01 0.29623727E+03</pdfrwt>
<pdfrwt beam="2">  1       21 0.29925901E-01 0.29623727E+03</pdfrwt>
<totfact> 0.31421003E+05</totfact>
</mgrwt>
</event>
<event>
 8    1  0.9974463E-006  0.3907727E+03  0.7546771E-02  0.1047022E+00
         21   -1    0    0  504  503  0.00000000000E+00  0.00000000000E+00  0.80614162564E+02  0.80614162564E+02  0.00000000000E+00 0. -1.
         21   -1    0    0  503  504 -0.00000000000E+00 -0.00000000000E+00 -0.47356224924E+03  0.47356224924E+03  0.00000000000E+00 0. -1.
         25    2    1    2    0    0  0.15937898585E+02  0.14638732209E+03 -0.15469472031E+03  0.24746420974E+03  0.12499925573E+03 0.  0.
         25    2    1    2    0    0 -0.15937898585E+02 -0.14638732209E+03 -0.23825336637E+03  0.30671220207E+03  0.12499777450E+03 0.  0.
          5    1    3    3  501    0 -0.25337116469E+02  0.10036359292E+03 -0.29464325025E+02  0.10772676874E+03  0.47000000000E+01 0.  1.
         -5    1    3    3    0  501  0.41275015054E+02  0.46023729169E+02 -0.12523039528E+03  0.13973744100E+03  0.47000000000E+01 0.  1.
          5    1    4    4  502    0  0.30571495873E+02  0.71764679492E+01 -0.29179840761E+02  0.43123904728E+02  0.47000000000E+01 0.  1.
         -5    1    4    4    0  502 -0.46509394458E+02 -0.15356379004E+03 -0.20907352561E+03  0.26358829734E+03  0.47000000000E+01 0.  1.
<mgrwt>
<rscale>  0 0.39077269E+03</rscale>
<asrwt>0</asrwt>
<pdfrwt beam="1">  1       21 0.12402179E-01 0.39077269E+03</pdfrwt>
<pdfrwt beam="2">  1       21 0.72855731E-01 0.39077269E+03</pdfrwt>
<totfact> 0.88250092E+04</totfact>
</mgrwt>
</event>
<event>
 8    1  0.9974463E-006  0.3485179E+03  0.7546771E-02  0.1063225E+00
         21   -1    0    0  504  503  0.00000000000E+00  0.00000000000E+00  0.43849401342E+02  0.43849401342E+02  0.00000000000E+00 0. -1.
         21   -1    0    0  503  504 -0.00000000000E+00 -0.00000000000E+00 -0.69251066217E+03  0.69251066217E+03  0.00000000000E+00 0. -1.
         25    2    1    2    0    0 -0.10667657932E+03  0.57694857853E+02 -0.31285816617E+03  0.35807778737E+03  0.12502351965E+03 0.  0.
         25    2    1    2    0    0  0.10667657932E+03 -0.57694857853E+02 -0.33580309465E+03  0.37828227615E+03  0.12500069148E+03 0.  0.
          5    1    3    3  501    0 -0.66072091058E+02 -0.72458880605E+01 -0.47456970531E+02  0.81806345491E+02  0.47000000000E+01 0. -1.
         -5    1    3    3    0  501 -0.40604488259E+02  0.64940745913E+02 -0.26540119564E+03  0.27627144188E+03  0.47000000000E+01 0. -1.
          5    1    4    4  502    0  0.11077885321E+03 -0.84110081111E+02 -0.22803530348E+03  0.26714911510E+03  0.47000000000E+01 0. -1.
         -5    1    4    4    0  502 -0.41022738909E+01  0.26415223259E+02 -0.10776779117E+03  0.11113316105E+03  0.47000000000E+01 0. -1.
<mgrwt>
<rscale>  0 0.34851788E+03</rscale>
<asrwt>0</asrwt>
<pdfrwt beam="1">  1       21 0.67460620E-02 0.34851788E+03</pdfrwt>
<pdfrwt beam="2">  1       21 0.10654010E+00 0.34851788E+03</pdfrwt>
<totfact> 0.10801199E+05</totfact>
</mgrwt>
</event>
<event>
 8    1  0.9974463E-006  0.3009380E+03  0.7546771E-02  0.1084773E+00
         21   -1    0    0  504  503  0.00000000000E+00  0.00000000000E+00  0.44817267873E+02  0.44817267873E+02  0.00000000000E+00 0.  1.
         21   -1    0    0  503  504 -0.00000000000E+00 -0.00000000000E+00 -0.50518310538E+03  0.50518310538E+03  0.00000000000E+00 0.  1.
         25    2    1    2    0    0 -0.10957031980E+02  0.11812687157E+02 -0.38039561116E+03  0.40073163918E+03  0.12500171808E+03 0.  0.
         25    2    1    2    0    0  0.10957031980E+02 -0.11812687157E+02 -0.79970226350E+02  0.14926873408E+03  0.12500528686E+03 0.  0.
          5    1    3    3  501    0  0.60447911362E+01 -0.52349866687E+02 -0.23424136427E+03  0.24014194715E+03  0.47000000000E+01 0. -1.
         -5    1    3    3    0  501 -0.17001823116E+02  0.64162553843E+02 -0.14615424688E+03  0.16058969203E+03  0.47000000000E+01 0. -1.
          5    1    4    4  502    0 -0.19362816142E+02 -0.58070451667E+02 -0.13847890336E+02  0.62936079260E+02  0.47000000000E+01 0. -1.
         -5    1    4    4    0  502  0.30319848122E+02  0.46257764511E+02 -0.66122336013E+02  0.86332654816E+02  0.47000000000E+01 0. -1.
<mgrwt>
<rscale>  0 0.30093804E+03</rscale>
<asrwt>0</asrwt>
<pdfrwt beam="1">  1       21 0.68949641E-02 0.30093804E+03</pdfrwt>
<pdfrwt beam="2">  1       21 0.77720480E-01 0.30093804E+03</pdfrwt>
<totfact> 0.22123327E+05</totfact>
</mgrwt>
</event>
<event>
 8    1  0.9974463E-006  0.3056293E+03  0.7546771E-02  0.1082460E+00
         21   -1    0    0  504  503  0.00000000000E+00  0.00000000000E+00  0.94764899668E+03  0.94764899668E+03  0.00000000000E+00 0. -1.
         21   -1    0    0  503  504 -0.00000000000E+00 -0.00000000000E+00 -0.24642371588E+02  0.24642371588E+02  0.00000000000E+00 0. -1.
         25    2    1    2    0    0  0.52149512826E+02 -0.62442990968E+02  0.56741871491E+03  0.58669223360E+03  0.12500032051E+03 0.  0.
         25    2    1    2    0    0 -0.52149512826E+02  0.62442990968E+02  0.35558791018E+03  0.38559913467E+03  0.12500092792E+03 0.  0.
          5    1    3    3  501    0  0.64833834556E+02 -0.82855415594E+02  0.29609040280E+03  0.31426113763E+03  0.47000000000E+01 0. -1.
         -5    1    3    3    0  501 -0.12684321730E+02  0.20412424625E+02  0.27132831211E+03  0.27243109597E+03  0.47000000000E+01 0. -1.
          5    1    4    4  502    0 -0.10712367052E+02  0.44820666346E+02  0.26408813447E+02  0.53321312505E+02  0.47000000000E+01 0.  1.
         -5    1    4    4    0  502 -0.41437145774E+02  0.17622324622E+02  0.32917909674E+03  0.33227782217E+03  0.47000000000E+01 0.  1.
<mgrwt>
<rscale>  0 0.30562931E+03</rscale>
<asrwt>0</asrwt>
<pdfrwt beam="1">  1       21 0.14579213E+00 0.30562931E+03</pdfrwt>
<pdfrwt beam="2">  1       21 0.37911348E-02 0.30562931E+03</pdfrwt>
<totfact> 0.13231961E+05</totfact>
</mgrwt>
</event>
<event>
 8    1  0.9974463E-006  0.3568452E+03  0.7546771E-02  0.1059840E+00
         21   -1    0    0  504  503  0.00000000000E+00  0.00000000000E+00  0.21628333360E+03  0.21628333360E+03  0.00000000000E+00 0. -1.
         21   -1    0    0  503  504 -0.00000000000E+00 -0.00000000000E+00 -0.14718944659E+03  0.14718944659E+03  0.00000000000E+00 0. -1.
         25    2    1    2    0    0  0.77140623174E+02  0.21049860321E+02 -0.66357798515E+02  0.16255424257E+03  0.12500700776E+03 0.  0.
         25    2    1    2    0    0 -0.77140623174E+02 -0.21049860321E+02  0.13545168553E+03  0.20091853762E+03  0.12500930878E+03 0.  0.
          5    1    3    3  501    0 -0.33464926036E+02  0.12350983374E+02 -0.26043467597E+02  0.44416216288E+02  0.47000000000E+01 0.  1.
         -5    1    3    3    0  501  0.11060554921E+03  0.86988769470E+01 -0.40314330918E+02  0.11813802628E+03  0.47000000000E+01 0.  1.
          5    1    4    4  502    0  0.23233910984E+02  0.35442158001E+01 -0.69050409714E+01  0.24942848194E+02  0.47000000000E+01 0.  1.
         -5    1    4    4    0  502 -0.10037453416E+03 -0.24594076121E+02  0.14235672650E+03  0.17597568942E+03  0.47000000000E+01 0.  1.
<mgrwt>
<rscale>  0 0.35684520E+03</rscale>
<asrwt>0</asrwt>
<pdfrwt beam="1">  1       21 0.33274359E-01 0.35684520E+03</pdfrwt>
<pdfrwt beam="2">  1       21 0.22644530E-01 0.35684520E+03</pdfrwt>
<totfact> 0.15211249E+05</totfact>
</mgrwt>
</event>
<event>
 8    1  0.9974463E-006  0.4482101E+03  0.7546771E-02  0.1028257E+00
         21   -1    0    0  504  503  0.00000000000E+00  0.00000000000E+00  0.16961280312E+03  0.16961280312E+03  0.00000000000E+00 0. -1.
         21   -1    0    0  503  504 -0.00000000000E+00 -0.00000000000E+00 -0.29610432342E+03  0.29610432342E+03  0.00000000000E+00 0. -1.
         25    2    1    2    0    0  0.14445861230E+03  0.37641940652E+01  0.58442829058E+02  0.19980948537E+03  0.12500322537E+03 0.  0.
         25    2    1    2    0    0 -0.14445861230E+03 -0.37641940652E+01 -0.18493434936E+03  0.26590764117E+03  0.12499480083E+03 0.  0.
          5    1    3    3  501    0  0.42647179440E+02 -0.53984126822E+02  0.13639379980E+00  0.68957787567E+02  0.47000000000E+01 0.  1.
         -5    1    3    3    0  501  0.10181143286E+03  0.57748320887E+02  0.58306435258E+02  0.13085169780E+03  0.47000000000E+01 0.  1.
          5    1    4    4  502    0 -0.12036800554E+03  0.31481428952E+02 -0.18495536405E+03  0.22295765028E+03  0.47000000000E+01 0. -1.
         -5    1    4    4    0  502 -0.24090606757E+02 -0.35245623017E+02  0.21014692557E-01  0.42949990890E+02  0.47000000000E+01 0. -1.
<mgrwt>
<rscale>  0 0.44821015E+03</rscale>
<asrwt>0</asrwt>
<pdfrwt beam="1">  1       21 0.26094278E-01 0.44821015E+03</pdfrwt>
<pdfrwt beam="2">  1       21 0.45554511E-01 0.44821015E+03</pdfrwt>
<totfact> 0.59608281E+04</totfact>
</mgrwt>
</event>
<event>
 8    1  0.9974463E-006  0.2645487E+03  0.7546771E-02  0.1104441E+00
         21   -1    0    0  504  503  0.00000000000E+00  0.00000000000E+00  0.35590403084E+03  0.35590403084E+03  0.00000000000E+00 0. -1.
         21   -1    0    0  503  504 -0.00000000000E+00 -0.00000000000E+00 -0.49160719668E+02  0.49160719668E+02  0.00000000000E+00 0. -1.
         25    2    1    2    0    0  0.94324493235E+01 -0.13778731901E+02  0.21449039965E+03  0.24881674143E+03  0.12499925887E+03 0.  0.
         25    2    1    2    0    0 -0.94324493235E+01  0.13778731901E+02  0.92252911520E+02  0.15624800908E+03  0.12499606436E+03 0.  0.
          5    1    3    3  501    0  0.12415221224E+02 -0.60523546188E+02  0.18025972672E+03  0.19061190004E+03  0.47000000000E+01 0.  1.
         -5    1    3    3    0  501 -0.29827719004E+01  0.46744814288E+02  0.34230672930E+02  0.58204841381E+02  0.47000000000E+01 0.  1.
          5    1    4    4  502    0 -0.73347055150E+01  0.67063976834E+02  0.72608366390E+02  0.99224189407E+02  0.47000000000E+01 0.  1.
         -5    1    4    4    0  502 -0.20977438085E+01 -0.53285244934E+02  0.19644545130E+02  0.57023819673E+02  0.47000000000E+01 0.  1.
<mgrwt>
<rscale>  0 0.26454866E+03</rscale>
<asrwt>0</asrwt>
<pdfrwt beam="1">  1       21 0.54754465E-01 0.26454866E+03</pdfrwt>
<pdfrwt beam="2">  1       21 0.75631879E-02 0.26454866E+03</pdfrwt>
<totfact> 0.41002783E+05</totfact>
</mgrwt>
</event>
<event>
 8    1  0.9974463E-006  0.2772439E+03  0.7546771E-02  0.1097204E+00
         21   -1    0    0  504  503  0.00000000000E+00  0.00000000000E+00  0.44044297844E+03  0.44044297844E+03  0.00000000000E+00 0. -1.
         21   -1    0    0  503  504 -0.00000000000E+00 -0.00000000000E+00 -0.43628904407E+02  0.43628904407E+02  0.00000000000E+00 0. -1.
         25    2    1    2    0    0  0.14618710546E+02  0.50698505541E+02  0.24795980906E+03  0.28265433297E+03  0.12500143948E+03 0.  0.
         25    2    1    2    0    0 -0.14618710546E+02 -0.50698505541E+02  0.14885426497E+03  0.20141754988E+03  0.12500956778E+03 0.  0.
          5    1    3    3  501    0  0.58125426599E+02  0.67095295868E+02  0.15867857588E+03  0.18188272152E+03  0.47000000000E+01 0.  1.
         -5    1    3    3    0  501 -0.43506716053E+02 -0.16396790327E+02  0.89281233185E+02  0.10077161145E+03  0.47000000000E+01 0.  1.
          5    1    4    4  502    0 -0.25596731086E+02 -0.46110153766E+02  0.16925170868E+03  0.17734026563E+03  0.47000000000E+01 0. -1.
         -5    1    4    4    0  502  0.10978020540E+02 -0.45883517751E+01 -0.20397443709E+02  0.24077284249E+02  0.47000000000E+01 0. -1.
<mgrwt>
<rscale>  0 0.27724390E+03</rscale>
<asrwt>0</asrwt>
<pdfrwt beam="1">  1       21 0.67760455E-01 0.27724390E+03</pdfrwt>
<pdfrwt beam="2">  1       21 0.67121394E-02 0.27724390E+03</pdfrwt>
<totfact> 0.31697319E+05</totfact>
</mgrwt>
</event>
<event>
 8    1  0.9974463E-006  0.2612876E+03  0.7546771E-02  0.1106372E+00
         21   -1    0    0  504  503  0.00000000000E+00  0.00000000000E+00  0.12382558651E+03  0.12382558651E+03  0.00000000000E+00 0.  1.
         21   -1    0    0  503  504 -0.00000000000E+00 -0.00000000000E+00 -0.13783741145E+03  0.13783741145E+03  0.00000000000E+00 0.  1.
         25    2    1    2    0    0 -0.17028088922E+02  0.63973285158E+01 -0.40382687935E+02  0.13261950959E+03  0.12500516475E+03 0.  0.
         25    2    1    2    0    0  0.17028088922E+02 -0.63973285158E+01  0.26370862987E+02  0.12904348837E+03  0.12500367135E+03 0.  0.
          5    1    3    3  501    0 -0.37918539386E+02  0.38933584062E+02  0.22209216552E+02  0.58898038142E+02  0.47000000000E+01 0.  1.
         -5    1    3    3    0  501  0.20890450464E+02 -0.32536255546E+02 -0.62591904487E+02  0.73721471451E+02  0.47000000000E+01 0.  1.
          5    1    4    4  502    0 -0.61891860227E+01  0.12541207477E+02 -0.47207706403E+02  0.49459533484E+02  0.47000000000E+01 0.  1.
         -5    1    4    4    0  502  0.23217274945E+02 -0.18938535993E+02  0.73578569390E+02  0.79583954883E+02  0.47000000000E+01 0.  1.
<mgrwt>
<rscale>  0 0.26128757E+03</rscale>
<asrwt>0</asrwt>
<pdfrwt beam="1">  1       21 0.19050090E-01 0.26128757E+03</pdfrwt>
<pdfrwt beam="2">  1       21 0.21205756E-01 0.26128757E+03</pdfrwt>
<totfact> 0.51610167E+05</totfact>
</mgrwt>
</event>
<event>
 8    1  0.9974463E-006  0.3754971E+03  0.7546771E-02  0.1052611E+00
         21   -1    0    0  504  503  0.00000000000E+00  0.00000000000E+00  0.16205244477E+03  0.16205244477E+03  0.00000000000E+00 0.  1.
         21   -1    0    0  503  504 -0.00000000000E+00 -0.00000000000E+00 -0.21751924582E+03  0.21751924582E+03  0.00000000000E+00 0.  1.
         25    2    1    2    0    0 -0.57949684496E+02  0.23308096192E+02 -0.15448026059E+03  0.20830395863E+03  0.12499981995E+03 0.  0.
         25    2    1    2    0    0  0.57949684496E+02 -0.23308096192E+02  0.99013459539E+02  0.17126773196E+03  0.12501014982E+03 0.  0.
          5    1    3    3  501    0  0.52160269654E+01 -0.30494274968E+02 -0.10933961160E+03  0.11372927683E+03  0.47000000000E+01 0.  1.
         -5    1    3    3    0  501 -0.63165711461E+02  0.53802371160E+02 -0.45140648993E+02  0.94574681804E+02  0.47000000000E+01 0.  1.
          5    1    4    4  502    0  0.45572974753E+01 -0.44439005188E+02  0.10415180689E+03  0.11342523097E+03  0.47000000000E+01 0.  1.
         -5    1    4    4    0  502  0.53392387021E+02  0.21130908995E+02 -0.51383473503E+01  0.57842500985E+02  0.47000000000E+01 0.  1.
<mgrwt>
<rscale>  0 0.37549714E+03</rscale>
<asrwt>0</asrwt>
<pdfrwt beam="1">  1       21 0.24931145E-01 0.37549714E+03</pdfrwt>
<pdfrwt beam="2">  1       21 0.33464499E-01 0.37549714E+03</pdfrwt>
<totfact> 0.12445526E+05</totfact>
</mgrwt>
</event>
<event>
 8    1  0.9974463E-006  0.3558022E+03  0.7546771E-02  0.1060258E+00
         21   -1    0    0  504  503  0.00000000000E+00  0.00000000000E+00  0.42641344091E+03  0.42641344091E+03  0.00000000000E+00 0.  1.
         21   -1    0    0  503  504 -0.00000000000E+00 -0.00000000000E+00 -0.74220922945E+02  0.74220922945E+02  0.00000000000E+00 0.  1.
         25    2    1    2    0    0 -0.86604075419E+02  0.89816443106E+02  0.14612598788E+03  0.22922891392E+03  0.12500332520E+03 0.  0.
         25    2    1    2    0    0  0.86604075419E+02 -0.89816443106E+02  0.20606653008E+03  0.27140544993E+03  0.12502097465E+03 0.  0.
          5    1    3    3  501    0  0.12383753230E+02 -0.14676909228E+02 -0.50838180683E+01  0.20413334238E+02  0.47000000000E+01 0. -1.
         -5    1    3    3    0  501 -0.98987828649E+02  0.10449335233E+03  0.15120980595E+03  0.20881557968E+03  0.47000000000E+01 0. -1.
          5    1    4    4  502    0  0.35605818037E+02 -0.67529331034E+02  0.22792614849E+02  0.79809636759E+02  0.47000000000E+01 0.  1.
         -5    1    4    4    0  502  0.50998257382E+02 -0.22287112073E+02  0.18327391523E+03  0.19159581317E+03  0.47000000000E+01 0.  1.
<mgrwt>
<rscale>  0 0.35580219E+03</rscale>
<asrwt>0</asrwt>
<pdfrwt beam="1">  1       21 0.65602066E-01 0.35580219E+03</pdfrwt>
<pdfrwt beam="2">  1       21 0.11418604E-01 0.35580219E+03</pdfrwt>
<totfact> 0.13064577E+05</totfact>
</mgrwt>
</event>
<event>
 8    1  0.9974463E-006  0.3906288E+03  0.7546771E-02  0.1047074E+00
         21   -1    0    0  504  503  0.00000000000E+00  0.00000000000E+00  0.80694989261E+02  0.80694989261E+02  0.00000000000E+00 0. -1.
         21   -1    0    0  503  504 -0.00000000000E+00 -0.00000000000E+00 -0.47273957050E+03  0.47273957050E+03  0.00000000000E+00 0. -1.
         25    2    1    2    0    0 -0.10562752000E+03  0.18340728814E+01 -0.45000967010E+02  0.16973591929E+03  0.12499863383E+03 0.  0.
         25    2    1    2    0    0  0.10562752000E+03 -0.18340728814E+01 -0.34704361423E+03  0.38369864048E+03  0.12499935887E+03 0.  0.
          5    1    3    3  501    0 -0.19251793869E+00  0.17049294396E+02 -0.59546526617E+02  0.62117584746E+02  0.47000000000E+01 0.  1.
         -5    1    3    3    0  501 -0.10543500206E+03 -0.15215221515E+02  0.14545559607E+02  0.10761833454E+03  0.47000000000E+01 0.  1.
          5    1    4    4  502    0  0.32367232472E+02 -0.45461745150E+02 -0.24162913685E+03  0.24803454958E+03  0.47000000000E+01 0.  1.
         -5    1    4    4    0  502  0.73260287529E+02  0.43627672269E+02 -0.10541447738E+03  0.13566409089E+03  0.47000000000E+01 0.  1.
<mgrwt>
<rscale>  0 0.39062880E+03</rscale>
<asrwt>0</asrwt>
<pdfrwt beam="1">  1       21 0.12414614E-01 0.39062880E+03</pdfrwt>
<pdfrwt beam="2">  1       21 0.72729164E-01 0.39062880E+03</pdfrwt>
<totfact> 0.88438956E+04</totfact>
</mgrwt>
</event>
<event>
 8    1  0.9974463E-006  0.3354535E+03  0.7546771E-02  0.1068749E+00
         21   -1    0    0  504  503  0.00000000000E+00  0.00000000000E+00  0.81955648412E+02  0.81955648412E+02  0.00000000000E+00 0. -1.
         21   -1    0    0  503  504 -0.00000000000E+00 -0.00000000000E+00 -0.34326203726E+03  0.34326203726E+03  0.00000000000E+00 0. -1.
         25    2    1    2    0    0 -0.10770529561E+03 -0.57395087394E+01 -0.93196116090E+02  0.18959137949E+03  0.12500400978E+03 0.  0.
         25    2    1    2    0    0  0.10770529561E+03  0.57395087394E+01 -0.16811027276E+03  0.23562630618E+03  0.12500127877E+03 0.  0.
          5    1    3    3  501    0 -0.62407856838E+02 -0.38791589014E+02  0.77322654230E+01  0.74036517354E+02  0.47000000000E+01 0.  1.
         -5    1    3    3    0  501 -0.45297438768E+02  0.33052080275E+02 -0.10092838151E+03  0.11555486214E+03  0.47000000000E+01 0.  1.
          5    1    4    4  502    0  0.91016483208E+02  0.42405416584E+02 -0.16716096995E+03  0.19505665702E+03  0.47000000000E+01 0.  1.
         -5    1    4    4    0  502  0.16688812399E+02 -0.36665907845E+02 -0.94930280856E+00  0.40569649163E+02  0.47000000000E+01 0.  1.
<mgrwt>
<rscale>  0 0.33545350E+03</rscale>
<asrwt>0</asrwt>
<pdfrwt beam="1">  1       21 0.12608561E-01 0.33545350E+03</pdfrwt>
<pdfrwt beam="2">  1       21 0.52809545E-01 0.33545350E+03</pdfrwt>
<totfact> 0.17560623E+05</totfact>
</mgrwt>
</event>
<event>
 8    1  0.9974463E-006  0.3723995E+03  0.7546771E-02  0.1053779E+00
         21   -1    0    0  504  503  0.00000000000E+00  0.00000000000E+00  0.51132664260E+02  0.51132664260E+02  0.00000000000E+00 0.  1.
         21   -1    0    0  503  504 -0.00000000000E+00 -0.00000000000E+00 -0.67804697203E+03  0.67804697203E+03  0.00000000000E+00 0.  1.
         25    2    1    2    0    0 -0.13463053853E+03  0.10439643450E+02 -0.36920974255E+03  0.41252387749E+03  0.12500298975E+03 0.  0.
         25    2    1    2    0    0  0.13463053853E+03 -0.10439643450E+02 -0.25770456522E+03  0.31665575880E+03  0.12499943434E+03 0.  0.
          5    1    3    3  501    0 -0.79720620730E+02  0.55713404215E+02 -0.29012006814E+03  0.30602467991E+03  0.47000000000E+01 0. -1.
         -5    1    3    3    0  501 -0.54909917801E+02 -0.45273760765E+02 -0.79089674413E+02  0.10649919758E+03  0.47000000000E+01 0. -1.
          5    1    4    4  502    0  0.37020568275E+02 -0.44313449831E+02 -0.27180447013E+02  0.63992741863E+02  0.47000000000E+01 0.  1.
         -5    1    4    4    0  502  0.97609970256E+02  0.33873806381E+02 -0.23052411821E+03  0.25266301694E+03  0.47000000000E+01 0.  1.
<mgrwt>
<rscale>  0 0.37239951E+03</rscale>
<asrwt>0</asrwt>
<pdfrwt beam="1">  1       21 0.78665645E-02 0.37239951E+03</pdfrwt>
<pdfrwt beam="2">  1       21 0.10431491E+00 0.37239951E+03</pdfrwt>
<totfact> 0.86340126E+04</totfact>
</mgrwt>
</event>
<event>
 8    1  0.9974463E-006  0.3123889E+03  0.7546771E-02  0.1079206E+00
         21   -1    0    0  504  503  0.00000000000E+00  0.00000000000E+00  0.21706000258E+04  0.21706000258E+04  0.00000000000E+00 0.  1.
         21   -1    0    0  503  504 -0.00000000000E+00 -0.00000000000E+00 -0.11239614387E+02  0.11239614387E+02  0.00000000000E+00 0.  1.
         25    2    1    2    0    0  0.28222403274E+02 -0.81362660443E+02  0.13367162568E+04  0.13453072618E+04  0.12499956309E+03 0.  0.
         25    2    1    2    0    0 -0.28222403274E+02  0.81362660443E+02  0.82264415456E+03  0.83653237838E+03  0.12500651378E+03 0.  0.
          5    1    3    3  501    0  0.69356829768E+02 -0.30288659954E+02  0.95184802176E+03  0.95486361292E+03  0.47000000000E+01 0.  1.
         -5    1    3    3    0  501 -0.41134426495E+02 -0.51074000489E+02  0.38486823507E+03  0.39044364886E+03  0.47000000000E+01 0.  1.
          5    1    4    4  502    0  0.22223183495E+02 -0.44891110938E+01  0.45572009841E+03  0.45630792246E+03  0.47000000000E+01 0.  1.
         -5    1    4    4    0  502 -0.50445586769E+02  0.85851771537E+02  0.36692405616E+03  0.38022445593E+03  0.47000000000E+01 0.  1.
<mgrwt>
<rscale>  0 0.31238891E+03</rscale>
<asrwt>0</asrwt>
<pdfrwt beam="1">  1       21 0.33393813E+00 0.31238891E+03</pdfrwt>
<pdfrwt beam="2">  1       21 0.17291732E-02 0.31238891E+03</pdfrwt>
<totfact> 0.30756613E+04</totfact>
</mgrwt>
</event>
<event>
 8    1  0.9974463E-006  0.5069658E+03  0.7546771E-02  0.1011977E+00
         21   -1    0    0  504  503  0.00000000000E+00  0.00000000000E+00  0.15831022476E+03  0.15831022476E+03  0.00000000000E+00 0. -1.
         21   -1    0    0  503  504 -0.00000000000E+00 -0.00000000000E+00 -0.40587125878E+03  0.40587125878E+03  0.00000000000E+00 0. -1.
         25    2    1    2    0    0 -0.78082147595E+02 -0.20492984429E+03 -0.14953856335E+03  0.29339263415E+03  0.12499757194E+03 0.  0.
         25    2    1    2    0    0  0.78082147595E+02  0.20492984429E+03 -0.98022470668E+02  0.27078884939E+03  0.12500053337E+03 0.  0.
          5    1    3    3  501    0 -0.10885120387E+03 -0.14952767627E+03 -0.13261362628E+03  0.22763034602E+03  0.47000000000E+01 0. -1.
         -5    1    3    3    0  501  0.30769056271E+02 -0.55402168015E+02 -0.16924937065E+02  0.65762288123E+02  0.47000000000E+01 0. -1.
          5    1    4    4  502    0  0.50894228751E+02  0.92298980363E+02 -0.11214166060E+03  0.15397131661E+03  0.47000000000E+01 0.  1.
         -5    1    4    4    0  502  0.27187918844E+02  0.11263086393E+03  0.14119189934E+02  0.11681753278E+03  0.47000000000E+01 0.  1.
<mgrwt>
<rscale>  0 0.50696576E+03</rscale>
<asrwt>0</asrwt>
<pdfrwt beam="1">  1       21 0.24355419E-01 0.50696576E+03</pdfrwt>
<pdfrwt beam="2">  1       21 0.62441732E-01 0.50696576E+03</pdfrwt>
<totfact> 0.34163517E+04</totfact>
</mgrwt>
</event>
<event>
 8    1  0.9974463E-006  0.2820039E+03  0.7546771E-02  0.1094599E+00
         21   -1    0    0  504  503  0.00000000000E+00  0.00000000000E+00  0.42436865034E+02  0.42436865034E+02  0.00000000000E+00 0.  1.
         21   -1    0    0  503  504 -0.00000000000E+00 -0.00000000000E+00 -0.46849713759E+03  0.46849713759E+03  0.00000000000E+00 0.  1.
         25    2    1    2    0    0  0.33558710948E+01 -0.48286771026E+02 -0.29230401578E+03  0.32157265116E+03  0.12499783279E+03 0.  0.
         25    2    1    2    0    0 -0.33558710948E+01  0.48286771026E+02 -0.13375625677E+03  0.18936135147E+03  0.12499644426E+03 0.  0.
          5    1    3    3  501    0 -0.21956669204E+02 -0.77045876969E+01 -0.26546960669E+03  0.26652890663E+03  0.47000000000E+01 0. -1.
         -5    1    3    3    0  501  0.25312540298E+02 -0.40582183330E+02 -0.26834409094E+02  0.55043744527E+02  0.47000000000E+01 0. -1.
          5    1    4    4  502    0 -0.60535171064E+02  0.40283093364E+01 -0.51282249947E+02  0.79578221716E+02  0.47000000000E+01 0.  1.
         -5    1    4    4    0  502  0.57179299969E+02  0.44258461690E+02 -0.82474006828E+02  0.10978312975E+03  0.47000000000E+01 0.  1.
<mgrwt>
<rscale>  0 0.28200390E+03</rscale>
<asrwt>0</asrwt>
<pdfrwt beam="1">  1       21 0.65287483E-02 0.28200390E+03</pdfrwt>
<pdfrwt beam="2">  1       21 0.72076484E-01 0.28200390E+03</pdfrwt>
<totfact> 0.28958328E+05</totfact>
</mgrwt>
</event>
<event>
 8    1  0.9974463E-006  0.2607908E+03  0.7546771E-02  0.1106669E+00
         21   -1    0    0  504  503  0.00000000000E+00  0.00000000000E+00  0.15368097683E+03  0.15368097683E+03  0.00000000000E+00 0. -1.
         21   -1    0    0  503  504 -0.00000000000E+00 -0.00000000000E+00 -0.11063804584E+03  0.11063804584E+03  0.00000000000E+00 0. -1.
         25    2    1    2    0    0  0.25653861314E+02 -0.26244677189E+02  0.15822292047E+02  0.13123316996E+03  0.12499958516E+03 0.  0.
         25    2    1    2    0    0 -0.25653861314E+02  0.26244677189E+02  0.27220638940E+02  0.13308585271E+03  0.12499590924E+03 0.  0.
          5    1    3    3  501    0  0.17955420201E+02  0.44183281689E+02  0.32994139776E+02  0.58183010879E+02  0.47000000000E+01 0.  1.
         -5    1    3    3    0  501  0.76984411128E+01 -0.70427958878E+02 -0.17171847729E+02  0.73050159081E+02  0.47000000000E+01 0.  1.
          5    1    4    4  502    0  0.66393730969E+01  0.29649427197E+02  0.71584224516E+02  0.77907387376E+02  0.47000000000E+01 0.  1.
         -5    1    4    4    0  502 -0.32293234411E+02 -0.34047500075E+01 -0.44363585576E+02  0.55178465333E+02  0.47000000000E+01 0.  1.
<mgrwt>
<rscale>  0 0.26079082E+03</rscale>
<asrwt>0</asrwt>
<pdfrwt beam="1">  1       21 0.23643227E-01 0.26079082E+03</pdfrwt>
<pdfrwt beam="2">  1       21 0.17021238E-01 0.26079082E+03</pdfrwt>
<totfact> 0.51759102E+05</totfact>
</mgrwt>
</event>
<event>
 8    1  0.9974463E-006  0.2881359E+03  0.7546771E-02  0.1091326E+00
         21   -1    0    0  504  503  0.00000000000E+00  0.00000000000E+00  0.10825194612E+03  0.10825194612E+03  0.00000000000E+00 0.  1.
         21   -1    0    0  503  504 -0.00000000000E+00 -0.00000000000E+00 -0.19173394359E+03  0.19173394359E+03  0.00000000000E+00 0.  1.
         25    2    1    2    0    0 -0.38762648036E+02 -0.54942892969E+02 -0.16019605717E+02  0.14283973067E+03  0.12500118607E+03 0.  0.
         25    2    1    2    0    0  0.38762648036E+02  0.54942892969E+02 -0.67462391755E+02  0.15714615904E+03  0.12498990611E+03 0.  0.
          5    1    3    3  501    0  0.35185959275E+02  0.23821002747E+01  0.21893813408E+02  0.41775054726E+02  0.47000000000E+01 0. -1.
         -5    1    3    3    0  501 -0.73948607311E+02 -0.57324993244E+02 -0.37913419125E+02  0.10106467594E+03  0.47000000000E+01 0. -1.
          5    1    4    4  502    0  0.63210279510E+02  0.32193703479E+02  0.10818150515E+02  0.71910335558E+02  0.47000000000E+01 0. -1.
         -5    1    4    4    0  502 -0.24447631475E+02  0.22749189491E+02 -0.78280542271E+02  0.85235823486E+02  0.47000000000E+01 0. -1.
<mgrwt>
<rscale>  0 0.28813589E+03</rscale>
<asrwt>0</asrwt>
<pdfrwt beam="1">  1       21 0.16654146E-01 0.28813589E+03</pdfrwt>
<pdfrwt beam="2">  1       21 0.29497529E-01 0.28813589E+03</pdfrwt>
<totfact> 0.34938671E+05</totfact>
</mgrwt>
</event>
<event>
 8    1  0.9974463E-006  0.3252995E+03  0.7546771E-02  0.1073236E+00
         21   -1    0    0  504  503  0.00000000000E+00  0.00000000000E+00  0.38564458240E+03  0.38564458240E+03  0.00000000000E+00 0. -1.
         21   -1    0    0  503  504 -0.00000000000E+00 -0.00000000000E+00 -0.68599265646E+02  0.68599265646E+02  0.00000000000E+00 0. -1.
         25    2    1    2    0    0  0.19965140687E+02  0.87398140965E+02  0.23231816016E+03  0.27863331511E+03  0.12501101895E+03 0.  0.
         25    2    1    2    0    0 -0.19965140687E+02 -0.87398140965E+02  0.84727156595E+02  0.17561053294E+03  0.12499330513E+03 0.  0.
          5    1    3    3  501    0 -0.15369439233E+02  0.55005563378E+02  0.22212920498E+03  0.22940206052E+03  0.47000000000E+01 0.  1.
         -5    1    3    3    0  501  0.35334579920E+02  0.32392577587E+02  0.10188955183E+02  0.49231254591E+02  0.47000000000E+01 0.  1.
          5    1    4    4  502    0 -0.68616607255E+02 -0.29161700291E+02  0.24508936283E+02  0.78622016718E+02  0.47000000000E+01 0. -1.
         -5    1    4    4    0  502  0.48651466568E+02 -0.58236440674E+02  0.60218220313E+02  0.96988516223E+02  0.47000000000E+01 0. -1.
<mgrwt>
<rscale>  0 0.32529946E+03</rscale>
<asrwt>0</asrwt>
<pdfrwt beam="1">  1       21 0.59329934E-01 0.32529946E+03</pdfrwt>
<pdfrwt beam="2">  1       21 0.10553733E-01 0.32529946E+03</pdfrwt>
<totfact> 0.18891068E+05</totfact>
</mgrwt>
</event>
<event>
 8    1  0.9974463E-006  0.2635094E+03  0.7546771E-02  0.1105053E+00
         21   -1    0    0  504  503  0.00000000000E+00  0.00000000000E+00  0.48004600529E+03  0.48004600529E+03  0.00000000000E+00 0.  1.
         21   -1    0    0  503  504 -0.00000000000E+00 -0.00000000000E+00 -0.36161751990E+02  0.36161751990E+02  0.00000000000E+00 0.  1.
         25    2    1    2    0    0  0.26593111018E+02  0.28768132087E+01  0.15942680436E+03  0.20434726545E+03  0.12500171735E+03 0.  0.
         25    2    1    2    0    0 -0.26593111018E+02 -0.28768132087E+01  0.28445744894E+03  0.31186049183E+03  0.12500182598E+03 0.  0.
          5    1    3    3  501    0  0.62604562350E+02 -0.37755246121E+02  0.94889503335E+02  0.11987867900E+03  0.47000000000E+01 0. -1.
         -5    1    3    3    0  501 -0.36011451332E+02  0.40632059330E+02  0.64537301023E+02  0.84468586443E+02  0.47000000000E+01 0. -1.
          5    1    4    4  502    0 -0.51469447114E+02  0.27210552595E+02  0.59080113984E+02  0.83078685757E+02  0.47000000000E+01 0.  1.
         -5    1    4    4    0  502  0.24876336095E+02 -0.30087365804E+02  0.22537733495E+03  0.22878180607E+03  0.47000000000E+01 0.  1.
<mgrwt>
<rscale>  0 0.26350943E+03</rscale>
<asrwt>0</asrwt>
<pdfrwt beam="1">  1       21 0.73853227E-01 0.26350943E+03</pdfrwt>
<pdfrwt beam="2">  1       21 0.55633468E-02 0.26350943E+03</pdfrwt>
<totfact> 0.36283954E+05</totfact>
</mgrwt>
</event>
<event>
 8    1  0.9974463E-006  0.3028571E+03  0.7546771E-02  0.1083821E+00
         21   -1    0    0  504  503  0.00000000000E+00  0.00000000000E+00  0.17984371424E+04  0.17984371424E+04  0.00000000000E+00 0.  1.
         21   -1    0    0  503  504 -0.00000000000E+00 -0.00000000000E+00 -0.12750297105E+02  0.12750297105E+02  0.00000000000E+00 0.  1.
         25    2    1    2    0    0  0.61394191032E+02  0.58117778856E+02  0.81757029624E+03  0.83138042124E+03  0.12500117045E+03 0.  0.
         25    2    1    2    0    0 -0.61394191032E+02 -0.58117778856E+02  0.96811654909E+03  0.97980701830E+03  0.12500087031E+03 0.  0.
          5    1    3    3  501    0  0.22788646978E+02  0.65681033925E+02  0.18689909896E+03  0.19946599670E+03  0.47000000000E+01 0.  1.
         -5    1    3    3    0  501  0.38605544053E+02 -0.75632550688E+01  0.63067119728E+03  0.63191442454E+03  0.47000000000E+01 0.  1.
          5    1    4    4  502    0 -0.34798551204E+02 -0.40867981414E+02  0.92242639253E+03  0.92399873956E+03  0.47000000000E+01 0. -1.
         -5    1    4    4    0  502 -0.26595639828E+02 -0.17249797442E+02  0.45690156562E+02  0.55808278744E+02  0.47000000000E+01 0. -1.
<mgrwt>
<rscale>  0 0.30285711E+03</rscale>
<asrwt>0</asrwt>
<pdfrwt beam="1">  1       21 0.27668244E+00 0.30285711E+03</pdfrwt>
<pdfrwt beam="2">  1       21 0.19615856E-02 0.30285711E+03</pdfrwt>
<totfact> 0.54898962E+04</totfact>
</mgrwt>
</event>
<event>
 8    1  0.9974463E-006  0.2953652E+03  0.7546771E-02  0.1087581E+00
         21   -1    0    0  504  503  0.00000000000E+00  0.00000000000E+00  0.44056956754E+03  0.44056956754E+03  0.00000000000E+00 0. -1.
         21   -1    0    0  503  504 -0.00000000000E+00 -0.00000000000E+00 -0.49504445391E+02  0.49504445391E+02  0.00000000000E+00 0. -1.
         25    2    1    2    0    0  0.36929919594E+02  0.28381834092E+02  0.30067660387E+03  0.32894153872E+03  0.12500707303E+03 0.  0.
         25    2    1    2    0    0 -0.36929919594E+02 -0.28381834092E+02  0.90388518271E+02  0.16113247421E+03  0.12499697014E+03 0.  0.
          5    1    3    3  501    0  0.58526097862E+02  0.53507337043E+02  0.11194657226E+03  0.13726785599E+03  0.47000000000E+01 0. -1.
         -5    1    3    3    0  501 -0.21596178268E+02 -0.25125502951E+02  0.18873003162E+03  0.19167368272E+03  0.47000000000E+01 0. -1.
          5    1    4    4  502    0 -0.24547428276E+02 -0.33717788041E+02 -0.22310668388E+02  0.47532319418E+02  0.47000000000E+01 0.  1.
         -5    1    4    4    0  502 -0.12382491318E+02  0.53359539490E+01  0.11269918666E+03  0.11360015479E+03  0.47000000000E+01 0.  1.
<mgrwt>
<rscale>  0 0.29536521E+03</rscale>
<asrwt>0</asrwt>
<pdfrwt beam="1">  1       21 0.67779931E-01 0.29536521E+03</pdfrwt>
<pdfrwt beam="2">  1       21 0.76160688E-02 0.29536521E+03</pdfrwt>
<totfact> 0.25312216E+05</totfact>
</mgrwt>
</event>
<event>
 8    1  0.9974463E-006  0.2608063E+03  0.7546771E-02  0.1106660E+00
         21   -1    0    0  504  503  0.00000000000E+00  0.00000000000E+00  0.63467340112E+03  0.63467340112E+03  0.00000000000E+00 0.  1.
         21   -1    0    0  503  504 -0.00000000000E+00 -0.00000000000E+00 -0.26793286030E+02  0.26793286030E+02  0.00000000000E+00 0.  1.
         25    2    1    2    0    0  0.38733978037E+01  0.16280194642E+02  0.38805161888E+03  0.40803130592E+03  0.12500175895E+03 0.  0.
         25    2    1    2    0    0 -0.38733978037E+01 -0.16280194642E+02  0.21982849621E+03  0.25343538124E+03  0.12499950708E+03 0.  0.
          5    1    3    3  501    0 -0.42644820792E+02 -0.18231146055E+02  0.29253371129E+03  0.29622460679E+03  0.47000000000E+01 0.  1.
         -5    1    3    3    0  501  0.46518218596E+02  0.34511340697E+02  0.95517907596E+02  0.11180669913E+03  0.47000000000E+01 0.  1.
          5    1    4    4  502    0  0.11335443269E+02 -0.41177155461E+02  0.21972260201E+03  0.22388426081E+03  0.47000000000E+01 0.  1.
         -5    1    4    4    0  502 -0.15208841073E+02  0.24896960819E+02  0.10589419829E+00  0.29551120425E+02  0.47000000000E+01 0.  1.
<mgrwt>
<rscale>  0 0.26080633E+03</rscale>
<asrwt>0</asrwt>
<pdfrwt beam="1">  1       21 0.97642051E-01 0.26080633E+03</pdfrwt>
<pdfrwt beam="2">  1       21 0.41220445E-02 0.26080633E+03</pdfrwt>
<totfact> 0.31761357E+05</totfact>
</mgrwt>
</event>
<event>
 8    1  0.9974463E-006  0.3454066E+03  0.7546771E-02  0.1064516E+00
         21   -1    0    0  504  503  0.00000000000E+00  0.00000000000E+00  0.14556278690E+02  0.14556278690E+02  0.00000000000E+00 0. -1.
         21   -1    0    0  503  504 -0.00000000000E+00 -0.00000000000E+00 -0.20490417705E+04  0.20490417705E+04  0.00000000000E+00 0. -1.
         25    2    1    2    0    0  0.11698431539E+03  0.11346920415E+02 -0.11351582612E+04  0.11480495728E+04  0.12497784140E+03 0.  0.
         25    2    1    2    0    0 -0.11698431539E+03 -0.11346920415E+02 -0.89932723053E+03  0.91554847638E+03  0.12500184947E+03 0.  0.
          5    1    3    3  501    0 -0.39707633940E+01  0.21925387439E+02 -0.38880004432E+02  0.45058121587E+02  0.47000000000E+01 0.  1.
         -5    1    3    3    0  501  0.12095507878E+03 -0.10578467024E+02 -0.10962782568E+04  0.11029914512E+04  0.47000000000E+01 0.  1.
          5    1    4    4  502    0 -0.80203010720E+01 -0.33628189321E+01 -0.29531504966E+00  0.98899439550E+01  0.47000000000E+01 0. -1.
         -5    1    4    4    0  502 -0.10896401431E+03 -0.79841014830E+01 -0.89903191548E+03  0.90565853242E+03  0.47000000000E+01 0. -1.
<mgrwt>
<rscale>  0 0.34540656E+03</rscale>
<asrwt>0</asrwt>
<pdfrwt beam="1">  1       21 0.22394283E-02 0.34540656E+03</pdfrwt>
<pdfrwt beam="2">  1       21 0.31523708E+00 0.34540656E+03</pdfrwt>
<totfact> 0.25481684E+04</totfact>
</mgrwt>
</event>
<event>
 8    1  0.9974463E-006  0.2845969E+03  0.7546771E-02  0.1093204E+00
         21   -1    0    0  504  503  0.00000000000E+00  0.00000000000E+00  0.27163928217E+04  0.27163928217E+04  0.00000000000E+00 0. -1.
         21   -1    0    0  503  504 -0.00000000000E+00 -0.00000000000E+00 -0.74543175036E+01  0.74543175036E+01  0.00000000000E+00 0. -1.
         25    2    1    2    0    0  0.51618645309E+02 -0.39291368441E+02  0.15490721115E+04  0.15554604757E+04  0.12499835413E+03 0.  0.
         25    2    1    2    0    0 -0.51618645309E+02  0.39291368441E+02  0.11598663927E+04  0.11683866636E+04  0.12501620080E+03 0.  0.
          5    1    3    3  501    0  0.13731349719E+02  0.31704335902E+02  0.98927675754E+03  0.98989105860E+03  0.47000000000E+01 0.  1.
         -5    1    3    3    0  501  0.37887295590E+02 -0.70995704343E+02  0.55979535395E+03  0.56556941706E+03  0.47000000000E+01 0.  1.
          5    1    4    4  502    0 -0.38912042543E+02  0.73209075336E+02  0.45108629646E+03  0.45866616686E+03  0.47000000000E+01 0. -1.
         -5    1    4    4    0  502 -0.12706602767E+02 -0.33917706894E+02  0.70878009628E+03  0.70972049673E+03  0.47000000000E+01 0. -1.
<mgrwt>
<rscale>  0 0.28459694E+03</rscale>
<asrwt>0</asrwt>
<pdfrwt beam="1">  1       21 0.41790580E+00 0.28459694E+03</pdfrwt>
<pdfrwt beam="2">  1       21 0.11468202E-02 0.28459694E+03</pdfrwt>
<totfact> 0.18471457E+04</totfact>
</mgrwt>
</event>
<event>
 8    1  0.9974463E-006  0.3075736E+03  0.7546771E-02  0.1081515E+00
         21   -1    0    0  504  503  0.00000000000E+00  0.00000000000E+00  0.25330635609E+03  0.25330635609E+03  0.00000000000E+00 0.  1.
         21   -1    0    0  503  504 -0.00000000000E+00 -0.00000000000E+00 -0.93366696098E+02  0.93366696098E+02  0.00000000000E+00 0.  1.
         25    2    1    2    0    0  0.30687312735E+02 -0.72714826159E+02  0.12774030967E+03  0.19537539292E+03  0.12499920134E+03 0.  0.
         25    2    1    2    0    0 -0.30687312735E+02  0.72714826159E+02  0.32199350318E+02  0.15129765927E+03  0.12500010573E+03 0.  0.
          5    1    3    3  501    0  0.29272683029E+02  0.11117087028E+02  0.10311030554E+03  0.10786243417E+03  0.47000000000E+01 0.  1.
         -5    1    3    3    0  501  0.14146297065E+01 -0.83831913187E+02  0.24630004132E+02  0.87512958751E+02  0.47000000000E+01 0.  1.
          5    1    4    4  502    0 -0.75452668879E+02  0.40372437350E+02  0.41289189888E+02  0.95131099752E+02  0.47000000000E+01 0. -1.
         -5    1    4    4    0  502  0.44765356143E+02  0.32342388809E+02 -0.90898395704E+01  0.56166559516E+02  0.47000000000E+01 0. -1.
<mgrwt>
<rscale>  0 0.30757359E+03</rscale>
<asrwt>0</asrwt>
<pdfrwt beam="1">  1       21 0.38970208E-01 0.30757359E+03</pdfrwt>
<pdfrwt beam="2">  1       21 0.14364107E-01 0.30757359E+03</pdfrwt>
<totfact> 0.26208229E+05</totfact>
</mgrwt>
</event>
<event>
 8    1  0.9974463E-006  0.3618265E+03  0.7546771E-02  0.1057863E+00
         21   -1    0    0  504  503  0.00000000000E+00  0.00000000000E+00  0.21224577697E+03  0.21224577697E+03  0.00000000000E+00 0. -1.
         21   -1    0    0  503  504 -0.00000000000E+00 -0.00000000000E+00 -0.15420617874E+03  0.15420617874E+03  0.00000000000E+00 0. -1.
         25    2    1    2    0    0 -0.12565140728E+03  0.34701646096E+02  0.39763909058E+02  0.18492455296E+03  0.12499376558E+03 0.  0.
         25    2    1    2    0    0  0.12565140728E+03 -0.34701646096E+02  0.18275689172E+02  0.18152740274E+03  0.12500286693E+03 0.  0.
          5    1    3    3  501    0 -0.10848967310E+03  0.34898135253E+02 -0.25838704738E+02  0.11695134747E+03  0.47000000000E+01 0.  1.
         -5    1    3    3    0  501 -0.17161734180E+02 -0.19648915704E+00  0.65602613796E+02  0.67973205493E+02  0.47000000000E+01 0.  1.
          5    1    4    4  502    0 -0.23194948756E+02 -0.63027082772E+01  0.17185603317E+02  0.29919303816E+02  0.47000000000E+01 0. -1.
         -5    1    4    4    0  502  0.14884635603E+03 -0.28398937819E+02  0.10900858546E+01  0.15160809893E+03  0.47000000000E+01 0. -1.
<mgrwt>
<rscale>  0 0.36182653E+03</rscale>
<asrwt>0</asrwt>
<pdfrwt beam="1">  1       21 0.32653196E-01 0.36182653E+03</pdfrwt>
<pdfrwt beam="2">  1       21 0.23724027E-01 0.36182653E+03</pdfrwt>
<totfact> 0.14428270E+05</totfact>
</mgrwt>
</event>
<event>
 8    1  0.9974463E-006  0.3916473E+03  0.7546771E-02  0.1046711E+00
         21   -1    0    0  504  503  0.00000000000E+00  0.00000000000E+00  0.54664313931E+03  0.54664313931E+03  0.00000000000E+00 0.  1.
         21   -1    0    0  503  504 -0.00000000000E+00 -0.00000000000E+00 -0.70149774595E+02  0.70149774595E+02  0.00000000000E+00 0.  1.
         25    2    1    2    0    0 -0.10849605250E+03 -0.68413546172E+02  0.36292207937E+03  0.40471154293E+03  0.12500876203E+03 0.  0.
         25    2    1    2    0    0  0.10849605250E+03  0.68413546172E+02  0.11357128535E+03  0.21208137098E+03  0.12501305672E+03 0.  0.
          5    1    3    3  501    0  0.11989951662E+02 -0.51374087666E+02  0.15444693701E+03  0.16327584688E+03  0.47000000000E+01 0. -1.
         -5    1    3    3    0  501 -0.12048600417E+03 -0.17039458506E+02  0.20847514236E+03  0.24143569605E+03  0.47000000000E+01 0. -1.
          5    1    4    4  502    0  0.83022152575E+02  0.71798947361E+01  0.35612527555E+01  0.83540416732E+02  0.47000000000E+01 0.  1.
         -5    1    4    4    0  502  0.25473899929E+02  0.61233651436E+02  0.11001003260E+03  0.12854095424E+03  0.47000000000E+01 0.  1.
<mgrwt>
<rscale>  0 0.39164725E+03</rscale>
<asrwt>0</asrwt>
<pdfrwt beam="1">  1       21 0.84098942E-01 0.39164725E+03</pdfrwt>
<pdfrwt beam="2">  1       21 0.10792273E-01 0.39164725E+03</pdfrwt>
<totfact> 0.81688280E+04</totfact>
</mgrwt>
</event>
<event>
 8    1  0.9974463E-006  0.4160348E+03  0.7546771E-02  0.1038365E+00
         21   -1    0    0  504  503  0.00000000000E+00  0.00000000000E+00  0.17921269016E+03  0.17921269016E+03  0.00000000000E+00 0. -1.
         21   -1    0    0  503  504 -0.00000000000E+00 -0.00000000000E+00 -0.24145186493E+03  0.24145186493E+03  0.00000000000E+00 0. -1.
         25    2    1    2    0    0 -0.25542395668E+02  0.10774150252E+03  0.94306759903E+02  0.19177939240E+03  0.12499970017E+03 0.  0.
         25    2    1    2    0    0  0.25542395668E+02 -0.10774150252E+03 -0.15654593468E+03  0.22888516269E+03  0.12498456981E+03 0.  0.
          5    1    3    3  501    0 -0.19582231948E+02  0.15007037823E+02 -0.28317835349E+02  0.37850558663E+02  0.47000000000E+01 0.  1.
         -5    1    3    3    0  501 -0.59601637206E+01  0.92734464701E+02  0.12262459525E+03  0.15392883374E+03  0.47000000000E+01 0.  1.
          5    1    4    4  502    0 -0.19266729543E+01 -0.99131449365E+02 -0.37162346975E+02  0.10599002951E+03  0.47000000000E+01 0.  1.
         -5    1    4    4    0  502  0.27469068623E+02 -0.86100531583E+01 -0.11938358771E+03  0.12289513318E+03  0.47000000000E+01 0.  1.
<mgrwt>
<rscale>  0 0.41603480E+03</rscale>
<asrwt>0</asrwt>
<pdfrwt beam="1">  1       21 0.27571183E-01 0.41603480E+03</pdfrwt>
<pdfrwt beam="2">  1       21 0.37146441E-01 0.41603480E+03</pdfrwt>
<totfact> 0.82131278E+04</totfact>
</mgrwt>
</event>
<event>
 8    1  0.9974463E-006  0.2761371E+03  0.7546771E-02  0.1097818E+00
         21   -1    0    0  504  503  0.00000000000E+00  0.00000000000E+00  0.49015487466E+02  0.49015487466E+02  0.00000000000E+00 0.  1.
         21   -1    0    0  503  504 -0.00000000000E+00 -0.00000000000E+00 -0.38891643830E+03  0.38891643830E+03  0.00000000000E+00 0.  1.
         25    2    1    2    0    0  0.23087957806E+02 -0.28191845445E+01 -0.84594500223E+02  0.15271875074E+03  0.12500314301E+03 0.  0.
         25    2    1    2    0    0 -0.23087957806E+02  0.28191845445E+01 -0.25530645061E+03  0.28521317503E+03  0.12499667951E+03 0.  0.
          5    1    3    3  501    0 -0.10869066954E+02 -0.16445305496E+02 -0.10743570447E+03  0.10933025786E+03  0.47000000000E+01 0. -1.
         -5    1    3    3    0  501  0.33957024760E+02  0.13626120951E+02  0.22841204247E+02  0.43388492877E+02  0.47000000000E+01 0. -1.
          5    1    4    4  502    0  0.42104944480E+02  0.30206086522E+02 -0.14550133009E+03  0.15452495291E+03  0.47000000000E+01 0.  1.
         -5    1    4    4    0  502 -0.65192902286E+02 -0.27386901978E+02 -0.10980512052E+03  0.13068822212E+03  0.47000000000E+01 0.  1.
<mgrwt>
<rscale>  0 0.27613713E+03</rscale>
<asrwt>0</asrwt>
<pdfrwt beam="1">  1       21 0.75408447E-02 0.27613713E+03</pdfrwt>
<pdfrwt beam="2">  1       21 0.59833295E-01 0.27613713E+03</pdfrwt>
<totfact> 0.33985775E+05</totfact>
</mgrwt>
</event>
<event>
 8    1  0.9974463E-006  0.3128382E+03  0.7546771E-02  0.1078993E+00
         21   -1    0    0  504  503  0.00000000000E+00  0.00000000000E+00  0.22704025251E+04  0.22704025251E+04  0.00000000000E+00 0. -1.
         21   -1    0    0  503  504 -0.00000000000E+00 -0.00000000000E+00 -0.10776471155E+02  0.10776471155E+02  0.00000000000E+00 0. -1.
         25    2    1    2    0    0 -0.56533815164E+02 -0.33879574283E+02  0.64076009608E+03  0.65615725804E+03  0.12499979499E+03 0.  0.
         25    2    1    2    0    0  0.56533815164E+02  0.33879574283E+02  0.16188659578E+04  0.16250217382E+04  0.12499904924E+03 0.  0.
          5    1    3    3  501    0 -0.68706145972E+02 -0.28457255502E+02  0.63725800501E+03  0.64159972322E+03  0.47000000000E+01 0.  1.
         -5    1    3    3    0  501  0.12172330808E+02 -0.54223187817E+01  0.35020910660E+01  0.14557534822E+02  0.47000000000E+01 0.  1.
          5    1    4    4  502    0  0.17254366592E+02 -0.47512790247E+02  0.60200817655E+03  0.60414494373E+03  0.47000000000E+01 0.  1.
         -5    1    4    4    0  502  0.39279448572E+02  0.81392364530E+02  0.10168577813E+04  0.10208767945E+04  0.47000000000E+01 0.  1.
<mgrwt>
<rscale>  0 0.31283815E+03</rscale>
<asrwt>0</asrwt>
<pdfrwt beam="1">  1       21 0.34929232E+00 0.31283815E+03</pdfrwt>
<pdfrwt beam="2">  1       21 0.16579204E-02 0.31283815E+03</pdfrwt>
<totfact> 0.26635308E+04</totfact>
</mgrwt>
</event>
<event>
 8    1  0.9974463E-006  0.2745767E+03  0.7546771E-02  0.1098688E+00
         21   -1    0    0  504  503  0.00000000000E+00  0.00000000000E+00  0.23719448662E+03  0.23719448662E+03  0.00000000000E+00 0.  1.
         21   -1    0    0  503  504 -0.00000000000E+00 -0.00000000000E+00 -0.79462609065E+02  0.79462609065E+02  0.00000000000E+00 0.  1.
         25    2    1    2    0    0  0.11475215125E+02 -0.20332785095E+02  0.13855847104E+03  0.18806510346E+03  0.12499972212E+03 0.  0.
         25    2    1    2    0    0 -0.11475215125E+02  0.20332785095E+02  0.19173406516E+02  0.12859199222E+03  0.12499271273E+03 0.  0.
          5    1    3    3  501    0 -0.17532789155E+02 -0.54624537596E+02  0.12989975759E+03  0.14208193349E+03  0.47000000000E+01 0.  1.
         -5    1    3    3    0  501  0.29008004280E+02  0.34291752501E+02  0.86587134540E+01  0.45983169971E+02  0.47000000000E+01 0.  1.
          5    1    4    4  502    0 -0.37872650344E+02 -0.43055005972E+02  0.15895480828E+01  0.57555954048E+02  0.47000000000E+01 0.  1.
         -5    1    4    4    0  502  0.26397435219E+02  0.63387791067E+02  0.17583858433E+02  0.71036038176E+02  0.47000000000E+01 0.  1.
<mgrwt>
<rscale>  0 0.27457671E+03</rscale>
<asrwt>0</asrwt>
<pdfrwt beam="1">  1       21 0.36491459E-01 0.27457671E+03</pdfrwt>
<pdfrwt beam="2">  1       21 0.12225017E-01 0.27457671E+03</pdfrwt>
<totfact> 0.40402036E+05</totfact>
</mgrwt>
</event>
<event>
 8    1  0.9974463E-006  0.3266088E+03  0.7546771E-02  0.1072647E+00
         21   -1    0    0  504  503  0.00000000000E+00  0.00000000000E+00  0.11485787568E+04  0.11485787568E+04  0.00000000000E+00 0. -1.
         21   -1    0    0  503  504 -0.00000000000E+00 -0.00000000000E+00 -0.23218545652E+02  0.23218545652E+02  0.00000000000E+00 0. -1.
         25    2    1    2    0    0  0.18929280276E+02  0.10088705419E+03  0.64274283633E+03  0.66278235128E+03  0.12500230464E+03 0.  0.
         25    2    1    2    0    0 -0.18929280276E+02 -0.10088705419E+03  0.48261737487E+03  0.50901495122E+03  0.12506068401E+03 0.  0.
          5    1    3    3  501    0 -0.16946795797E+02  0.71278708698E+02  0.57951302614E+03  0.58414491838E+03  0.47000000000E+01 0. -1.
         -5    1    3    3    0  501  0.35876076074E+02  0.29608345491E+02  0.63229810186E+02  0.78637432901E+02  0.47000000000E+01 0. -1.
          5    1    4    4  502    0 -0.62787726911E+02 -0.65339099789E+02  0.18501108565E+03  0.20606476755E+03  0.47000000000E+01 0.  1.
         -5    1    4    4    0  502  0.43858446635E+02 -0.35547954400E+02  0.29760628921E+03  0.30295018366E+03  0.47000000000E+01 0.  1.
<mgrwt>
<rscale>  0 0.32660881E+03</rscale>
<asrwt>0</asrwt>
<pdfrwt beam="1">  1       21 0.17670438E+00 0.32660881E+03</pdfrwt>
<pdfrwt beam="2">  1       21 0.35720848E-02 0.32660881E+03</pdfrwt>
<totfact> 0.85586579E+04</totfact>
</mgrwt>
</event>
<event>
 8    1  0.9974463E-006  0.3479783E+03  0.7546771E-02  0.1063448E+00
         21   -1    0    0  504  503  0.00000000000E+00  0.00000000000E+00  0.69293106836E+03  0.69293106836E+03  0.00000000000E+00 0.  1.
         21   -1    0    0  503  504 -0.00000000000E+00 -0.00000000000E+00 -0.43687202207E+02  0.43687202207E+02  0.00000000000E+00 0.  1.
         25    2    1    2    0    0 -0.17865565971E+02  0.11954629282E+03  0.31185665430E+03  0.35705828334E+03  0.12500220118E+03 0.  0.
         25    2    1    2    0    0  0.17865565971E+02 -0.11954629282E+03  0.33738721186E+03  0.37955998723E+03  0.12500063442E+03 0.  0.
          5    1    3    3  501    0 -0.81810458537E+01  0.54431849768E+02  0.21474612995E+02  0.59270606406E+02  0.47000000000E+01 0. -1.
         -5    1    3    3    0  501 -0.96845201176E+01  0.65114443051E+02  0.29038204130E+03  0.29778767693E+03  0.47000000000E+01 0. -1.
          5    1    4    4  502    0  0.43448619654E+01 -0.12785439159E+03  0.17765506552E+03  0.21897268227E+03  0.47000000000E+01 0.  1.
         -5    1    4    4    0  502  0.13520704006E+02  0.83080987669E+01  0.15973214633E+03  0.16058730496E+03  0.47000000000E+01 0.  1.
<mgrwt>
<rscale>  0 0.34797827E+03</rscale>
<asrwt>0</asrwt>
<pdfrwt beam="1">  1       21 0.10660477E+00 0.34797827E+03</pdfrwt>
<pdfrwt beam="2">  1       21 0.67211085E-02 0.34797827E+03</pdfrwt>
<totfact> 0.10856616E+05</totfact>
</mgrwt>
</event>
<event>
 8    1  0.9974463E-006  0.2629063E+03  0.7546771E-02  0.1105410E+00
         21   -1    0    0  504  503  0.00000000000E+00  0.00000000000E+00  0.74011202669E+02  0.74011202669E+02  0.00000000000E+00 0.  1.
         21   -1    0    0  503  504 -0.00000000000E+00 -0.00000000000E+00 -0.23347714554E+03  0.23347714554E+03  0.00000000000E+00 0.  1.
         25    2    1    2    0    0 -0.28259043375E+02 -0.24171159014E+02 -0.98936727995E+02  0.16370162631E+03  0.12500771115E+03 0.  0.
         25    2    1    2    0    0  0.28259043375E+02  0.24171159014E+02 -0.60529214876E+02  0.14378672190E+03  0.12501206774E+03 0.  0.
          5    1    3    3  501    0  0.35071610112E+02 -0.48525774907E+02 -0.61941983047E+02  0.86276694014E+02  0.47000000000E+01 0. -1.
         -5    1    3    3    0  501 -0.63330653488E+02  0.24354615893E+02 -0.36994744948E+02  0.77424932291E+02  0.47000000000E+01 0. -1.
          5    1    4    4  502    0 -0.31620178108E+02  0.51139005168E+02 -0.10779058641E+02  0.61264276853E+02  0.47000000000E+01 0. -1.
         -5    1    4    4    0  502  0.59879221484E+02 -0.26967846154E+02 -0.49750156235E+02  0.82522445050E+02  0.47000000000E+01 0. -1.
<mgrwt>
<rscale>  0 0.26290625E+03</rscale>
<asrwt>0</asrwt>
<pdfrwt beam="1">  1       21 0.11386339E-01 0.26290625E+03</pdfrwt>
<pdfrwt beam="2">  1       21 0.35919561E-01 0.26290625E+03</pdfrwt>
<totfact> 0.47497749E+05</totfact>
</mgrwt>
</event>
<event>
 8    1  0.9974463E-006  0.6041207E+03  0.7546771E-02  0.9896894E-01
         21   -1    0    0  504  503  0.00000000000E+00  0.00000000000E+00  0.80408563326E+02  0.80408563326E+02  0.00000000000E+00 0.  1.
         21   -1    0    0  503  504 -0.00000000000E+00 -0.00000000000E+00 -0.11347105263E+04  0.11347105263E+04  0.00000000000E+00 0.  1.
         25    2    1    2    0    0 -0.16089619910E+03  0.80604027042E+02 -0.94542605050E+03  0.97048428699E+03  0.12499895312E+03 0.  0.
         25    2    1    2    0    0  0.16089619910E+03 -0.80604027042E+02 -0.10887591251E+03  0.24463480266E+03  0.12493048583E+03 0.  0.
          5    1    3    3  501    0 -0.13843153255E+03  0.37069237008E+02 -0.44239288489E+03  0.46504942978E+03  0.47000000000E+01 0.  1.
         -5    1    3    3    0  501 -0.22464666549E+02  0.43534790035E+02 -0.50303316560E+03  0.50543485721E+03  0.47000000000E+01 0.  1.
          5    1    4    4  502    0  0.82146394441E+02 -0.15562068408E+02  0.13872840948E+02  0.84880821206E+02  0.47000000000E+01 0.  1.
         -5    1    4    4    0  502  0.78749804658E+02 -0.65041958635E+02 -0.12274875345E+03  0.15975398146E+03  0.47000000000E+01 0.  1.
<mgrwt>
<rscale>  0 0.60412066E+03</rscale>
<asrwt>0</asrwt>
<pdfrwt beam="1">  1       21 0.12370548E-01 0.60412066E+03</pdfrwt>
<pdfrwt beam="2">  1       21 0.17457086E+00 0.60412066E+03</pdfrwt>
<totfact> 0.92382560E+03</totfact>
</mgrwt>
</event>
<event>
 8    1  0.9974463E-006  0.2760384E+03  0.7546771E-02  0.1097873E+00
         21   -1    0    0  504  503  0.00000000000E+00  0.00000000000E+00  0.76648007971E+03  0.76648007971E+03  0.00000000000E+00 0.  1.
         21   -1    0    0  503  504 -0.00000000000E+00 -0.00000000000E+00 -0.24852954465E+02  0.24852954465E+02  0.00000000000E+00 0.  1.
         25    2    1    2    0    0  0.36999619053E+02 -0.34255202843E+02  0.45594857889E+03  0.47545399029E+03  0.12499999825E+03 0.  0.
         25    2    1    2    0    0 -0.36999619053E+02  0.34255202843E+02  0.28567854636E+03  0.31587904388E+03  0.12499979114E+03 0.  0.
          5    1    3    3  501    0 -0.32109329695E+02  0.24565053182E+02  0.97250794951E+02  0.10542418133E+03  0.47000000000E+01 0. -1.
         -5    1    3    3    0  501  0.69108948748E+02 -0.58820256025E+02  0.35869778394E+03  0.37002980896E+03  0.47000000000E+01 0. -1.
          5    1    4    4  502    0  0.25051613281E+02 -0.14146297218E+02  0.12794626839E+02  0.31835413126E+02  0.47000000000E+01 0.  1.
         -5    1    4    4    0  502 -0.62051232334E+02  0.48401500060E+02  0.27288391952E+03  0.28404363076E+03  0.47000000000E+01 0.  1.
<mgrwt>
<rscale>  0 0.27603836E+03</rscale>
<asrwt>0</asrwt>
<pdfrwt beam="1">  1       21 0.11791999E+00 0.27603836E+03</pdfrwt>
<pdfrwt beam="2">  1       21 0.38235320E-02 0.27603836E+03</pdfrwt>
<totfact> 0.22696947E+05</totfact>
</mgrwt>
</event>
<event>
 8    1  0.9974463E-006  0.3207402E+03  0.7546771E-02  0.1075309E+00
         21   -1    0    0  504  503  0.00000000000E+00  0.00000000000E+00  0.34635292325E+03  0.34635292325E+03  0.00000000000E+00 0. -1.
         21   -1    0    0  503  504 -0.00000000000E+00 -0.00000000000E+00 -0.74255370377E+02  0.74255370377E+02  0.00000000000E+00 0. -1.
         25    2    1    2    0    0 -0.59230558419E+02  0.57741159016E+02  0.61282443798E+02  0.16193778813E+03  0.12500403518E+03 0.  0.
         25    2    1    2    0    0  0.59230558419E+02 -0.57741159016E+02  0.21081510907E+03  0.25867050550E+03  0.12500047882E+03 0.  0.
          5    1    3    3  501    0 -0.72886256018E+02 -0.10722834403E+02  0.54257857795E+02  0.91615449715E+02  0.47000000000E+01 0.  1.
         -5    1    3    3    0  501  0.13655697599E+02  0.68463993419E+02  0.70245860034E+01  0.70322338416E+02  0.47000000000E+01 0.  1.
          5    1    4    4  502    0  0.45845269714E+02 -0.59862284235E+02  0.36743107918E+02  0.84008498430E+02  0.47000000000E+01 0. -1.
         -5    1    4    4    0  502  0.13385288705E+02  0.21211252193E+01  0.17407200116E+03  0.17466200707E+03  0.47000000000E+01 0. -1.
<mgrwt>
<rscale>  0 0.32074017E+03</rscale>
<asrwt>0</asrwt>
<pdfrwt beam="1">  1       21 0.53285064E-01 0.32074017E+03</pdfrwt>
<pdfrwt beam="2">  1       21 0.11423903E-01 0.32074017E+03</pdfrwt>
<totfact> 0.20662040E+05</totfact>
</mgrwt>
</event>
<event>
 8    1  0.9974463E-006  0.3501705E+03  0.7546771E-02  0.1062545E+00
         21   -1    0    0  504  503  0.00000000000E+00  0.00000000000E+00  0.14615268044E+03  0.14615268044E+03  0.00000000000E+00 0.  1.
         21   -1    0    0  503  504 -0.00000000000E+00 -0.00000000000E+00 -0.20974532587E+03  0.20974532587E+03  0.00000000000E+00 0.  1.
         25    2    1    2    0    0  0.20120530406E+02 -0.12043783274E+03 -0.20701949096E+02  0.17596465277E+03  0.12499952412E+03 0.  0.
         25    2    1    2    0    0 -0.20120530406E+02  0.12043783274E+03 -0.42890696334E+02  0.17993335354E+03  0.12500517023E+03 0.  0.
          5    1    3    3  501    0 -0.34027162398E+02 -0.32471612110E+02 -0.49683860037E+02  0.68577177852E+02  0.47000000000E+01 0.  1.
         -5    1    3    3    0  501  0.54147692804E+02 -0.87966220628E+02  0.28981910941E+02  0.10738747492E+03  0.47000000000E+01 0.  1.
          5    1    4    4  502    0  0.41803352645E+01  0.12939026523E+03  0.79182918841E-01  0.12954309017E+03  0.47000000000E+01 0. -1.
         -5    1    4    4    0  502 -0.24300865671E+02 -0.89524324935E+01 -0.42969879253E+02  0.50390263374E+02  0.47000000000E+01 0. -1.
<mgrwt>
<rscale>  0 0.35017048E+03</rscale>
<asrwt>0</asrwt>
<pdfrwt beam="1">  1       21 0.22485028E-01 0.35017048E+03</pdfrwt>
<pdfrwt beam="2">  1       21 0.32268512E-01 0.35017048E+03</pdfrwt>
<totfact> 0.16415949E+05</totfact>
</mgrwt>
</event>
<event>
 8    1  0.9974463E-006  0.2783086E+03  0.7546771E-02  0.1096616E+00
         21   -1    0    0  504  503  0.00000000000E+00  0.00000000000E+00  0.23415652818E+03  0.23415652818E+03  0.00000000000E+00 0. -1.
         21   -1    0    0  503  504 -0.00000000000E+00 -0.00000000000E+00 -0.82696469296E+02  0.82696469296E+02  0.00000000000E+00 0. -1.
         25    2    1    2    0    0  0.44372493948E+02 -0.26244187144E+02  0.38304915313E+02  0.14053598348E+03  0.12500168214E+03 0.  0.
         25    2    1    2    0    0 -0.44372493948E+02  0.26244187144E+02  0.11315514357E+03  0.17631701399E+03  0.12500370926E+03 0.  0.
          5    1    3    3  501    0  0.34549710763E+02 -0.41917868899E+02  0.78767835870E+02  0.95797976046E+02  0.47000000000E+01 0.  1.
         -5    1    3    3    0  501  0.98227831848E+01  0.15673681756E+02 -0.40462920557E+02  0.44738007435E+02  0.47000000000E+01 0.  1.
          5    1    4    4  502    0  0.14612533439E+02 -0.63167698965E+01  0.10724258710E+03  0.10851953835E+03  0.47000000000E+01 0.  1.
         -5    1    4    4    0  502 -0.58985027387E+02  0.32560957040E+02  0.59125564642E+01  0.67797475640E+02  0.47000000000E+01 0.  1.
<mgrwt>
<rscale>  0 0.27830859E+03</rscale>
<asrwt>0</asrwt>
<pdfrwt beam="1">  1       21 0.36024081E-01 0.27830859E+03</pdfrwt>
<pdfrwt beam="2">  1       21 0.12722534E-01 0.27830859E+03</pdfrwt>
<totfact> 0.38550114E+05</totfact>
</mgrwt>
</event>
<event>
 8    1  0.9974463E-006  0.3527137E+03  0.7546771E-02  0.1061507E+00
         21   -1    0    0  504  503  0.00000000000E+00  0.00000000000E+00  0.14488967612E+03  0.14488967612E+03  0.00000000000E+00 0.  1.
         21   -1    0    0  503  504 -0.00000000000E+00 -0.00000000000E+00 -0.21465813034E+03  0.21465813034E+03  0.00000000000E+00 0.  1.
         25    2    1    2    0    0 -0.35620953375E+02 -0.79167493106E+02  0.55937579641E+02  0.16213941021E+03  0.12499532488E+03 0.  0.
         25    2    1    2    0    0  0.35620953375E+02  0.79167493106E+02 -0.12570603386E+03  0.19740839626E+03  0.12502689182E+03 0.  0.
          5    1    3    3  501    0 -0.43059439236E+02  0.34851049544E+01  0.65359963817E+02  0.78487426598E+02  0.47000000000E+01 0.  1.
         -5    1    3    3    0  501  0.74384858607E+01 -0.82652598060E+02 -0.94223841756E+01  0.83651983608E+02  0.47000000000E+01 0.  1.
          5    1    4    4  502    0  0.16779325868E+02  0.68379841598E+02 -0.82805464846E+00  0.70569994956E+02  0.47000000000E+01 0.  1.
         -5    1    4    4    0  502  0.18841627507E+02  0.10787651508E+02 -0.12487797921E+03  0.12683840130E+03  0.47000000000E+01 0.  1.
<mgrwt>
<rscale>  0 0.35271375E+03</rscale>
<asrwt>0</asrwt>
<pdfrwt beam="1">  1       21 0.22290719E-01 0.35271375E+03</pdfrwt>
<pdfrwt beam="2">  1       21 0.33024328E-01 0.35271375E+03</pdfrwt>
<totfact> 0.15928858E+05</totfact>
</mgrwt>
</event>
<event>
 8    1  0.9974463E-006  0.2558347E+03  0.7546771E-02  0.1109672E+00
         21   -1    0    0  504  503  0.00000000000E+00  0.00000000000E+00  0.70312162758E+03  0.70312162758E+03  0.00000000000E+00 0.  1.
         21   -1    0    0  503  504 -0.00000000000E+00 -0.00000000000E+00 -0.23271710828E+02  0.23271710828E+02  0.00000000000E+00 0.  1.
         25    2    1    2    0    0  0.74570853724E+00  0.24238762495E+02  0.30539739088E+03  0.33087919718E+03  0.12500161231E+03 0.  0.
         25    2    1    2    0    0 -0.74570853724E+00 -0.24238762495E+02  0.37445252587E+03  0.39551414123E+03  0.12501467150E+03 0.  0.
          5    1    3    3  501    0 -0.55235472327E+02 -0.16478144858E+02  0.13177182578E+03  0.14390410255E+03  0.47000000000E+01 0.  1.
         -5    1    3    3    0  501  0.55981180864E+02  0.40716907353E+02  0.17362556510E+03  0.18697509463E+03  0.47000000000E+01 0.  1.
          5    1    4    4  502    0 -0.80403311150E+01 -0.73984433463E+02  0.25856380805E+03  0.26910160935E+03  0.47000000000E+01 0. -1.
         -5    1    4    4    0  502  0.72946225777E+01  0.49745670967E+02  0.11588871782E+03  0.12641253188E+03  0.47000000000E+01 0. -1.
<mgrwt>
<rscale>  0 0.25583466E+03</rscale>
<asrwt>0</asrwt>
<pdfrwt beam="1">  1       21 0.10817254E+00 0.25583466E+03</pdfrwt>
<pdfrwt beam="2">  1       21 0.35802637E-02 0.25583466E+03</pdfrwt>
<totfact> 0.31500250E+05</totfact>
</mgrwt>
</event>
<event>
 8    1  0.9974463E-006  0.2630451E+03  0.7546771E-02  0.1105327E+00
         21   -1    0    0  504  503  0.00000000000E+00  0.00000000000E+00  0.13062607495E+03  0.13062607495E+03  0.00000000000E+00 0. -1.
         21   -1    0    0  503  504 -0.00000000000E+00 -0.00000000000E+00 -0.13242517167E+03  0.13242517167E+03  0.00000000000E+00 0. -1.
         25    2    1    2    0    0  0.63600185865E+01 -0.12661509744E+02  0.37476936068E+02  0.13126518766E+03  0.12500106035E+03 0.  0.
         25    2    1    2    0    0 -0.63600185865E+01  0.12661509744E+02 -0.39276032791E+02  0.13178605896E+03  0.12499677963E+03 0.  0.
          5    1    3    3  501    0  0.36347233673E+02 -0.37423464308E+02 -0.24594067361E+02  0.57867047841E+02  0.47000000000E+01 0.  1.
         -5    1    3    3    0  501 -0.29987215087E+02  0.24761954565E+02  0.62071003428E+02  0.73398139821E+02  0.47000000000E+01 0.  1.
          5    1    4    4  502    0 -0.71302481592E+01  0.68953393700E+01  0.45436790712E+02  0.46743749251E+02  0.47000000000E+01 0.  1.
         -5    1    4    4    0  502  0.77022957271E+00  0.57661703737E+01 -0.84712823502E+02  0.85042309706E+02  0.47000000000E+01 0.  1.
<mgrwt>
<rscale>  0 0.26304509E+03</rscale>
<asrwt>0</asrwt>
<pdfrwt beam="1">  1       21 0.20096319E-01 0.26304509E+03</pdfrwt>
<pdfrwt beam="2">  1       21 0.20373103E-01 0.26304509E+03</pdfrwt>
<totfact> 0.50333666E+05</totfact>
</mgrwt>
</event>
<event>
 8    1  0.9974463E-006  0.8650935E+03  0.7546771E-02  0.9470300E-01
         21   -1    0    0  504  503  0.00000000000E+00  0.00000000000E+00  0.22825223229E+03  0.22825223229E+03  0.00000000000E+00 0.  1.
         21   -1    0    0  503  504 -0.00000000000E+00 -0.00000000000E+00 -0.81969272616E+03  0.81969272616E+03  0.00000000000E+00 0.  1.
         25    2    1    2    0    0 -0.95869511442E+02 -0.16361012080E+03  0.15020880322E+03  0.27229796538E+03  0.12499705011E+03 0.  0.
         25    2    1    2    0    0  0.95869511442E+02  0.16361012080E+03 -0.74164929709E+03  0.77564699306E+03  0.12500137246E+03 0.  0.
          5    1    3    3  501    0 -0.14972168805E+00 -0.12267705936E+03  0.86035935184E+02  0.14991315970E+03  0.47000000000E+01 0.  1.
         -5    1    3    3    0  501 -0.95719789754E+02 -0.40933061442E+02  0.64172868034E+02  0.12238480568E+03  0.47000000000E+01 0.  1.
          5    1    4    4  502    0 -0.10832352762E+02  0.10417892859E+03 -0.35051625681E+03  0.36586107379E+03  0.47000000000E+01 0.  1.
         -5    1    4    4    0  502  0.10670186420E+03  0.59431192214E+02 -0.39113304029E+03  0.40978591927E+03  0.47000000000E+01 0.  1.
<mgrwt>
<rscale>  0 0.86509351E+03</rscale>
<asrwt>0</asrwt>
<pdfrwt beam="1">  1       21 0.35115729E-01 0.86509351E+03</pdfrwt>
<pdfrwt beam="2">  1       21 0.12610657E+00 0.86509351E+03</pdfrwt>
<totfact> 0.28488162E+03</totfact>
</mgrwt>
</event>
<event>
 8    1  0.9974463E-006  0.3085959E+03  0.7546771E-02  0.1081021E+00
         21   -1    0    0  504  503  0.00000000000E+00  0.00000000000E+00  0.37215360935E+03  0.37215360935E+03  0.00000000000E+00 0.  1.
         21   -1    0    0  503  504 -0.00000000000E+00 -0.00000000000E+00 -0.63973186092E+02  0.63973186092E+02  0.00000000000E+00 0.  1.
         25    2    1    2    0    0  0.57249761421E+02 -0.56829441302E+02  0.96224377254E+02  0.17717332049E+03  0.12499653649E+03 0.  0.
         25    2    1    2    0    0 -0.57249761421E+02  0.56829441302E+02  0.21195604600E+03  0.25895347495E+03  0.12499766466E+03 0.  0.
          5    1    3    3  501    0 -0.18526288321E+02 -0.23965046934E+02 -0.18445624007E+02  0.35775380900E+02  0.47000000000E+01 0. -1.
         -5    1    3    3    0  501  0.75776049742E+02 -0.32864394368E+02  0.11467000126E+03  0.14139793959E+03  0.47000000000E+01 0. -1.
          5    1    4    4  502    0 -0.20829454796E+02 -0.39881768306E+02  0.60629090110E+02  0.75646534605E+02  0.47000000000E+01 0.  1.
         -5    1    4    4    0  502 -0.36420306625E+02  0.96711209608E+02  0.15132695589E+03  0.18330694035E+03  0.47000000000E+01 0.  1.
<mgrwt>
<rscale>  0 0.30859587E+03</rscale>
<asrwt>0</asrwt>
<pdfrwt beam="1">  1       21 0.57254400E-01 0.30859587E+03</pdfrwt>
<pdfrwt beam="2">  1       21 0.98420289E-02 0.30859587E+03</pdfrwt>
<totfact> 0.23200522E+05</totfact>
</mgrwt>
</event>
<event>
 8    1  0.9974463E-006  0.4188782E+03  0.7546771E-02  0.1037432E+00
         21   -1    0    0  504  503  0.00000000000E+00  0.00000000000E+00  0.26418155987E+03  0.26418155987E+03  0.00000000000E+00 0. -1.
         21   -1    0    0  503  504 -0.00000000000E+00 -0.00000000000E+00 -0.16604009657E+03  0.16604009657E+03  0.00000000000E+00 0. -1.
         25    2    1    2    0    0  0.10801113453E+03 -0.12217860420E+03  0.90777149022E+02  0.22462591738E+03  0.12498918140E+03 0.  0.
         25    2    1    2    0    0 -0.10801113453E+03  0.12217860420E+03  0.73643142772E+01  0.20559573906E+03  0.12498543231E+03 0.  0.
          5    1    3    3  501    0  0.13278355683E+03 -0.92574339391E+02  0.90968733348E+02  0.18573874589E+03  0.47000000000E+01 0.  1.
         -5    1    3    3    0  501 -0.24772422302E+02 -0.29604264808E+02 -0.19158432575E+00  0.38887171485E+02  0.47000000000E+01 0.  1.
          5    1    4    4  502    0 -0.12058861669E+03  0.57932516868E+02 -0.18324253495E+02  0.13511350507E+03  0.47000000000E+01 0. -1.
         -5    1    4    4    0  502  0.12577482159E+02  0.64246087331E+02  0.25688567772E+02  0.70482233995E+02  0.47000000000E+01 0. -1.
<mgrwt>
<rscale>  0 0.41887818E+03</rscale>
<asrwt>0</asrwt>
<pdfrwt beam="1">  1       21 0.40643317E-01 0.41887818E+03</pdfrwt>
<pdfrwt beam="2">  1       21 0.25544630E-01 0.41887818E+03</pdfrwt>
<totfact> 0.79259778E+04</totfact>
</mgrwt>
</event>
<event>
 8    1  0.9974463E-006  0.3810930E+03  0.7546771E-02  0.1050531E+00
         21   -1    0    0  504  503  0.00000000000E+00  0.00000000000E+00  0.56351708542E+03  0.56351708542E+03  0.00000000000E+00 0.  1.
         21   -1    0    0  503  504 -0.00000000000E+00 -0.00000000000E+00 -0.64430986009E+02  0.64430986009E+02  0.00000000000E+00 0.  1.
         25    2    1    2    0    0 -0.23466600264E+02 -0.55861559418E+02  0.46446420777E+03  0.48479230279E+03  0.12500152556E+03 0.  0.
         25    2    1    2    0    0  0.23466600264E+02  0.55861559418E+02  0.34621891633E+02  0.14315576864E+03  0.12499481415E+03 0.  0.
          5    1    3    3  501    0  0.41546388288E+02 -0.24264760847E+02  0.31513553655E+03  0.31882185840E+03  0.47000000000E+01 0. -1.
         -5    1    3    3    0  501 -0.65012988552E+02 -0.31596798570E+02  0.14932867123E+03  0.16597044439E+03  0.47000000000E+01 0. -1.
          5    1    4    4  502    0  0.56409929853E+02 -0.31313149909E-01 -0.18095159653E+02  0.59427316694E+02  0.47000000000E+01 0.  1.
         -5    1    4    4    0  502 -0.32943329589E+02  0.55892872568E+02  0.52717051287E+02  0.83728451942E+02  0.47000000000E+01 0.  1.
<mgrwt>
<rscale>  0 0.38109296E+03</rscale>
<asrwt>0</asrwt>
<pdfrwt beam="1">  1       21 0.86694933E-01 0.38109296E+03</pdfrwt>
<pdfrwt beam="2">  1       21 0.99124598E-02 0.38109296E+03</pdfrwt>
<totfact> 0.88882583E+04</totfact>
</mgrwt>
</event>
<event>
 8    1  0.9974463E-006  0.2942110E+03  0.7546771E-02  0.1088171E+00
         21   -1    0    0  504  503  0.00000000000E+00  0.00000000000E+00  0.50838235641E+02  0.50838235641E+02  0.00000000000E+00 0.  1.
         21   -1    0    0  503  504 -0.00000000000E+00 -0.00000000000E+00 -0.42566434152E+03  0.42566434152E+03  0.00000000000E+00 0.  1.
         25    2    1    2    0    0  0.28245227833E+02 -0.71999579676E+02 -0.19678429116E+03  0.24562187734E+03  0.12499726801E+03 0.  0.
         25    2    1    2    0    0 -0.28245227833E+02  0.71999579676E+02 -0.17804181472E+03  0.23088069983E+03  0.12500110957E+03 0.  0.
          5    1    3    3  501    0 -0.23848415796E+02  0.67997097158E+01 -0.12328334548E+03  0.12584059862E+03  0.47000000000E+01 0. -1.
         -5    1    3    3    0  501  0.52093643629E+02 -0.78799289392E+02 -0.73500945683E+02  0.11978127872E+03  0.47000000000E+01 0. -1.
          5    1    4    4  502    0 -0.33113209384E+02  0.10493998395E+03 -0.15487331102E+03  0.19004398789E+03  0.47000000000E+01 0. -1.
         -5    1    4    4    0  502  0.48679815510E+01 -0.32940404273E+02 -0.23168503699E+02  0.40836711936E+02  0.47000000000E+01 0. -1.
<mgrwt>
<rscale>  0 0.29421097E+03</rscale>
<asrwt>0</asrwt>
<pdfrwt beam="1">  1       21 0.78212672E-02 0.29421097E+03</pdfrwt>
<pdfrwt beam="2">  1       21 0.65486820E-01 0.29421097E+03</pdfrwt>
<totfact> 0.26074839E+05</totfact>
</mgrwt>
</event>
<event>
 8    1  0.9974463E-006  0.4545121E+03  0.7546771E-02  0.1026385E+00
         21   -1    0    0  504  503  0.00000000000E+00  0.00000000000E+00  0.35542624675E+02  0.35542624675E+02  0.00000000000E+00 0.  1.
         21   -1    0    0  503  504 -0.00000000000E+00 -0.00000000000E+00 -0.14530527759E+04  0.14530527759E+04  0.00000000000E+00 0.  1.
         25    2    1    2    0    0  0.11239105498E+03 -0.14112835769E+03 -0.90174246749E+03  0.92806972563E+03  0.12499990152E+03 0.  0.
         25    2    1    2    0    0 -0.11239105498E+03  0.14112835769E+03 -0.51576768377E+03  0.56052567498E+03  0.12499506432E+03 0.  0.
          5    1    3    3  501    0  0.47460916234E+02 -0.42956123287E+02 -0.61112840733E+03  0.61448985943E+03  0.47000000000E+01 0.  1.
         -5    1    3    3    0  501  0.64930138744E+02 -0.98172234401E+02 -0.29061406016E+03  0.31357986620E+03  0.47000000000E+01 0.  1.
          5    1    4    4  502    0 -0.97511686690E+02  0.36182071366E+02 -0.17506718343E+03  0.20368672034E+03  0.47000000000E+01 0.  1.
         -5    1    4    4    0  502 -0.14879368289E+02  0.10494628632E+03 -0.34070050034E+03  0.35683895464E+03  0.47000000000E+01 0.  1.
<mgrwt>
<rscale>  0 0.45451209E+03</rscale>
<asrwt>0</asrwt>
<pdfrwt beam="1">  1       21 0.54680965E-02 0.45451209E+03</pdfrwt>
<pdfrwt beam="2">  1       21 0.22354656E+00 0.45451209E+03</pdfrwt>
<totfact> 0.19307809E+04</totfact>
</mgrwt>
</event>
<event>
 8    1  0.9974463E-006  0.2842852E+03  0.7546771E-02  0.1093371E+00
         21   -1    0    0  504  503  0.00000000000E+00  0.00000000000E+00  0.27388754572E+02  0.27388754572E+02  0.00000000000E+00 0.  1.
         21   -1    0    0  503  504 -0.00000000000E+00 -0.00000000000E+00 -0.73769414638E+03  0.73769414638E+03  0.00000000000E+00 0.  1.
         25    2    1    2    0    0  0.56926901203E+02 -0.19400454615E+02 -0.43873522297E+03  0.46013502258E+03  0.12497437100E+03 0.  0.
         25    2    1    2    0    0 -0.56926901203E+02  0.19400454615E+02 -0.27157016884E+03  0.30494787837E+03  0.12500320877E+03 0.  0.
          5    1    3    3  501    0 -0.18768019196E+02  0.35100703745E+02 -0.19593959408E+03  0.19999678116E+03  0.47000000000E+01 0. -1.
         -5    1    3    3    0  501  0.75694920398E+02 -0.54501158360E+02 -0.24279562889E+03  0.26013824141E+03  0.47000000000E+01 0. -1.
          5    1    4    4  502    0  0.41724560846E+01  0.61740908766E+02 -0.97032539417E+02  0.11518139134E+03  0.47000000000E+01 0. -1.
         -5    1    4    4    0  502 -0.61099357287E+02 -0.42340454150E+02 -0.17453762942E+03  0.18976648704E+03  0.47000000000E+01 0. -1.
<mgrwt>
<rscale>  0 0.28428524E+03</rscale>
<asrwt>0</asrwt>
<pdfrwt beam="1">  1       21 0.42136551E-02 0.28428524E+03</pdfrwt>
<pdfrwt beam="2">  1       21 0.11349139E+00 0.28428524E+03</pdfrwt>
<totfact> 0.21122442E+05</totfact>
</mgrwt>
</event>
<event>
 8    1  0.9974463E-006  0.2953015E+03  0.7546771E-02  0.1087613E+00
         21   -1    0    0  504  503  0.00000000000E+00  0.00000000000E+00  0.11689883990E+02  0.11689883990E+02  0.00000000000E+00 0. -1.
         21   -1    0    0  503  504 -0.00000000000E+00 -0.00000000000E+00 -0.18649235893E+04  0.18649235893E+04  0.00000000000E+00 0. -1.
         25    2    1    2    0    0 -0.35461837439E+02  0.70081855031E+02 -0.94298028940E+03  0.95446708571E+03  0.12500633262E+03 0.  0.
         25    2    1    2    0    0  0.35461837439E+02 -0.70081855031E+02 -0.91025341591E+03  0.92214638758E+03  0.12499468240E+03 0.  0.
          5    1    3    3  501    0  0.43288606755E+02  0.45513105186E+01 -0.22754689141E+03  0.23172029625E+03  0.47000000000E+01 0.  1.
         -5    1    3    3    0  501 -0.78750444194E+02  0.65530544513E+02 -0.71543339799E+03  0.72274678946E+03  0.47000000000E+01 0.  1.
          5    1    4    4  502    0  0.67746163049E+02 -0.50860417672E+02 -0.81851352970E+03  0.82289902965E+03  0.47000000000E+01 0.  1.
         -5    1    4    4    0  502 -0.32284325610E+02 -0.19221437359E+02 -0.91739886212E+02  0.99247357931E+02  0.47000000000E+01 0.  1.
<mgrwt>
<rscale>  0 0.29530148E+03</rscale>
<asrwt>0</asrwt>
<pdfrwt beam="1">  1       21 0.17984425E-02 0.29530148E+03</pdfrwt>
<pdfrwt beam="2">  1       21 0.28691151E+00 0.29530148E+03</pdfrwt>
<totfact> 0.55299196E+04</totfact>
</mgrwt>
</event>
<event>
 8    1  0.9974463E-006  0.3229264E+03  0.7546771E-02  0.1074310E+00
         21   -1    0    0  504  503  0.00000000000E+00  0.00000000000E+00  0.90101929680E+02  0.90101929680E+02  0.00000000000E+00 0. -1.
         21   -1    0    0  503  504 -0.00000000000E+00 -0.00000000000E+00 -0.28934311112E+03  0.28934311112E+03  0.00000000000E+00 0. -1.
         25    2    1    2    0    0 -0.50787656378E+02 -0.84010971996E+02 -0.13301075955E+03  0.20725655733E+03  0.12500475568E+03 0.  0.
         25    2    1    2    0    0  0.50787656378E+02  0.84010971996E+02 -0.66230421889E+02  0.17218848347E+03  0.12500070240E+03 0.  0.
          5    1    3    3  501    0 -0.63921047235E+02 -0.10866321833E+03 -0.12550750705E+03  0.17795454370E+03  0.47000000000E+01 0. -1.
         -5    1    3    3    0  501  0.13133390858E+02  0.24652246332E+02 -0.75032524976E+01  0.29302013628E+02  0.47000000000E+01 0. -1.
          5    1    4    4  502    0  0.77294294744E+02  0.74978672739E+01 -0.30709009252E+02  0.83640655562E+02  0.47000000000E+01 0.  1.
         -5    1    4    4    0  502 -0.26506638366E+02  0.76513104722E+02 -0.35521412637E+02  0.88547827909E+02  0.47000000000E+01 0.  1.
<mgrwt>
<rscale>  0 0.32292645E+03</rscale>
<asrwt>0</asrwt>
<pdfrwt beam="1">  1       21 0.13861836E-01 0.32292645E+03</pdfrwt>
<pdfrwt beam="2">  1       21 0.44514324E-01 0.32292645E+03</pdfrwt>
<totfact> 0.21215569E+05</totfact>
</mgrwt>
</event>
<event>
 8    1  0.9974463E-006  0.2834838E+03  0.7546771E-02  0.1093801E+00
         21   -1    0    0  504  503  0.00000000000E+00  0.00000000000E+00  0.27996662248E+03  0.27996662248E+03  0.00000000000E+00 0. -1.
         21   -1    0    0  503  504 -0.00000000000E+00 -0.00000000000E+00 -0.71761308044E+02  0.71761308044E+02  0.00000000000E+00 0. -1.
         25    2    1    2    0    0  0.36667582513E+02 -0.78861874713E+01  0.17272540581E+03  0.21648484401E+03  0.12499967325E+03 0.  0.
         25    2    1    2    0    0 -0.36667582513E+02  0.78861874713E+01  0.35479908620E+02  0.13524308651E+03  0.12500065989E+03 0.  0.
          5    1    3    3  501    0 -0.45520671436E+02  0.47578258626E+01  0.76003305989E+02  0.88844588784E+02  0.47000000000E+01 0.  1.
         -5    1    3    3    0  501  0.82188253950E+02 -0.12644013334E+02  0.96722099825E+02  0.12764025523E+03  0.47000000000E+01 0.  1.
          5    1    4    4  502    0 -0.49604116281E+02  0.55985140017E+02  0.18657382480E+01  0.74969828825E+02  0.47000000000E+01 0. -1.
         -5    1    4    4    0  502  0.12936533768E+02 -0.48098952546E+02  0.33614170372E+02  0.60273257683E+02  0.47000000000E+01 0. -1.
<mgrwt>
<rscale>  0 0.28348383E+03</rscale>
<asrwt>0</asrwt>
<pdfrwt beam="1">  1       21 0.43071787E-01 0.28348383E+03</pdfrwt>
<pdfrwt beam="2">  1       21 0.11040201E-01 0.28348383E+03</pdfrwt>
<totfact> 0.34576035E+05</totfact>
</mgrwt>
</event>
<event>
 8    1  0.9974463E-006  0.2673268E+03  0.7546771E-02  0.1102819E+00
         21   -1    0    0  504  503  0.00000000000E+00  0.00000000000E+00  0.88888337433E+02  0.88888337433E+02  0.00000000000E+00 0.  1.
         21   -1    0    0  503  504 -0.00000000000E+00 -0.00000000000E+00 -0.20099259953E+03  0.20099259953E+03  0.00000000000E+00 0.  1.
         25    2    1    2    0    0 -0.33579425097E+01  0.44365125570E+02 -0.73518351206E+02  0.15170165586E+03  0.12501561615E+03 0.  0.
         25    2    1    2    0    0  0.33579425097E+01 -0.44365125570E+02 -0.38585910892E+02  0.13817928111E+03  0.12500040425E+03 0.  0.
          5    1    3    3  501    0 -0.47162726404E+02 -0.21740922957E+02 -0.38843754231E+02  0.65022440247E+02  0.47000000000E+01 0. -1.
         -5    1    3    3    0  501  0.43804783894E+02  0.66106048527E+02 -0.34674596975E+02  0.86679215612E+02  0.47000000000E+01 0. -1.
          5    1    4    4  502    0  0.56096107579E+02 -0.99992831033E+01  0.10610274307E+02  0.58150037566E+02  0.47000000000E+01 0.  1.
         -5    1    4    4    0  502 -0.52738165069E+02 -0.34365842466E+02 -0.49196185200E+02  0.80029243539E+02  0.47000000000E+01 0.  1.
<mgrwt>
<rscale>  0 0.26732675E+03</rscale>
<asrwt>0</asrwt>
<pdfrwt beam="1">  1       21 0.13675129E-01 0.26732675E+03</pdfrwt>
<pdfrwt beam="2">  1       21 0.30921938E-01 0.26732675E+03</pdfrwt>
<totfact> 0.45910059E+05</totfact>
</mgrwt>
</event>
<event>
 8    1  0.9974463E-006  0.2724060E+03  0.7546771E-02  0.1099910E+00
         21   -1    0    0  504  503  0.00000000000E+00  0.00000000000E+00  0.64086539331E+02  0.64086539331E+02  0.00000000000E+00 0.  1.
         21   -1    0    0  503  504 -0.00000000000E+00 -0.00000000000E+00 -0.28947202093E+03  0.28947202093E+03  0.00000000000E+00 0.  1.
         25    2    1    2    0    0  0.29791512893E+02 -0.71377315998E+01 -0.54816295151E+02  0.13988300297E+03  0.12499578734E+03 0.  0.
         25    2    1    2    0    0 -0.29791512893E+02  0.71377315998E+01 -0.17056918645E+03  0.21367555729E+03  0.12499965985E+03 0.  0.
          5    1    3    3  501    0 -0.39949064293E+02 -0.32210884265E+02 -0.37217288053E+02  0.63566385244E+02  0.47000000000E+01 0.  1.
         -5    1    3    3    0  501  0.69740577185E+02  0.25073152665E+02 -0.17599007098E+02  0.76316617729E+02  0.47000000000E+01 0.  1.
          5    1    4    4  502    0  0.39480917310E+02 -0.17817558925E+02 -0.24388607750E+02  0.49930976615E+02  0.47000000000E+01 0.  1.
         -5    1    4    4    0  502 -0.69272430203E+02  0.24955290524E+02 -0.14618057870E+03  0.16374458067E+03  0.47000000000E+01 0.  1.
<mgrwt>
<rscale>  0 0.27240602E+03</rscale>
<asrwt>0</asrwt>
<pdfrwt beam="1">  1       21 0.98594679E-02 0.27240602E+03</pdfrwt>
<pdfrwt beam="2">  1       21 0.44534156E-01 0.27240602E+03</pdfrwt>
<totfact> 0.39583794E+05</totfact>
</mgrwt>
</event>
<event>
 8    1  0.9974463E-006  0.3385428E+03  0.7546771E-02  0.1067418E+00
         21   -1    0    0  504  503  0.00000000000E+00  0.00000000000E+00  0.62313812938E+02  0.62313812938E+02  0.00000000000E+00 0.  1.
         21   -1    0    0  503  504 -0.00000000000E+00 -0.00000000000E+00 -0.45981459080E+03  0.45981459080E+03  0.00000000000E+00 0.  1.
         25    2    1    2    0    0  0.90393323186E+02 -0.63695789565E+02 -0.15514299302E+03  0.22786466694E+03  0.12499940668E+03 0.  0.
         25    2    1    2    0    0 -0.90393323186E+02  0.63695789565E+02 -0.24235778483E+03  0.29426373679E+03  0.12500297771E+03 0.  0.
          5    1    3    3  501    0  0.60350598027E+02 -0.57474163369E+02 -0.17297966617E+03  0.19206647039E+03  0.47000000000E+01 0.  1.
         -5    1    3    3    0  501  0.30042725159E+02 -0.62216261961E+01  0.17836673149E+02  0.35798196554E+02  0.47000000000E+01 0.  1.
          5    1    4    4  502    0  0.13878698149E+02 -0.78203747518E-01 -0.12125301413E+03  0.12213520301E+03  0.47000000000E+01 0.  1.
         -5    1    4    4    0  502 -0.10427202134E+03  0.63773993313E+02 -0.12110477071E+03  0.17212853379E+03  0.47000000000E+01 0.  1.
<mgrwt>
<rscale>  0 0.33854276E+03</rscale>
<asrwt>0</asrwt>
<pdfrwt beam="1">  1       21 0.95867408E-02 0.33854276E+03</pdfrwt>
<pdfrwt beam="2">  1       21 0.70740703E-01 0.33854276E+03</pdfrwt>
<totfact> 0.15175720E+05</totfact>
</mgrwt>
</event>
<event>
 8    1  0.9974463E-006  0.3782935E+03  0.7546771E-02  0.1051566E+00
         21   -1    0    0  504  503  0.00000000000E+00  0.00000000000E+00  0.11057961987E+03  0.11057961987E+03  0.00000000000E+00 0.  1.
         21   -1    0    0  503  504 -0.00000000000E+00 -0.00000000000E+00 -0.32353602037E+03  0.32353602037E+03  0.00000000000E+00 0.  1.
         25    2    1    2    0    0  0.11975421123E+03  0.59089657842E+02 -0.51208983854E+02  0.18994313944E+03  0.12499350952E+03 0.  0.
         25    2    1    2    0    0 -0.11975421123E+03 -0.59089657842E+02 -0.16174741664E+03  0.24417250080E+03  0.12500129834E+03 0.  0.
          5    1    3    3  501    0  0.68693358927E+02  0.55096316687E+02 -0.89635323969E+02  0.12574165172E+03  0.47000000000E+01 0.  1.
         -5    1    3    3    0  501  0.51060852305E+02  0.39933411551E+01  0.38426340115E+02  0.64201487727E+02  0.47000000000E+01 0.  1.
          5    1    4    4  502    0 -0.56232479906E+02  0.37110927850E+02 -0.59344987377E+02  0.89906786669E+02  0.47000000000E+01 0. -1.
         -5    1    4    4    0  502 -0.63521731326E+02 -0.96200585692E+02 -0.10240242927E+03  0.15426571414E+03  0.47000000000E+01 0. -1.
<mgrwt>
<rscale>  0 0.37829348E+03</rscale>
<asrwt>0</asrwt>
<pdfrwt beam="1">  1       21 0.17012249E-01 0.37829348E+03</pdfrwt>
<pdfrwt beam="2">  1       21 0.49774772E-01 0.37829348E+03</pdfrwt>
<totfact> 0.11361601E+05</totfact>
</mgrwt>
</event>
<event>
 8    1  0.9974463E-006  0.2894812E+03  0.7546771E-02  0.1090620E+00
         21   -1    0    0  504  503  0.00000000000E+00  0.00000000000E+00  0.40006302580E+02  0.40006302580E+02  0.00000000000E+00 0.  1.
         21   -1    0    0  503  504 -0.00000000000E+00 -0.00000000000E+00 -0.52366359716E+03  0.52366359716E+03  0.00000000000E+00 0.  1.
         25    2    1    2    0    0 -0.52003506873E+02 -0.51119627954E+02 -0.23684514282E+03  0.27756097736E+03  0.12500757332E+03 0.  0.
         25    2    1    2    0    0  0.52003506873E+02  0.51119627954E+02 -0.24681215177E+03  0.28610892238E+03  0.12499798446E+03 0.  0.
          5    1    3    3  501    0 -0.43541577421E+02  0.27469284621E+02 -0.39929830305E+02  0.65321603701E+02  0.47000000000E+01 0. -1.
         -5    1    3    3    0  501 -0.84619294511E+01 -0.78588912574E+02 -0.19691531251E+03  0.21223937366E+03  0.47000000000E+01 0. -1.
          5    1    4    4  502    0 -0.13628469417E+02 -0.32488794476E+02 -0.39836099267E+02  0.53387842717E+02  0.47000000000E+01 0. -1.
         -5    1    4    4    0  502  0.65631976289E+02  0.83608422430E+02 -0.20697605250E+03  0.23272107967E+03  0.47000000000E+01 0. -1.
<mgrwt>
<rscale>  0 0.28948122E+03</rscale>
<asrwt>0</asrwt>
<pdfrwt beam="1">  1       21 0.61548161E-02 0.28948122E+03</pdfrwt>
<pdfrwt beam="2">  1       21 0.80563626E-01 0.28948122E+03</pdfrwt>
<totfact> 0.24889586E+05</totfact>
</mgrwt>
</event>
<event>
 8    1  0.9974463E-006  0.3099522E+03  0.7546771E-02  0.1080369E+00
         21   -1    0    0  504  503  0.00000000000E+00  0.00000000000E+00  0.84108068583E+03  0.84108068583E+03  0.00000000000E+00 0.  1.
         21   -1    0    0  503  504 -0.00000000000E+00 -0.00000000000E+00 -0.28555640014E+02  0.28555640014E+02  0.00000000000E+00 0.  1.
         25    2    1    2    0    0 -0.15161250601E+02  0.83517661052E+02  0.30954665964E+03  0.34445405730E+03  0.12499759945E+03 0.  0.
         25    2    1    2    0    0  0.15161250601E+02 -0.83517661052E+02  0.50297838618E+03  0.52518226854E+03  0.12499637996E+03 0.  0.
          5    1    3    3  501    0  0.21363667508E+01 -0.26193160971E+02  0.13426445811E+03  0.13689295254E+03  0.47000000000E+01 0.  1.
         -5    1    3    3    0  501 -0.17297617352E+02  0.10971082202E+03  0.17528220153E+03  0.20756110476E+03  0.47000000000E+01 0.  1.
          5    1    4    4  502    0  0.57307391705E+01  0.36194359460E+01 -0.50209075326E+01  0.96561483242E+01  0.47000000000E+01 0.  1.
         -5    1    4    4    0  502  0.94305114303E+01 -0.87137096998E+02  0.50799929371E+03  0.51552612022E+03  0.47000000000E+01 0.  1.
<mgrwt>
<rscale>  0 0.30995224E+03</rscale>
<asrwt>0</asrwt>
<pdfrwt beam="1">  1       21 0.12939701E+00 0.30995224E+03</pdfrwt>
<pdfrwt beam="2">  1       21 0.43931760E-02 0.30995224E+03</pdfrwt>
<totfact> 0.14050751E+05</totfact>
</mgrwt>
</event>
<event>
 8    1  0.9974463E-006  0.2728709E+03  0.7546771E-02  0.1099648E+00
         21   -1    0    0  504  503  0.00000000000E+00  0.00000000000E+00  0.25175546049E+03  0.25175546049E+03  0.00000000000E+00 0.  1.
         21   -1    0    0  503  504 -0.00000000000E+00 -0.00000000000E+00 -0.73939324772E+02  0.73939324772E+02  0.00000000000E+00 0.  1.
         25    2    1    2    0    0  0.43049281291E+02  0.16542227158E+02  0.53838170096E+02  0.14369888616E+03  0.12499574163E+03 0.  0.
         25    2    1    2    0    0 -0.43049281291E+02 -0.16542227158E+02  0.12397796562E+03  0.18199589910E+03  0.12500034172E+03 0.  0.
          5    1    3    3  501    0  0.46769946618E+01  0.48471095209E+02 -0.21307703764E+02  0.53361311730E+02  0.47000000000E+01 0.  1.
         -5    1    3    3    0  501  0.38372286629E+02 -0.31928868051E+02  0.75145873860E+02  0.90337574433E+02  0.47000000000E+01 0.  1.
          5    1    4    4  502    0  0.41692278491E+02 -0.16910856651E+02  0.25266941791E+02  0.51814394775E+02  0.47000000000E+01 0. -1.
         -5    1    4    4    0  502 -0.84741559782E+02  0.36862949352E+00  0.98711023827E+02  0.13018150432E+03  0.47000000000E+01 0. -1.
<mgrwt>
<rscale>  0 0.27287088E+03</rscale>
<asrwt>0</asrwt>
<pdfrwt beam="1">  1       21 0.38731609E-01 0.27287088E+03</pdfrwt>
<pdfrwt beam="2">  1       21 0.11375281E-01 0.27287088E+03</pdfrwt>
<totfact> 0.40797425E+05</totfact>
</mgrwt>
</event>
<event>
 8    1  0.9974463E-006  0.2611438E+03  0.7546771E-02  0.1106458E+00
         21   -1    0    0  504  503  0.00000000000E+00  0.00000000000E+00  0.43412342515E+03  0.43412342515E+03  0.00000000000E+00 0. -1.
         21   -1    0    0  503  504 -0.00000000000E+00 -0.00000000000E+00 -0.39272280653E+02  0.39272280653E+02  0.00000000000E+00 0. -1.
         25    2    1    2    0    0  0.26556400485E+02  0.42901300765E+00  0.24603552106E+03  0.27724428445E+03  0.12500195669E+03 0.  0.
         25    2    1    2    0    0 -0.26556400485E+02 -0.42901300765E+00  0.14881562343E+03  0.19615142135E+03  0.12499545536E+03 0.  0.
          5    1    3    3  501    0  0.29675390193E+01 -0.22970409672E+02  0.24233432826E+03  0.24348400905E+03  0.47000000000E+01 0. -1.
         -5    1    3    3    0  501  0.23588861466E+02  0.23399422679E+02  0.37011927982E+01  0.33760275400E+02  0.47000000000E+01 0. -1.
          5    1    4    4  502    0  0.77149753663E+01 -0.51931945060E+02  0.26494031453E+02  0.58995520722E+02  0.47000000000E+01 0. -1.
         -5    1    4    4    0  502 -0.34271375851E+02  0.51502932053E+02  0.12232159198E+03  0.13715590063E+03  0.47000000000E+01 0. -1.
<mgrwt>
<rscale>  0 0.26114377E+03</rscale>
<asrwt>0</asrwt>
<pdfrwt beam="1">  1       21 0.66788216E-01 0.26114377E+03</pdfrwt>
<pdfrwt beam="2">  1       21 0.60418896E-02 0.26114377E+03</pdfrwt>
<totfact> 0.39392834E+05</totfact>
</mgrwt>
</event>
<event>
 8    1  0.9974463E-006  0.2882788E+03  0.7546771E-02  0.1091251E+00
         21   -1    0    0  504  503  0.00000000000E+00  0.00000000000E+00  0.20633250873E+03  0.20633250873E+03  0.00000000000E+00 0.  1.
         21   -1    0    0  503  504 -0.00000000000E+00 -0.00000000000E+00 -0.10069265407E+03  0.10069265407E+03  0.00000000000E+00 0.  1.
         25    2    1    2    0    0 -0.35840704312E+01  0.58769164034E+01  0.12891809379E+03  0.17969498534E+03  0.12499211633E+03 0.  0.
         25    2    1    2    0    0  0.35840704312E+01 -0.58769164034E+01 -0.23278239118E+02  0.12733017746E+03  0.12499485576E+03 0.  0.
          5    1    3    3  501    0 -0.24860427939E+01  0.48940787135E+02  0.12712543180E+03  0.13632441624E+03  0.47000000000E+01 0. -1.
         -5    1    3    3    0  501 -0.10980276373E+01 -0.43063870732E+02  0.17926619908E+01  0.43370569101E+02  0.47000000000E+01 0. -1.
          5    1    4    4  502    0  0.56771196967E+02  0.60876036804E+01  0.16572114929E+02  0.59638517058E+02  0.47000000000E+01 0. -1.
         -5    1    4    4    0  502 -0.53187126536E+02 -0.11964520084E+02 -0.39850354047E+02  0.67691660399E+02  0.47000000000E+01 0. -1.
<mgrwt>
<rscale>  0 0.28827881E+03</rscale>
<asrwt>0</asrwt>
<pdfrwt beam="1">  1       21 0.31743463E-01 0.28827881E+03</pdfrwt>
<pdfrwt beam="2">  1       21 0.15491178E-01 0.28827881E+03</pdfrwt>
<totfact> 0.34557539E+05</totfact>
</mgrwt>
</event>
<event>
 8    1  0.9974463E-006  0.2900293E+03  0.7546771E-02  0.1090334E+00
         21   -1    0    0  504  503  0.00000000000E+00  0.00000000000E+00  0.49934902858E+03  0.49934902858E+03  0.00000000000E+00 0. -1.
         21   -1    0    0  503  504 -0.00000000000E+00 -0.00000000000E+00 -0.42113334768E+02  0.42113334768E+02  0.00000000000E+00 0. -1.
         25    2    1    2    0    0  0.11268810371E+02  0.63560693045E+02  0.29450864140E+03  0.32638507017E+03  0.12499970553E+03 0.  0.
         25    2    1    2    0    0 -0.11268810371E+02 -0.63560693045E+02  0.16272705241E+03  0.21507729318E+03  0.12494479047E+03 0.  0.
          5    1    3    3  501    0  0.45218737580E+01  0.10125830635E+03  0.22659652577E+03  0.24827760156E+03  0.47000000000E+01 0.  1.
         -5    1    3    3    0  501  0.67469366127E+01 -0.37697613304E+02  0.67912115630E+02  0.78107468605E+02  0.47000000000E+01 0.  1.
          5    1    4    4  502    0  0.27449105540E+02  0.63766162622E+01  0.12187996053E+03  0.12518358283E+03  0.47000000000E+01 0. -1.
         -5    1    4    4    0  502 -0.38717915911E+02 -0.69937309308E+02  0.40847091877E+02  0.89893710350E+02  0.47000000000E+01 0. -1.
<mgrwt>
<rscale>  0 0.29002933E+03</rscale>
<asrwt>0</asrwt>
<pdfrwt beam="1">  1       21 0.76822923E-01 0.29002933E+03</pdfrwt>
<pdfrwt beam="2">  1       21 0.64789749E-02 0.29002933E+03</pdfrwt>
<totfact> 0.25372917E+05</totfact>
</mgrwt>
</event>
<event>
 8    1  0.9974463E-006  0.2912519E+03  0.7546771E-02  0.1089697E+00
         21   -1    0    0  504  503  0.00000000000E+00  0.00000000000E+00  0.15095714392E+03  0.15095714392E+03  0.00000000000E+00 0. -1.
         21   -1    0    0  503  504 -0.00000000000E+00 -0.00000000000E+00 -0.14048299985E+03  0.14048299985E+03  0.00000000000E+00 0. -1.
         25    2    1    2    0    0  0.34099614635E+02 -0.31929537130E+02  0.63577608125E+02  0.14781407658E+03  0.12499843967E+03 0.  0.
         25    2    1    2    0    0 -0.34099614635E+02  0.31929537130E+02 -0.53103464058E+02  0.14362606719E+03  0.12500476079E+03 0.  0.
          5    1    3    3  501    0  0.46690382616E+02 -0.38780035466E+02 -0.19075787880E+02  0.63795443903E+02  0.47000000000E+01 0.  1.
         -5    1    3    3    0  501 -0.12590767981E+02  0.68504983362E+01  0.82653396005E+02  0.84018632677E+02  0.47000000000E+01 0.  1.
          5    1    4    4  502    0 -0.23963972552E+02 -0.14155689118E+01  0.38438322215E+02  0.45561721110E+02  0.47000000000E+01 0.  1.
         -5    1    4    4    0  502 -0.10135642083E+02  0.33345106041E+02 -0.91541786273E+02  0.98064346077E+02  0.47000000000E+01 0.  1.
<mgrwt>
<rscale>  0 0.29125187E+03</rscale>
<asrwt>0</asrwt>
<pdfrwt beam="1">  1       21 0.23224176E-01 0.29125187E+03</pdfrwt>
<pdfrwt beam="2">  1       21 0.21612769E-01 0.29125187E+03</pdfrwt>
<totfact> 0.34033035E+05</totfact>
</mgrwt>
</event>
<event>
 8    1  0.9974463E-006  0.3569730E+03  0.7546771E-02  0.1059789E+00
         21   -1    0    0  504  503  0.00000000000E+00  0.00000000000E+00  0.19385974450E+03  0.19385974450E+03  0.00000000000E+00 0. -1.
         21   -1    0    0  503  504 -0.00000000000E+00 -0.00000000000E+00 -0.16433240284E+03  0.16433240284E+03  0.00000000000E+00 0. -1.
         25    2    1    2    0    0  0.10944605121E+03  0.58186145243E+02  0.44316976255E+02  0.18153365212E+03  0.12500562725E+03 0.  0.
         25    2    1    2    0    0 -0.10944605121E+03 -0.58186145243E+02 -0.14789634597E+02  0.17665849522E+03  0.12500170005E+03 0.  0.
          5    1    3    3  501    0  0.10977792029E+03 -0.65341915454E+01  0.37499247623E+02  0.11628487011E+03  0.47000000000E+01 0. -1.
         -5    1    3    3    0  501 -0.33186907908E+00  0.64720336789E+02  0.68177286314E+01  0.65248782018E+02  0.47000000000E+01 0. -1.
          5    1    4    4  502    0 -0.12724936480E+03 -0.14934244767E+02 -0.18350884191E+02  0.12951554910E+03  0.47000000000E+01 0. -1.
         -5    1    4    4    0  502  0.17803313587E+02 -0.43251900476E+02  0.35612495942E+01  0.47142946113E+02  0.47000000000E+01 0. -1.
<mgrwt>
<rscale>  0 0.35697304E+03</rscale>
<asrwt>0</asrwt>
<pdfrwt beam="1">  1       21 0.29824576E-01 0.35697304E+03</pdfrwt>
<pdfrwt beam="2">  1       21 0.25281908E-01 0.35697304E+03</pdfrwt>
<totfact> 0.15291159E+05</totfact>
</mgrwt>
</event>
<event>
 8    1  0.9974463E-006  0.2519807E+03  0.7546771E-02  0.1112059E+00
         21   -1    0    0  504  503  0.00000000000E+00  0.00000000000E+00  0.83934114174E+02  0.83934114174E+02  0.00000000000E+00 0. -1.
         21   -1    0    0  503  504 -0.00000000000E+00 -0.00000000000E+00 -0.18911935043E+03  0.18911935043E+03  0.00000000000E+00 0. -1.
         25    2    1    2    0    0 -0.68517832910E+01  0.70365107982E+01 -0.65954706677E+02  0.14167466550E+03  0.12500091237E+03 0.  0.
         25    2    1    2    0    0  0.68517832910E+01 -0.70365107982E+01 -0.39230529578E+02  0.13137879910E+03  0.12499957994E+03 0.  0.
          5    1    3    3  501    0 -0.13512320134E+02  0.64001753716E+02 -0.21693310350E+02  0.69076023250E+02  0.47000000000E+01 0.  1.
         -5    1    3    3    0  501  0.66605368431E+01 -0.56965242918E+02 -0.44261396327E+02  0.72598642250E+02  0.47000000000E+01 0.  1.
          5    1    4    4  502    0  0.49751680154E+01 -0.59965514602E+02  0.72083390664E+01  0.60783759265E+02  0.47000000000E+01 0.  1.
         -5    1    4    4    0  502  0.18766152756E+01  0.52929003804E+02 -0.46438868644E+02  0.70595039837E+02  0.47000000000E+01 0.  1.
<mgrwt>
<rscale>  0 0.25198068E+03</rscale>
<asrwt>0</asrwt>
<pdfrwt beam="1">  1       21 0.12912941E-01 0.25198068E+03</pdfrwt>
<pdfrwt beam="2">  1       21 0.29095284E-01 0.25198068E+03</pdfrwt>
<totfact> 0.57569055E+05</totfact>
</mgrwt>
</event>
<event>
 8    1  0.9974463E-006  0.3501292E+03  0.7546771E-02  0.1062562E+00
         21   -1    0    0  504  503  0.00000000000E+00  0.00000000000E+00  0.69554792854E+03  0.69554792854E+03  0.00000000000E+00 0.  1.
         21   -1    0    0  503  504 -0.00000000000E+00 -0.00000000000E+00 -0.44062556620E+02  0.44062556620E+02  0.00000000000E+00 0.  1.
         25    2    1    2    0    0  0.33886018971E+02  0.11274361919E+03  0.39773918188E+03  0.43322174422E+03  0.12500094765E+03 0.  0.
         25    2    1    2    0    0 -0.33886018971E+02 -0.11274361919E+03  0.25374619004E+03  0.30638874094E+03  0.12501018225E+03 0.  0.
          5    1    3    3  501    0 -0.38736744568E+02  0.55681785528E+02  0.24866078113E+03  0.25778919817E+03  0.47000000000E+01 0. -1.
         -5    1    3    3    0  501  0.72622763539E+02  0.57061833658E+02  0.14907840075E+03  0.17543254605E+03  0.47000000000E+01 0. -1.
          5    1    4    4  502    0 -0.26192863344E+02  0.14398395971E+02  0.10964687026E+02  0.32182204061E+02  0.47000000000E+01 0. -1.
         -5    1    4    4    0  502 -0.76931556271E+01 -0.12714201516E+03  0.24278150302E+03  0.27420653688E+03  0.47000000000E+01 0. -1.
<mgrwt>
<rscale>  0 0.35012923E+03</rscale>
<asrwt>0</asrwt>
<pdfrwt beam="1">  1       21 0.10700737E+00 0.35012923E+03</pdfrwt>
<pdfrwt beam="2">  1       21 0.67788554E-02 0.35012923E+03</pdfrwt>
<totfact> 0.10591546E+05</totfact>
</mgrwt>
</event>
<event>
 8    1  0.9974463E-006  0.3297182E+03  0.7546771E-02  0.1071262E+00
         21   -1    0    0  504  503  0.00000000000E+00  0.00000000000E+00  0.79148003923E+03  0.79148003923E+03  0.00000000000E+00 0.  1.
         21   -1    0    0  503  504 -0.00000000000E+00 -0.00000000000E+00 -0.34338865510E+02  0.34338865510E+02  0.00000000000E+00 0.  1.
         25    2    1    2    0    0  0.97916775295E+02 -0.17193832901E+02  0.48109090904E+03  0.50690287274E+03  0.12497494494E+03 0.  0.
         25    2    1    2    0    0 -0.97916775295E+02  0.17193832901E+02  0.27605026468E+03  0.31891603200E+03  0.12498145486E+03 0.  0.
          5    1    3    3  501    0  0.15034991016E+02  0.35843637515E+02  0.44215894351E+02  0.59058891103E+02  0.47000000000E+01 0. -1.
         -5    1    3    3    0  501  0.82881784279E+02 -0.53037470416E+02  0.43687501469E+03  0.44784398164E+03  0.47000000000E+01 0. -1.
          5    1    4    4  502    0 -0.10203668076E+03  0.57888309016E+02  0.22001206775E+03  0.24937910999E+03  0.47000000000E+01 0. -1.
         -5    1    4    4    0  502  0.41199054690E+01 -0.40694476114E+02  0.56038196930E+02  0.69536922009E+02  0.47000000000E+01 0. -1.
<mgrwt>
<rscale>  0 0.32971822E+03</rscale>
<asrwt>0</asrwt>
<pdfrwt beam="1">  1       21 0.12176615E+00 0.32971822E+03</pdfrwt>
<pdfrwt beam="2">  1       21 0.52829030E-02 0.32971822E+03</pdfrwt>
<totfact> 0.11899694E+05</totfact>
</mgrwt>
</event>
<event>
 8    1  0.9974463E-006  0.2611280E+03  0.7546771E-02  0.1106467E+00
         21   -1    0    0  504  503  0.00000000000E+00  0.00000000000E+00  0.19964907289E+02  0.19964907289E+02  0.00000000000E+00 0.  1.
         21   -1    0    0  503  504 -0.00000000000E+00 -0.00000000000E+00 -0.85384634269E+03  0.85384634269E+03  0.00000000000E+00 0.  1.
         25    2    1    2    0    0 -0.14571677384E+02 -0.11739493860E+02 -0.52627185448E+03  0.54123653216E+03  0.12499907772E+03 0.  0.
         25    2    1    2    0    0  0.14571677384E+02  0.11739493860E+02 -0.30760958092E+03  0.33257471781E+03  0.12502855337E+03 0.  0.
          5    1    3    3  501    0  0.32197540379E+02  0.40528653348E+02 -0.15841108996E+03  0.16671957525E+03  0.47000000000E+01 0. -1.
         -5    1    3    3    0  501 -0.46769217763E+02 -0.52268147208E+02 -0.36786076452E+03  0.37451695691E+03  0.47000000000E+01 0. -1.
          5    1    4    4  502    0  0.32993811306E+01  0.58489465288E+02 -0.25264787214E+03  0.25939340925E+03  0.47000000000E+01 0.  1.
         -5    1    4    4    0  502  0.11272296254E+02 -0.46749971428E+02 -0.54961708780E+02  0.73181308566E+02  0.47000000000E+01 0.  1.
<mgrwt>
<rscale>  0 0.26112804E+03</rscale>
<asrwt>0</asrwt>
<pdfrwt beam="1">  1       21 0.30715249E-02 0.26112804E+03</pdfrwt>
<pdfrwt beam="2">  1       21 0.13136095E+00 0.26112804E+03</pdfrwt>
<totfact> 0.25048694E+05</totfact>
</mgrwt>
</event>
<event>
 8    1  0.9974463E-006  0.2729490E+03  0.7546771E-02  0.1099604E+00
         21   -1    0    0  504  503  0.00000000000E+00  0.00000000000E+00  0.84963459022E+02  0.84963459022E+02  0.00000000000E+00 0. -1.
         21   -1    0    0  503  504 -0.00000000000E+00 -0.00000000000E+00 -0.21921526817E+03  0.21921526817E+03  0.00000000000E+00 0. -1.
         25    2    1    2    0    0 -0.22140121690E+02  0.28028402344E+02 -0.11343061316E+03  0.17252001386E+03  0.12498349833E+03 0.  0.
         25    2    1    2    0    0  0.22140121690E+02 -0.28028402344E+02 -0.20821195986E+02  0.13165871333E+03  0.12499887306E+03 0.  0.
          5    1    3    3  501    0 -0.25907849445E+02 -0.40261487811E+02 -0.11138151328E+02  0.49379676777E+02  0.47000000000E+01 0. -1.
         -5    1    3    3    0  501  0.37677277551E+01  0.68289890155E+02 -0.10229246183E+03  0.12314033709E+03  0.47000000000E+01 0. -1.
          5    1    4    4  502    0 -0.48208508088E+02 -0.32472489821E+02 -0.11515136093E+01  0.58326141916E+02  0.47000000000E+01 0.  1.
         -5    1    4    4    0  502  0.70348629778E+02  0.44440874770E+01 -0.19669682377E+02  0.73332571412E+02  0.47000000000E+01 0.  1.
<mgrwt>
<rscale>  0 0.27294899E+03</rscale>
<asrwt>0</asrwt>
<pdfrwt beam="1">  1       21 0.13071302E-01 0.27294899E+03</pdfrwt>
<pdfrwt beam="2">  1       21 0.33725425E-01 0.27294899E+03</pdfrwt>
<totfact> 0.41922457E+05</totfact>
</mgrwt>
</event>
<event>
 8    1  0.9974463E-006  0.2819800E+03  0.7546771E-02  0.1094612E+00
         21   -1    0    0  504  503  0.00000000000E+00  0.00000000000E+00  0.59482938328E+02  0.59482938328E+02  0.00000000000E+00 0.  1.
         21   -1    0    0  503  504 -0.00000000000E+00 -0.00000000000E+00 -0.33418299154E+03  0.33418299154E+03  0.00000000000E+00 0.  1.
         25    2    1    2    0    0 -0.76786421995E+01 -0.64714090637E+02 -0.14172075905E+03  0.19988722990E+03  0.12499302404E+03 0.  0.
         25    2    1    2    0    0  0.76786421995E+01  0.64714090637E+02 -0.13297929417E+03  0.19377869997E+03  0.12497926553E+03 0.  0.
          5    1    3    3  501    0  0.36330999506E+01 -0.97537222902E+02 -0.13063886469E+03  0.16314200021E+03  0.47000000000E+01 0.  1.
         -5    1    3    3    0  501 -0.11311742150E+02  0.32823132264E+02 -0.11081894361E+02  0.36745229687E+02  0.47000000000E+01 0.  1.
          5    1    4    4  502    0 -0.41871575765E+02  0.71582262392E+02 -0.50524964447E+02  0.97221968601E+02  0.47000000000E+01 0. -1.
         -5    1    4    4    0  502  0.49550217965E+02 -0.68681717550E+01 -0.82454329722E+02  0.96556731373E+02  0.47000000000E+01 0. -1.
<mgrwt>
<rscale>  0 0.28198004E+03</rscale>
<asrwt>0</asrwt>
<pdfrwt beam="1">  1       21 0.91512211E-02 0.28198004E+03</pdfrwt>
<pdfrwt beam="2">  1       21 0.51412769E-01 0.28198004E+03</pdfrwt>
<totfact> 0.33402348E+05</totfact>
</mgrwt>
</event>
<event>
 8    1  0.9974463E-006  0.3409008E+03  0.7546771E-02  0.1066413E+00
         21   -1    0    0  504  503  0.00000000000E+00  0.00000000000E+00  0.26350374531E+03  0.26350374531E+03  0.00000000000E+00 0. -1.
         21   -1    0    0  503  504 -0.00000000000E+00 -0.00000000000E+00 -0.11025779338E+03  0.11025779338E+03  0.00000000000E+00 0. -1.
         25    2    1    2    0    0  0.29709164978E+02 -0.10351360845E+03  0.12357942167E+03  0.20613476749E+03  0.12498786857E+03 0.  0.
         25    2    1    2    0    0 -0.29709164978E+02  0.10351360845E+03  0.29666530253E+02  0.16762677120E+03  0.12498371809E+03 0.  0.
          5    1    3    3  501    0  0.34586813044E+02 -0.11877119606E+03  0.13705113221E+03  0.18468337091E+03  0.47000000000E+01 0. -1.
         -5    1    3    3    0  501 -0.48776480667E+01  0.15257587611E+02 -0.13471710539E+02  0.21451396579E+02  0.47000000000E+01 0. -1.
          5    1    4    4  502    0  0.26418344127E+02  0.93370236063E+02 -0.10489464020E+02  0.97714117426E+02  0.47000000000E+01 0.  1.
         -5    1    4    4    0  502 -0.56127509104E+02  0.10143372384E+02  0.40155994273E+02  0.69912653773E+02  0.47000000000E+01 0.  1.
<mgrwt>
<rscale>  0 0.34090082E+03</rscale>
<asrwt>0</asrwt>
<pdfrwt beam="1">  1       21 0.40539037E-01 0.34090082E+03</pdfrwt>
<pdfrwt beam="2">  1       21 0.16962738E-01 0.34090082E+03</pdfrwt>
<totfact> 0.17659681E+05</totfact>
</mgrwt>
</event>
<event>
 8    1  0.9974463E-006  0.3238718E+03  0.7546771E-02  0.1073881E+00
         21   -1    0    0  504  503  0.00000000000E+00  0.00000000000E+00  0.38003184093E+02  0.38003184093E+02  0.00000000000E+00 0.  1.
         21   -1    0    0  503  504 -0.00000000000E+00 -0.00000000000E+00 -0.69002721686E+03  0.69002721686E+03  0.00000000000E+00 0.  1.
         25    2    1    2    0    0 -0.47820231918E+02 -0.64051756327E+02 -0.18016825352E+03  0.23339685691E+03  0.12499636463E+03 0.  0.
         25    2    1    2    0    0  0.47820231918E+02  0.64051756327E+02 -0.47185577925E+03  0.49463354404E+03  0.12500025765E+03 0.  0.
          5    1    3    3  501    0 -0.50476802581E+02 -0.64871929692E+02 -0.19816633599E+03  0.21458858679E+03  0.47000000000E+01 0. -1.
         -5    1    3    3    0  501  0.26565706637E+01  0.82017336444E+00  0.17998082475E+02  0.18808270117E+02  0.47000000000E+01 0. -1.
          5    1    4    4  502    0  0.78703382571E+02  0.30685647797E+02 -0.17612885301E+03  0.19539522581E+03  0.47000000000E+01 0. -1.
         -5    1    4    4    0  502 -0.30883150653E+02  0.33366108531E+02 -0.29572692624E+03  0.29923831823E+03  0.47000000000E+01 0. -1.
<mgrwt>
<rscale>  0 0.32387177E+03</rscale>
<asrwt>0</asrwt>
<pdfrwt beam="1">  1       21 0.58466438E-02 0.32387177E+03</pdfrwt>
<pdfrwt beam="2">  1       21 0.10615803E+00 0.32387177E+03</pdfrwt>
<totfact> 0.14059499E+05</totfact>
</mgrwt>
</event>
<event>
 8    1  0.9974463E-006  0.3600624E+03  0.7546771E-02  0.1058559E+00
         21   -1    0    0  504  503  0.00000000000E+00  0.00000000000E+00  0.39505509649E+02  0.39505509649E+02  0.00000000000E+00 0. -1.
         21   -1    0    0  503  504 -0.00000000000E+00 -0.00000000000E+00 -0.82042324336E+03  0.82042324336E+03  0.00000000000E+00 0. -1.
         25    2    1    2    0    0 -0.63351155627E+02  0.10200206847E+02 -0.12162640161E+03  0.18583154413E+03  0.12499187208E+03 0.  0.
         25    2    1    2    0    0  0.63351155627E+02 -0.10200206847E+02 -0.65929133209E+03  0.67409720887E+03  0.12499829318E+03 0.  0.
          5    1    3    3  501    0 -0.13743318461E+02  0.15764473819E+02 -0.13275271088E+03  0.13447218926E+03  0.47000000000E+01 0. -1.
         -5    1    3    3    0  501 -0.49607837166E+02 -0.55642669729E+01  0.11126309269E+02  0.51359354875E+02  0.47000000000E+01 0. -1.
          5    1    4    4  502    0 -0.74055370305E+01 -0.23890243954E+02 -0.24888119761E+02  0.35596267222E+02  0.47000000000E+01 0.  1.
         -5    1    4    4    0  502  0.70756692657E+02  0.13690037107E+02 -0.63440321233E+03  0.63850094165E+03  0.47000000000E+01 0.  1.
<mgrwt>
<rscale>  0 0.36006243E+03</rscale>
<asrwt>0</asrwt>
<pdfrwt beam="1">  1       21 0.60777710E-02 0.36006243E+03</pdfrwt>
<pdfrwt beam="2">  1       21 0.12621896E+00 0.36006243E+03</pdfrwt>
<totfact> 0.84545695E+04</totfact>
</mgrwt>
</event>
<event>
 8    1  0.9974463E-006  0.3950200E+03  0.7546771E-02  0.1045518E+00
         21   -1    0    0  504  503  0.00000000000E+00  0.00000000000E+00  0.51058963565E+03  0.51058963565E+03  0.00000000000E+00 0. -1.
         21   -1    0    0  503  504 -0.00000000000E+00 -0.00000000000E+00 -0.76402263710E+02  0.76402263710E+02  0.00000000000E+00 0. -1.
         25    2    1    2    0    0 -0.13835859915E+03  0.63140081313E+02  0.19333899901E+03  0.27592653986E+03  0.12500286010E+03 0.  0.
         25    2    1    2    0    0  0.13835859915E+03 -0.63140081313E+02  0.24084837293E+03  0.31106535950E+03  0.12499578918E+03 0.  0.
          5    1    3    3  501    0 -0.71787940813E+02  0.72709125134E+01  0.17160781378E+03  0.18621951123E+03  0.47000000000E+01 0.  1.
         -5    1    3    3    0  501 -0.66570658333E+02  0.55869168800E+02  0.21731185236E+02  0.89707028626E+02  0.47000000000E+01 0.  1.
          5    1    4    4  502    0 -0.17233645747E+02 -0.64057839150E+00  0.38804922761E+00  0.17878743485E+02  0.47000000000E+01 0. -1.
         -5    1    4    4    0  502  0.15559224489E+03 -0.62499502922E+02  0.24046032370E+03  0.29318661602E+03  0.47000000000E+01 0. -1.
<mgrwt>
<rscale>  0 0.39502002E+03</rscale>
<asrwt>0</asrwt>
<pdfrwt beam="1">  1       21 0.78552250E-01 0.39502002E+03</pdfrwt>
<pdfrwt beam="2">  1       21 0.11754195E-01 0.39502002E+03</pdfrwt>
<totfact> 0.81883947E+04</totfact>
</mgrwt>
</event>
<event>
 8    1  0.9974463E-006  0.3895852E+03  0.7546771E-02  0.1047447E+00
         21   -1    0    0  504  503  0.00000000000E+00  0.00000000000E+00  0.10555641460E+03  0.10555641460E+03  0.00000000000E+00 0.  1.
         21   -1    0    0  503  504 -0.00000000000E+00 -0.00000000000E+00 -0.35946797412E+03  0.35946797412E+03  0.00000000000E+00 0.  1.
         25    2    1    2    0    0  0.31749258533E+02 -0.10508837889E+03 -0.24791001314E+03  0.29854997071E+03  0.12498450943E+03 0.  0.
         25    2    1    2    0    0 -0.31749258533E+02  0.10508837889E+03 -0.60015463838E+01  0.16647441801E+03  0.12500452190E+03 0.  0.
          5    1    3    3  501    0  0.44125853500E+02 -0.17744473016E+02 -0.16024562098E+02  0.50406684677E+02  0.47000000000E+01 0.  1.
         -5    1    3    3    0  501 -0.12376594966E+02 -0.87343905878E+02 -0.23188545104E+03  0.24814328603E+03  0.47000000000E+01 0.  1.
          5    1    4    4  502    0  0.25101118136E+02  0.10388716071E+02  0.38455352473E+02  0.47316970392E+02  0.47000000000E+01 0. -1.
         -5    1    4    4    0  502 -0.56850376670E+02  0.94699662824E+02 -0.44456898857E+02  0.11915744762E+03  0.47000000000E+01 0. -1.
<mgrwt>
<rscale>  0 0.38958517E+03</rscale>
<asrwt>0</asrwt>
<pdfrwt beam="1">  1       21 0.16239448E-01 0.38958517E+03</pdfrwt>
<pdfrwt beam="2">  1       21 0.55302765E-01 0.38958517E+03</pdfrwt>
<totfact> 0.98712768E+04</totfact>
</mgrwt>
</event>
<event>
 8    1  0.9974463E-006  0.2914877E+03  0.7546771E-02  0.1089575E+00
         21   -1    0    0  504  503  0.00000000000E+00  0.00000000000E+00  0.37293712343E+02  0.37293712343E+02  0.00000000000E+00 0. -1.
         21   -1    0    0  503  504 -0.00000000000E+00 -0.00000000000E+00 -0.56956701409E+03  0.56956701409E+03  0.00000000000E+00 0. -1.
         25    2    1    2    0    0 -0.61071241430E+02 -0.27115009094E+02 -0.33676481249E+03  0.36537674704E+03  0.12499883238E+03 0.  0.
         25    2    1    2    0    0  0.61071241430E+02  0.27115009094E+02 -0.19550848926E+03  0.24148397939E+03  0.12500409067E+03 0.  0.
          5    1    3    3  501    0 -0.91419142413E+02 -0.28908218983E+02 -0.16511860498E+03  0.19099578120E+03  0.47000000000E+01 0.  1.
         -5    1    3    3    0  501  0.30347900983E+02  0.17932098888E+01 -0.17164620751E+03  0.17438096584E+03  0.47000000000E+01 0.  1.
          5    1    4    4  502    0  0.11001336486E+01  0.10882808826E+02  0.16591966822E+02  0.20421292442E+02  0.47000000000E+01 0. -1.
         -5    1    4    4    0  502  0.59971107782E+02  0.16232200267E+02 -0.21210045608E+03  0.22106268695E+03  0.47000000000E+01 0. -1.
<mgrwt>
<rscale>  0 0.29148769E+03</rscale>
<asrwt>0</asrwt>
<pdfrwt beam="1">  1       21 0.57374944E-02 0.29148769E+03</pdfrwt>
<pdfrwt beam="2">  1       21 0.87625692E-01 0.29148769E+03</pdfrwt>
<totfact> 0.23132169E+05</totfact>
</mgrwt>
</event>
<event>
 8    1  0.9974463E-006  0.2750033E+03  0.7546771E-02  0.1098450E+00
         21   -1    0    0  504  503  0.00000000000E+00  0.00000000000E+00  0.46487362798E+03  0.46487362798E+03  0.00000000000E+00 0. -1.
         21   -1    0    0  503  504 -0.00000000000E+00 -0.00000000000E+00 -0.40670623110E+02  0.40670623110E+02  0.00000000000E+00 0. -1.
         25    2    1    2    0    0 -0.24174864383E+02 -0.63550482020E+00  0.11662228798E+03  0.17265458223E+03  0.12499607504E+03 0.  0.
         25    2    1    2    0    0  0.24174864383E+02  0.63550482020E+00  0.30758071689E+03  0.33288966887E+03  0.12499922519E+03 0.  0.
          5    1    3    3  501    0  0.35521835606E+02  0.24518106695E+02  0.52580737960E+01  0.43734147994E+02  0.47000000000E+01 0.  1.
         -5    1    3    3    0  501 -0.59696699989E+02 -0.25153611516E+02  0.11136421418E+03  0.12892043423E+03  0.47000000000E+01 0.  1.
          5    1    4    4  502    0 -0.29022705668E+02  0.23456352923E+02  0.24357950208E+03  0.24646618788E+03  0.47000000000E+01 0. -1.
         -5    1    4    4    0  502  0.53197570051E+02 -0.22820848103E+02  0.64001214815E+02  0.86423480984E+02  0.47000000000E+01 0. -1.
<mgrwt>
<rscale>  0 0.27500327E+03</rscale>
<asrwt>0</asrwt>
<pdfrwt beam="1">  1       21 0.71519016E-01 0.27500327E+03</pdfrwt>
<pdfrwt beam="2">  1       21 0.62570193E-02 0.27500327E+03</pdfrwt>
<totfact> 0.31765703E+05</totfact>
</mgrwt>
</event>
<event>
 8    1  0.9974463E-006  0.3359204E+03  0.7546771E-02  0.1068547E+00
         21   -1    0    0  504  503  0.00000000000E+00  0.00000000000E+00  0.31376271672E+03  0.31376271672E+03  0.00000000000E+00 0.  1.
         21   -1    0    0  503  504 -0.00000000000E+00 -0.00000000000E+00 -0.89910724966E+02  0.89910724966E+02  0.00000000000E+00 0.  1.
         25    2    1    2    0    0  0.95430756649E+02 -0.57598515204E+02  0.12715063737E+03  0.21028059775E+03  0.12500410768E+03 0.  0.
         25    2    1    2    0    0 -0.95430756649E+02  0.57598515204E+02  0.96701354384E+02  0.19339284394E+03  0.12500008751E+03 0.  0.
          5    1    3    3  501    0  0.34708586082E+01 -0.32494772252E+02 -0.17203022249E+02  0.37228900839E+02  0.47000000000E+01 0.  1.
         -5    1    3    3    0  501  0.91959898041E+02 -0.25103742951E+02  0.14435365962E+03  0.17305169691E+03  0.47000000000E+01 0.  1.
          5    1    4    4  502    0  0.10100878920E+02  0.15394244070E+02  0.75276243788E+02  0.77637705944E+02  0.47000000000E+01 0. -1.
         -5    1    4    4    0  502 -0.10553163557E+03  0.42204271134E+02  0.21425110596E+02  0.11575513799E+03  0.47000000000E+01 0. -1.
<mgrwt>
<rscale>  0 0.33592043E+03</rscale>
<asrwt>0</asrwt>
<pdfrwt beam="1">  1       21 0.48271187E-01 0.33592043E+03</pdfrwt>
<pdfrwt beam="2">  1       21 0.13832419E-01 0.33592043E+03</pdfrwt>
<totfact> 0.17933310E+05</totfact>
</mgrwt>
</event>
<event>
 8    1  0.9974463E-006  0.4632350E+03  0.7546771E-02  0.1023847E+00
         21   -1    0    0  504  503  0.00000000000E+00  0.00000000000E+00  0.12882676131E+04  0.12882676131E+04  0.00000000000E+00 0.  1.
         21   -1    0    0  503  504 -0.00000000000E+00 -0.00000000000E+00 -0.41642485174E+02  0.41642485174E+02  0.00000000000E+00 0.  1.
         25    2    1    2    0    0 -0.89006248561E+02 -0.16647280701E+03  0.76356844939E+03  0.79642730713E+03  0.12499748353E+03 0.  0.
         25    2    1    2    0    0  0.89006248561E+02  0.16647280701E+03  0.48305667859E+03  0.53348279119E+03  0.12499930405E+03 0.  0.
          5    1    3    3  501    0 -0.56917669925E+02 -0.17524241444E+03  0.54575842522E+03  0.57604155551E+03  0.47000000000E+01 0. -1.
         -5    1    3    3    0  501 -0.32088578636E+02  0.87696074291E+01  0.21781002416E+03  0.22038575163E+03  0.47000000000E+01 0. -1.
          5    1    4    4  502    0  0.17235732895E+01  0.89283165353E+02  0.10535520851E+03  0.13818923359E+03  0.47000000000E+01 0.  1.
         -5    1    4    4    0  502  0.87282675272E+02  0.77189641654E+02  0.37770147008E+03  0.39529355760E+03  0.47000000000E+01 0.  1.
<mgrwt>
<rscale>  0 0.46323499E+03</rscale>
<asrwt>0</asrwt>
<pdfrwt beam="1">  1       21 0.19819499E+00 0.46323499E+03</pdfrwt>
<pdfrwt beam="2">  1       21 0.64065372E-02 0.46323499E+03</pdfrwt>
<totfact> 0.21378673E+04</totfact>
</mgrwt>
</event>
<event>
 8    1  0.9974463E-006  0.3842819E+03  0.7546771E-02  0.1049362E+00
         21   -1    0    0  504  503  0.00000000000E+00  0.00000000000E+00  0.12367049024E+04  0.12367049024E+04  0.00000000000E+00 0.  1.
         21   -1    0    0  503  504 -0.00000000000E+00 -0.00000000000E+00 -0.29852031594E+02  0.29852031594E+02  0.00000000000E+00 0.  1.
         25    2    1    2    0    0 -0.10127336815E+03  0.99999227918E+02  0.70960263858E+03  0.73445007952E+03  0.12499949578E+03 0.  0.
         25    2    1    2    0    0  0.10127336815E+03 -0.99999227918E+02  0.49725023226E+03  0.53210685451E+03  0.12499508172E+03 0.  0.
          5    1    3    3  501    0  0.13034018515E+02  0.68447530062E+02  0.29853651789E+03  0.30659597604E+03  0.47000000000E+01 0.  1.
         -5    1    3    3    0  501 -0.11430738667E+03  0.31551697856E+02  0.41106612068E+03  0.42785410347E+03  0.47000000000E+01 0.  1.
          5    1    4    4  502    0  0.43979827048E+02 -0.11134627264E+03  0.23969250190E+03  0.26796791429E+03  0.47000000000E+01 0. -1.
         -5    1    4    4    0  502  0.57293541102E+02  0.11347044724E+02  0.25755773036E+03  0.26413894022E+03  0.47000000000E+01 0. -1.
<mgrwt>
<rscale>  0 0.38428195E+03</rscale>
<asrwt>0</asrwt>
<pdfrwt beam="1">  1       21 0.19026225E+00 0.38428195E+03</pdfrwt>
<pdfrwt beam="2">  1       21 0.45926212E-02 0.38428195E+03</pdfrwt>
<totfact> 0.44139532E+04</totfact>
</mgrwt>
</event>
<event>
 8    1  0.9974463E-006  0.2535240E+03  0.7546771E-02  0.1111098E+00
         21   -1    0    0  504  503  0.00000000000E+00  0.00000000000E+00  0.33737993453E+03  0.33737993453E+03  0.00000000000E+00 0.  1.
         21   -1    0    0  503  504 -0.00000000000E+00 -0.00000000000E+00 -0.47627633559E+02  0.47627633559E+02  0.00000000000E+00 0.  1.
         25    2    1    2    0    0  0.18151745144E+02 -0.87750288545E+01  0.13540854384E+03  0.18538775135E+03  0.12500663031E+03 0.  0.
         25    2    1    2    0    0 -0.18151745144E+02  0.87750288545E+01  0.15434375713E+03  0.19961981675E+03  0.12497835368E+03 0.  0.
          5    1    3    3  501    0  0.14860345103E+01  0.21666452633E+02  0.14686763200E+03  0.14853900093E+03  0.47000000000E+01 0.  1.
         -5    1    3    3    0  501  0.16665710634E+02 -0.30441481488E+02 -0.11459088156E+02  0.36848750419E+02  0.47000000000E+01 0.  1.
          5    1    4    4  502    0  0.39490189019E+02 -0.32868433408E+02  0.89304863089E+02  0.10313708118E+03  0.47000000000E+01 0. -1.
         -5    1    4    4    0  502 -0.57641934163E+02  0.41643462262E+02  0.65038894045E+02  0.96482735564E+02  0.47000000000E+01 0. -1.
<mgrwt>
<rscale>  0 0.25352403E+03</rscale>
<asrwt>0</asrwt>
<pdfrwt beam="1">  1       21 0.51904604E-01 0.25352403E+03</pdfrwt>
<pdfrwt beam="2">  1       21 0.73273284E-02 0.25352403E+03</pdfrwt>
<totfact> 0.48637697E+05</totfact>
</mgrwt>
</event>
<event>
 8    1  0.9974463E-006  0.2876657E+03  0.7546771E-02  0.1091574E+00
         21   -1    0    0  504  503  0.00000000000E+00  0.00000000000E+00  0.88053030343E+02  0.88053030343E+02  0.00000000000E+00 0. -1.
         21   -1    0    0  503  504 -0.00000000000E+00 -0.00000000000E+00 -0.23494814128E+03  0.23494814128E+03  0.00000000000E+00 0. -1.
         25    2    1    2    0    0  0.46396802337E+01 -0.62067066525E+02 -0.34660881199E+02  0.14384860306E+03  0.12496878225E+03 0.  0.
         25    2    1    2    0    0 -0.46396802337E+01  0.62067066525E+02 -0.11223422974E+03  0.17915256857E+03  0.12500109247E+03 0.  0.
          5    1    3    3  501    0 -0.25121614990E+02 -0.47111218899E+02 -0.74456513696E+02  0.91741075411E+02  0.47000000000E+01 0.  1.
         -5    1    3    3    0  501  0.29761295223E+02 -0.14955847626E+02  0.39795632497E+02  0.52107527646E+02  0.47000000000E+01 0.  1.
          5    1    4    4  502    0  0.17178896415E+00  0.58852355163E+02  0.72076155322E+01  0.59478306477E+02  0.47000000000E+01 0.  1.
         -5    1    4    4    0  502 -0.48114691978E+01  0.32147113616E+01 -0.11944184527E+03  0.11967426209E+03  0.47000000000E+01 0.  1.
<mgrwt>
<rscale>  0 0.28766575E+03</rscale>
<asrwt>0</asrwt>
<pdfrwt beam="1">  1       21 0.13546620E-01 0.28766575E+03</pdfrwt>
<pdfrwt beam="2">  1       21 0.36145867E-01 0.28766575E+03</pdfrwt>
<totfact> 0.34100837E+05</totfact>
</mgrwt>
</event>
<event>
 8    1  0.9974463E-006  0.2663060E+03  0.7546771E-02  0.1103413E+00
         21   -1    0    0  504  503  0.00000000000E+00  0.00000000000E+00  0.11290296585E+03  0.11290296585E+03  0.00000000000E+00 0.  1.
         21   -1    0    0  503  504 -0.00000000000E+00 -0.00000000000E+00 -0.15703503154E+03  0.15703503154E+03  0.00000000000E+00 0.  1.
         25    2    1    2    0    0  0.14795457239E+02  0.10097136914E+02 -0.64880002015E+02  0.14196930877E+03  0.12500004897E+03 0.  0.
         25    2    1    2    0    0 -0.14795457239E+02 -0.10097136914E+02  0.20747936326E+02  0.12796868861E+03  0.12499860269E+03 0.  0.
          5    1    3    3  501    0  0.39535848671E+02  0.43928065831E+02  0.58977457342E+01  0.59578785675E+02  0.47000000000E+01 0.  1.
         -5    1    3    3    0  501 -0.24740391431E+02 -0.33830928917E+02 -0.70777747749E+02  0.82390523096E+02  0.47000000000E+01 0.  1.
          5    1    4    4  502    0 -0.40520936577E+02  0.17237526399E+02 -0.37826083544E+02  0.58240717833E+02  0.47000000000E+01 0. -1.
         -5    1    4    4    0  502  0.25725479338E+02 -0.27334663312E+02  0.58574019870E+02  0.69727970782E+02  0.47000000000E+01 0. -1.
<mgrwt>
<rscale>  0 0.26630600E+03</rscale>
<asrwt>0</asrwt>
<pdfrwt beam="1">  1       21 0.17369687E-01 0.26630600E+03</pdfrwt>
<pdfrwt beam="2">  1       21 0.24159236E-01 0.26630600E+03</pdfrwt>
<totfact> 0.47786142E+05</totfact>
</mgrwt>
</event>
<event>
 8    1  0.9974463E-006  0.2618935E+03  0.7546771E-02  0.1106011E+00
         21   -1    0    0  504  503  0.00000000000E+00  0.00000000000E+00  0.36422855704E+02  0.36422855704E+02  0.00000000000E+00 0.  1.
         21   -1    0    0  503  504 -0.00000000000E+00 -0.00000000000E+00 -0.47077707580E+03  0.47077707580E+03  0.00000000000E+00 0.  1.
         25    2    1    2    0    0 -0.54135201702E+01 -0.36095806879E+02 -0.24394417794E+03  0.27652493067E+03  0.12500024742E+03 0.  0.
         25    2    1    2    0    0  0.54135201702E+01  0.36095806879E+02 -0.19041004216E+03  0.23067500084E+03  0.12499103320E+03 0.  0.
          5    1    3    3  501    0  0.20639590285E+02 -0.71115400097E+02 -0.91058267027E+02  0.11746101827E+03  0.47000000000E+01 0.  1.
         -5    1    3    3    0  501 -0.26053110455E+02  0.35019593218E+02 -0.15288591092E+03  0.15906391241E+03  0.47000000000E+01 0.  1.
          5    1    4    4  502    0 -0.45948109977E+02  0.36403697204E+02 -0.38607711080E+02  0.70349863791E+02  0.47000000000E+01 0.  1.
         -5    1    4    4    0  502  0.51361630148E+02 -0.30789032520E+00 -0.15180233108E+03  0.16032513704E+03  0.47000000000E+01 0.  1.
<mgrwt>
<rscale>  0 0.26189346E+03</rscale>
<asrwt>0</asrwt>
<pdfrwt beam="1">  1       21 0.56035161E-02 0.26189346E+03</pdfrwt>
<pdfrwt beam="2">  1       21 0.72427245E-01 0.26189346E+03</pdfrwt>
<totfact> 0.37451872E+05</totfact>
</mgrwt>
</event>
<event>
 8    1  0.9974463E-006  0.3873993E+03  0.7546771E-02  0.1048232E+00
         21   -1    0    0  504  503  0.00000000000E+00  0.00000000000E+00  0.17636165730E+03  0.17636165730E+03  0.00000000000E+00 0.  1.
         21   -1    0    0  503  504 -0.00000000000E+00 -0.00000000000E+00 -0.21274211739E+03  0.21274211739E+03  0.00000000000E+00 0.  1.
         25    2    1    2    0    0  0.57077193507E+02  0.67715094023E+02  0.10087159456E+03  0.18342079422E+03  0.12499987674E+03 0.  0.
         25    2    1    2    0    0 -0.57077193507E+02 -0.67715094023E+02 -0.13725205465E+03  0.20568298047E+03  0.12499688785E+03 0.  0.
          5    1    3    3  501    0  0.25987241757E+02  0.99463562361E+02  0.46180009475E+02  0.11279636628E+03  0.47000000000E+01 0. -1.
         -5    1    3    3    0  501  0.31089951750E+02 -0.31748468338E+02  0.54691585086E+02  0.70624427933E+02  0.47000000000E+01 0. -1.
          5    1    4    4  502    0 -0.84102575846E+02 -0.54075228049E+02 -0.14296128261E+03  0.17452046263E+03  0.47000000000E+01 0.  1.
         -5    1    4    4    0  502  0.27025382340E+02 -0.13639865974E+02  0.57092279556E+01  0.31162517841E+02  0.47000000000E+01 0.  1.
<mgrwt>
<rscale>  0 0.38739929E+03</rscale>
<asrwt>0</asrwt>
<pdfrwt beam="1">  1       21 0.27132563E-01 0.38739929E+03</pdfrwt>
<pdfrwt beam="2">  1       21 0.32729556E-01 0.38739929E+03</pdfrwt>
<totfact> 0.11007851E+05</totfact>
</mgrwt>
</event>
<event>
 8    1  0.9974463E-006  0.3127606E+03  0.7546771E-02  0.1079030E+00
         21   -1    0    0  504  503  0.00000000000E+00  0.00000000000E+00  0.14472630142E+02  0.14472630142E+02  0.00000000000E+00 0.  1.
         21   -1    0    0  503  504 -0.00000000000E+00 -0.00000000000E+00 -0.16897270907E+04  0.16897270907E+04  0.00000000000E+00 0.  1.
         25    2    1    2    0    0 -0.56977920846E+02  0.70344173427E+02 -0.97451221876E+03  0.98666250795E+03  0.12503621028E+03 0.  0.
         25    2    1    2    0    0  0.56977920846E+02 -0.70344173427E+02 -0.70074224184E+03  0.71753721294E+03  0.12500070499E+03 0.  0.
          5    1    3    3  501    0 -0.18004223558E+02  0.10161500496E+03 -0.70315081825E+03  0.71069889862E+03  0.47000000000E+01 0.  1.
         -5    1    3    3    0  501 -0.38973697287E+02 -0.31270831535E+02 -0.27136140051E+03  0.27596360933E+03  0.47000000000E+01 0.  1.
          5    1    4    4  502    0  0.64388957352E+02  0.16399927256E+02 -0.27411658960E+03  0.28209376125E+03  0.47000000000E+01 0. -1.
         -5    1    4    4    0  502 -0.74110365068E+01 -0.86744100683E+02 -0.42662565224E+03  0.43544345168E+03  0.47000000000E+01 0. -1.
<mgrwt>
<rscale>  0 0.31276058E+03</rscale>
<asrwt>0</asrwt>
<pdfrwt beam="1">  1       21 0.22265582E-02 0.31276058E+03</pdfrwt>
<pdfrwt beam="2">  1       21 0.25995804E+00 0.31276058E+03</pdfrwt>
<totfact> 0.55750599E+04</totfact>
</mgrwt>
</event>
<event>
 8    1  0.9974463E-006  0.3241997E+03  0.7546771E-02  0.1073733E+00
         21   -1    0    0  504  503  0.00000000000E+00  0.00000000000E+00  0.22652274096E+03  0.22652274096E+03  0.00000000000E+00 0. -1.
         21   -1    0    0  503  504 -0.00000000000E+00 -0.00000000000E+00 -0.11599880307E+03  0.11599880307E+03  0.00000000000E+00 0. -1.
         25    2    1    2    0    0 -0.89765290485E+02  0.14629631749E+02  0.10679084798E+03  0.18788684547E+03  0.12500139194E+03 0.  0.
         25    2    1    2    0    0  0.89765290485E+02 -0.14629631749E+02  0.37330899130E+01  0.15463469856E+03  0.12500448207E+03 0.  0.
          5    1    3    3  501    0 -0.65051197824E+02  0.62960490371E+02  0.33680698795E+02  0.96706572463E+02  0.47000000000E+01 0.  1.
         -5    1    3    3    0  501 -0.24714092661E+02 -0.48330858622E+02  0.73110149188E+02  0.91180273007E+02  0.47000000000E+01 0.  1.
          5    1    4    4  502    0  0.57312388741E+02 -0.69299871942E+02 -0.54991482758E+01  0.90219248424E+02  0.47000000000E+01 0.  1.
         -5    1    4    4    0  502  0.32452901744E+02  0.54670240193E+02  0.92322381888E+01  0.64415450137E+02  0.47000000000E+01 0.  1.
<mgrwt>
<rscale>  0 0.32419973E+03</rscale>
<asrwt>0</asrwt>
<pdfrwt beam="1">  1       21 0.34849652E-01 0.32419973E+03</pdfrwt>
<pdfrwt beam="2">  1       21 0.17845970E-01 0.32419973E+03</pdfrwt>
<totfact> 0.21906702E+05</totfact>
</mgrwt>
</event>
<event>
 8    1  0.9974463E-006  0.4588031E+03  0.7546771E-02  0.1025129E+00
         21   -1    0    0  504  503  0.00000000000E+00  0.00000000000E+00  0.80228832026E+03  0.80228832026E+03  0.00000000000E+00 0. -1.
         21   -1    0    0  503  504 -0.00000000000E+00 -0.00000000000E+00 -0.65593718664E+02  0.65593718664E+02  0.00000000000E+00 0. -1.
         25    2    1    2    0    0 -0.69169229916E+02  0.12881148656E+02  0.70699203697E+03  0.72139632880E+03  0.12499846598E+03 0.  0.
         25    2    1    2    0    0  0.69169229916E+02 -0.12881148656E+02  0.29702564620E+02  0.14648571013E+03  0.12500205826E+03 0.  0.
          5    1    3    3  501    0  0.32173153717E+02 -0.74732021387E+01  0.94285626088E+02  0.10001414828E+03  0.47000000000E+01 0.  1.
         -5    1    3    3    0  501 -0.10134238363E+03  0.20354350795E+02  0.61270641089E+03  0.62138218051E+03  0.47000000000E+01 0.  1.
          5    1    4    4  502    0 -0.66753432120E+01 -0.38921954117E+02  0.49751991776E+02  0.63693244579E+02  0.47000000000E+01 0. -1.
         -5    1    4    4    0  502  0.75844573128E+02  0.26040805461E+02 -0.20049427156E+02  0.82792465547E+02  0.47000000000E+01 0. -1.
<mgrwt>
<rscale>  0 0.45880311E+03</rscale>
<asrwt>0</asrwt>
<pdfrwt beam="1">  1       21 0.12342897E+00 0.45880311E+03</pdfrwt>
<pdfrwt beam="2">  1       21 0.10091342E-01 0.45880311E+03</pdfrwt>
<totfact> 0.35620102E+04</totfact>
</mgrwt>
</event>
<event>
 8    1  0.9974463E-006  0.2862227E+03  0.7546771E-02  0.1092338E+00
         21   -1    0    0  504  503  0.00000000000E+00  0.00000000000E+00  0.93196377280E+02  0.93196377280E+02  0.00000000000E+00 0. -1.
         21   -1    0    0  503  504 -0.00000000000E+00 -0.00000000000E+00 -0.21976029862E+03  0.21976029862E+03  0.00000000000E+00 0. -1.
         25    2    1    2    0    0 -0.19478970957E+02  0.66717596635E+02 -0.69050746356E+02  0.15880399001E+03  0.12498013306E+03 0.  0.
         25    2    1    2    0    0  0.19478970957E+02 -0.66717596635E+02 -0.57513174984E+02  0.15415268589E+03  0.12499846903E+03 0.  0.
          5    1    3    3  501    0  0.40401215189E+02  0.28262560511E+02  0.11878442240E+02  0.50933465476E+02  0.47000000000E+01 0. -1.
         -5    1    3    3    0  501 -0.59880186146E+02  0.38455036123E+02 -0.80929188596E+02  0.10787052453E+03  0.47000000000E+01 0. -1.
          5    1    4    4  502    0  0.68042624444E+02 -0.45363088333E+02 -0.95278815372E+01  0.82465017134E+02  0.47000000000E+01 0. -1.
         -5    1    4    4    0  502 -0.48563653487E+02 -0.21354508302E+02 -0.47985293447E+02  0.71687668758E+02  0.47000000000E+01 0. -1.
<mgrwt>
<rscale>  0 0.28622274E+03</rscale>
<asrwt>0</asrwt>
<pdfrwt beam="1">  1       21 0.14337904E-01 0.28622274E+03</pdfrwt>
<pdfrwt beam="2">  1       21 0.33809276E-01 0.28622274E+03</pdfrwt>
<totfact> 0.35155362E+05</totfact>
</mgrwt>
</event>
<event>
 8    1  0.9974463E-006  0.2886775E+03  0.7546771E-02  0.1091042E+00
         21   -1    0    0  504  503  0.00000000000E+00  0.00000000000E+00  0.15322066431E+03  0.15322066431E+03  0.00000000000E+00 0. -1.
         21   -1    0    0  503  504 -0.00000000000E+00 -0.00000000000E+00 -0.13597172777E+03  0.13597172777E+03  0.00000000000E+00 0. -1.
         25    2    1    2    0    0  0.70091016921E+01 -0.71531289697E+02  0.15073695858E+02  0.14497791758E+03  0.12500210945E+03 0.  0.
         25    2    1    2    0    0 -0.70091016921E+01  0.71531289697E+02  0.21752406780E+01  0.14421447450E+03  0.12500891997E+03 0.  0.
          5    1    3    3  501    0 -0.26513554340E+02  0.83036222744E+01  0.45127661801E+02  0.53202580447E+02  0.47000000000E+01 0. -1.
         -5    1    3    3    0  501  0.33522656032E+02 -0.79834911972E+02 -0.30053965943E+02  0.91775337133E+02  0.47000000000E+01 0. -1.
          5    1    4    4  502    0 -0.21783156536E+01  0.91251310882E+02  0.40982237759E+02  0.10016576565E+03  0.47000000000E+01 0. -1.
         -5    1    4    4    0  502 -0.48307860386E+01 -0.19720021185E+02 -0.38806997081E+02  0.44048708854E+02  0.47000000000E+01 0. -1.
<mgrwt>
<rscale>  0 0.28867753E+03</rscale>
<asrwt>0</asrwt>
<pdfrwt beam="1">  1       21 0.23572410E-01 0.28867753E+03</pdfrwt>
<pdfrwt beam="2">  1       21 0.20918727E-01 0.28867753E+03</pdfrwt>
<totfact> 0.35206436E+05</totfact>
</mgrwt>
</event>
<event>
 8    1  0.9974463E-006  0.2826600E+03  0.7546771E-02  0.1094245E+00
         21   -1    0    0  504  503  0.00000000000E+00  0.00000000000E+00  0.33089824886E+02  0.33089824886E+02  0.00000000000E+00 0. -1.
         21   -1    0    0  503  504 -0.00000000000E+00 -0.00000000000E+00 -0.60363479191E+03  0.60363479191E+03  0.00000000000E+00 0. -1.
         25    2    1    2    0    0  0.21753087582E+02 -0.58246337915E+02 -0.23583438609E+03  0.27406013728E+03  0.12500107394E+03 0.  0.
         25    2    1    2    0    0 -0.21753087582E+02  0.58246337915E+02 -0.33471058094E+03  0.36266447951E+03  0.12501407525E+03 0.  0.
          5    1    3    3  501    0 -0.42262833000E+02 -0.23907464789E+02 -0.33901076702E+02  0.59406118602E+02  0.47000000000E+01 0. -1.
         -5    1    3    3    0  501  0.64015920582E+02 -0.34338873127E+02 -0.20193330939E+03  0.21465401868E+03  0.47000000000E+01 0. -1.
          5    1    4    4  502    0  0.24975456296E+02 -0.96267761567E+01 -0.12251974735E+02  0.29810218404E+02  0.47000000000E+01 0.  1.
         -5    1    4    4    0  502 -0.46728543878E+02  0.67873114072E+02 -0.32245860620E+03  0.33285426111E+03  0.47000000000E+01 0.  1.
<mgrwt>
<rscale>  0 0.28266000E+03</rscale>
<asrwt>0</asrwt>
<pdfrwt beam="1">  1       21 0.50907424E-02 0.28266000E+03</pdfrwt>
<pdfrwt beam="2">  1       21 0.92866890E-01 0.28266000E+03</pdfrwt>
<totfact> 0.24844036E+05</totfact>
</mgrwt>
</event>
<event>
 8    1  0.9974463E-006  0.3430505E+03  0.7546771E-02  0.1065504E+00
         21   -1    0    0  504  503  0.00000000000E+00  0.00000000000E+00  0.82138173576E+02  0.82138173576E+02  0.00000000000E+00 0. -1.
         21   -1    0    0  503  504 -0.00000000000E+00 -0.00000000000E+00 -0.35818794398E+03  0.35818794398E+03  0.00000000000E+00 0. -1.
         25    2    1    2    0    0 -0.57286078954E+02  0.36152275720E+02 -0.26119110545E+03  0.29737980541E+03  0.12500109287E+03 0.  0.
         25    2    1    2    0    0  0.57286078954E+02 -0.36152275720E+02 -0.14858664955E+02  0.14294631215E+03  0.12499674536E+03 0.  0.
          5    1    3    3  501    0  0.26086709981E+02  0.15851694202E+02 -0.10909189177E+02  0.32755046255E+02  0.47000000000E+01 0. -1.
         -5    1    3    3    0  501 -0.83372788935E+02  0.20300581518E+02 -0.25028191628E+03  0.26462475916E+03  0.47000000000E+01 0. -1.
          5    1    4    4  502    0  0.87264471575E+02  0.86865487433E+01 -0.12948252464E+02  0.88771005233E+02  0.47000000000E+01 0.  1.
         -5    1    4    4    0  502 -0.29978392620E+02 -0.44838824463E+02 -0.19104124911E+01  0.54175306914E+02  0.47000000000E+01 0.  1.
<mgrwt>
<rscale>  0 0.34305045E+03</rscale>
<asrwt>0</asrwt>
<pdfrwt beam="1">  1       21 0.12636642E-01 0.34305045E+03</pdfrwt>
<pdfrwt beam="2">  1       21 0.55105838E-01 0.34305045E+03</pdfrwt>
<totfact> 0.15942232E+05</totfact>
</mgrwt>
</event>
<event>
 8    1  0.9974463E-006  0.3021809E+03  0.7546771E-02  0.1084155E+00
         21   -1    0    0  504  503  0.00000000000E+00  0.00000000000E+00  0.16778914170E+02  0.16778914170E+02  0.00000000000E+00 0.  1.
         21   -1    0    0  503  504 -0.00000000000E+00 -0.00000000000E+00 -0.13605367345E+04  0.13605367345E+04  0.00000000000E+00 0.  1.
         25    2    1    2    0    0  0.51136827515E+02 -0.25351561790E+02 -0.95817350837E+03  0.96797707439E+03  0.12500187033E+03 0.  0.
         25    2    1    2    0    0 -0.51136827515E+02  0.25351561790E+02 -0.38558431192E+03  0.40933857424E+03  0.12500051980E+03 0.  0.
          5    1    3    3  501    0  0.73215653609E+02  0.26976400267E+02 -0.63804611647E+03  0.64281661059E+03  0.47000000000E+01 0. -1.
         -5    1    3    3    0  501 -0.22078826094E+02 -0.52327962057E+02 -0.32012739189E+03  0.32516046379E+03  0.47000000000E+01 0. -1.
          5    1    4    4  502    0 -0.54958929750E+00  0.61604682709E+02 -0.10442162070E+03  0.12133179241E+03  0.47000000000E+01 0.  1.
         -5    1    4    4    0  502 -0.50587238217E+02 -0.36253120918E+02 -0.28116269122E+03  0.28800678183E+03  0.47000000000E+01 0.  1.
<mgrwt>
<rscale>  0 0.30218093E+03</rscale>
<asrwt>0</asrwt>
<pdfrwt beam="1">  1       21 0.25813700E-02 0.30218093E+03</pdfrwt>
<pdfrwt beam="2">  1       21 0.20931346E+00 0.30218093E+03</pdfrwt>
<totfact> 0.89934224E+04</totfact>
</mgrwt>
</event>
<event>
 8    1  0.9974463E-006  0.2707272E+03  0.7546771E-02  0.1100864E+00
         21   -1    0    0  504  503  0.00000000000E+00  0.00000000000E+00  0.34719127493E+02  0.34719127493E+02  0.00000000000E+00 0. -1.
         21   -1    0    0  503  504 -0.00000000000E+00 -0.00000000000E+00 -0.52775816855E+03  0.52775816855E+03  0.00000000000E+00 0. -1.
         25    2    1    2    0    0  0.26480543427E+02 -0.34657322860E+02 -0.30514116298E+03  0.33262331104E+03  0.12499915399E+03 0.  0.
         25    2    1    2    0    0 -0.26480543427E+02  0.34657322860E+02 -0.18789787808E+03  0.22985398500E+03  0.12499957050E+03 0.  0.
          5    1    3    3  501    0 -0.32400332908E+02 -0.50782473060E+02 -0.21732859140E+03  0.22557138068E+03  0.47000000000E+01 0. -1.
         -5    1    3    3    0  501  0.58880876335E+02  0.16125150200E+02 -0.87812571574E+02  0.10705193036E+03  0.47000000000E+01 0. -1.
          5    1    4    4  502    0 -0.68629638342E+02 -0.11202865225E+02 -0.10582661413E+03  0.12671579896E+03  0.47000000000E+01 0. -1.
         -5    1    4    4    0  502  0.42149094915E+02  0.45860188084E+02 -0.82071263949E+02  0.10313818604E+03  0.47000000000E+01 0. -1.
<mgrwt>
<rscale>  0 0.27072719E+03</rscale>
<asrwt>0</asrwt>
<pdfrwt beam="1">  1       21 0.53414044E-02 0.27072719E+03</pdfrwt>
<pdfrwt beam="2">  1       21 0.81193561E-01 0.27072719E+03</pdfrwt>
<totfact> 0.31340048E+05</totfact>
</mgrwt>
</event>
<event>
 8    1  0.9974463E-006  0.4666008E+03  0.7546771E-02  0.1022884E+00
         21   -1    0    0  504  503  0.00000000000E+00  0.00000000000E+00  0.13183147052E+03  0.13183147052E+03  0.00000000000E+00 0. -1.
         21   -1    0    0  503  504 -0.00000000000E+00 -0.00000000000E+00 -0.41286868132E+03  0.41286868132E+03  0.00000000000E+00 0. -1.
         25    2    1    2    0    0  0.40617132214E+02 -0.27490017146E+02  0.82182866367E+02  0.15745479074E+03  0.12503013689E+03 0.  0.
         25    2    1    2    0    0 -0.40617132214E+02  0.27490017146E+02 -0.36322007717E+03  0.38724536111E+03  0.12499877107E+03 0.  0.
          5    1    3    3  501    0  0.58230070251E+02  0.32095679247E+02  0.64331308552E+02  0.92636283215E+02  0.47000000000E+01 0.  1.
         -5    1    3    3    0  501 -0.17612938037E+02 -0.59585696393E+02  0.17851557814E+02  0.64818507522E+02  0.47000000000E+01 0.  1.
          5    1    4    4  502    0 -0.82194269391E+02  0.28219094678E+01 -0.26765423430E+03  0.28004417550E+03  0.47000000000E+01 0.  1.
         -5    1    4    4    0  502  0.41577137177E+02  0.24668107679E+02 -0.95565842866E+02  0.10720118560E+03  0.47000000000E+01 0.  1.
<mgrwt>
<rscale>  0 0.46660084E+03</rscale>
<asrwt>0</asrwt>
<pdfrwt beam="1">  1       21 0.20281765E-01 0.46660084E+03</pdfrwt>
<pdfrwt beam="2">  1       21 0.63518259E-01 0.46660084E+03</pdfrwt>
<totfact> 0.47199435E+04</totfact>
</mgrwt>
</event>
<event>
 8    1  0.9974463E-006  0.4138444E+03  0.7546771E-02  0.1039089E+00
         21   -1    0    0  504  503  0.00000000000E+00  0.00000000000E+00  0.48884507925E+02  0.48884507925E+02  0.00000000000E+00 0.  1.
         21   -1    0    0  503  504 -0.00000000000E+00 -0.00000000000E+00 -0.87587658495E+03  0.87587658495E+03  0.00000000000E+00 0.  1.
         25    2    1    2    0    0 -0.16043513837E+03  0.27298274366E+02 -0.47290384230E+03  0.51550593543E+03  0.12499478386E+03 0.  0.
         25    2    1    2    0    0  0.16043513837E+03 -0.27298274366E+02 -0.35408823472E+03  0.40925515745E+03  0.12500670590E+03 0.  0.
          5    1    3    3  501    0 -0.37282134775E+02  0.64646834884E+02 -0.20620454558E+03  0.21934351017E+03  0.47000000000E+01 0. -1.
         -5    1    3    3    0  501 -0.12315300359E+03 -0.37348560518E+02 -0.26669929672E+03  0.29616242526E+03  0.47000000000E+01 0. -1.
          5    1    4    4  502    0  0.91801756062E+02  0.39405699744E+02 -0.11936271641E+03  0.15572385706E+03  0.47000000000E+01 0.  1.
         -5    1    4    4    0  502  0.68633382304E+02 -0.66703974110E+02 -0.23472551831E+03  0.25353130039E+03  0.47000000000E+01 0.  1.
<mgrwt>
<rscale>  0 0.41384440E+03</rscale>
<asrwt>0</asrwt>
<pdfrwt beam="1">  1       21 0.75206945E-02 0.41384440E+03</pdfrwt>
<pdfrwt beam="2">  1       21 0.13475023E+00 0.41384440E+03</pdfrwt>
<totfact> 0.48476788E+04</totfact>
</mgrwt>
</event>
<event>
 8    1  0.9974463E-006  0.2779890E+03  0.7546771E-02  0.1096792E+00
         21   -1    0    0  504  503  0.00000000000E+00  0.00000000000E+00  0.95255155026E+03  0.95255155026E+03  0.00000000000E+00 0.  1.
         21   -1    0    0  503  504 -0.00000000000E+00 -0.00000000000E+00 -0.20281805195E+02  0.20281805195E+02  0.00000000000E+00 0.  1.
         25    2    1    2    0    0 -0.32413362992E+02 -0.66756293931E+01  0.28774194387E+03  0.31546127619E+03  0.12500080154E+03 0.  0.
         25    2    1    2    0    0  0.32413362992E+02  0.66756293931E+01  0.64452780119E+03  0.65737207926E+03  0.12500709560E+03 0.  0.
          5    1    3    3  501    0 -0.89726422201E+01 -0.31866280192E+02  0.90865260503E+01  0.34650008331E+02  0.47000000000E+01 0.  1.
         -5    1    3    3    0  501 -0.23440720771E+02  0.25190650799E+02  0.27865541782E+03  0.28081126786E+03  0.47000000000E+01 0.  1.
          5    1    4    4  502    0 -0.31229303423E+02  0.43968278934E+02  0.22813053628E+03  0.23446558495E+03  0.47000000000E+01 0.  1.
         -5    1    4    4    0  502  0.63642666415E+02 -0.37292649541E+02  0.41639726492E+03  0.42290649431E+03  0.47000000000E+01 0.  1.
<mgrwt>
<rscale>  0 0.27798896E+03</rscale>
<asrwt>0</asrwt>
<pdfrwt beam="1">  1       21 0.14654636E+00 0.27798896E+03</pdfrwt>
<pdfrwt beam="2">  1       21 0.31202785E-02 0.27798896E+03</pdfrwt>
<totfact> 0.18256399E+05</totfact>
</mgrwt>
</event>
<event>
 8    1  0.9974463E-006  0.6313956E+03  0.7546771E-02  0.9842329E-01
         21   -1    0    0  504  503  0.00000000000E+00  0.00000000000E+00  0.15328856785E+04  0.15328856785E+04  0.00000000000E+00 0.  1.
         21   -1    0    0  503  504 -0.00000000000E+00 -0.00000000000E+00 -0.65017960236E+02  0.65017960236E+02  0.00000000000E+00 0.  1.
         25    2    1    2    0    0 -0.20571659639E+03 -0.18695015150E+03  0.52569927480E+03  0.60766314032E+03  0.12500034964E+03 0.  0.
         25    2    1    2    0    0  0.20571659639E+03  0.18695015150E+03  0.94216844343E+03  0.99024049838E+03  0.12500076659E+03 0.  0.
          5    1    3    3  501    0 -0.11050196352E+03 -0.14331837651E+03  0.22246498054E+03  0.28681631501E+03  0.47000000000E+01 0.  1.
         -5    1    3    3    0  501 -0.95214632876E+02 -0.43631774987E+02  0.30323429426E+03  0.32084682532E+03  0.47000000000E+01 0.  1.
          5    1    4    4  502    0  0.12353700374E+03  0.10424351463E+03  0.33533323856E+03  0.37228829221E+03  0.47000000000E+01 0. -1.
         -5    1    4    4    0  502  0.82179592651E+02  0.82706636874E+02  0.60683520488E+03  0.61795220617E+03  0.47000000000E+01 0. -1.
<mgrwt>
<rscale>  0 0.63139560E+03</rscale>
<asrwt>0</asrwt>
<pdfrwt beam="1">  1       21 0.23582854E+00 0.63139560E+03</pdfrwt>
<pdfrwt beam="2">  1       21 0.10002764E-01 0.63139560E+03</pdfrwt>
<totfact> 0.52409846E+03</totfact>
</mgrwt>
</event>
<event>
 8    1  0.9974463E-006  0.2652835E+03  0.7546771E-02  0.1104010E+00
         21   -1    0    0  504  503  0.00000000000E+00  0.00000000000E+00  0.53134250318E+02  0.53134250318E+02  0.00000000000E+00 0.  1.
         21   -1    0    0  503  504 -0.00000000000E+00 -0.00000000000E+00 -0.33112028660E+03  0.33112028660E+03  0.00000000000E+00 0.  1.
         25    2    1    2    0    0  0.71532192282E+01 -0.42847951785E+02 -0.12584570240E+03  0.18261820718E+03  0.12500061305E+03 0.  0.
         25    2    1    2    0    0 -0.71532192282E+01  0.42847951785E+02 -0.15214033389E+03  0.20163632974E+03  0.12499365088E+03 0.  0.
          5    1    3    3  501    0 -0.30853056105E+02  0.18212428574E+02 -0.99533580255E+02  0.10588969366E+03  0.47000000000E+01 0.  1.
         -5    1    3    3    0  501  0.38006275333E+02 -0.61060380359E+02 -0.26312122142E+02  0.76728513513E+02  0.47000000000E+01 0.  1.
          5    1    4    4  502    0  0.10415217059E+01  0.46128813808E+02  0.27147122227E+01  0.46458711705E+02  0.47000000000E+01 0. -1.
         -5    1    4    4    0  502 -0.81947409341E+01 -0.32808620239E+01 -0.15485504611E+03  0.15517761804E+03  0.47000000000E+01 0. -1.
<mgrwt>
<rscale>  0 0.26528346E+03</rscale>
<asrwt>0</asrwt>
<pdfrwt beam="1">  1       21 0.81745000E-02 0.26528346E+03</pdfrwt>
<pdfrwt beam="2">  1       21 0.50941583E-01 0.26528346E+03</pdfrwt>
<totfact> 0.41692691E+05</totfact>
</mgrwt>
</event>
<event>
 8    1  0.9974463E-006  0.2691273E+03  0.7546771E-02  0.1101780E+00
         21   -1    0    0  504  503  0.00000000000E+00  0.00000000000E+00  0.13216166041E+03  0.13216166041E+03  0.00000000000E+00 0. -1.
         21   -1    0    0  503  504 -0.00000000000E+00 -0.00000000000E+00 -0.13700930450E+03  0.13700930450E+03  0.00000000000E+00 0. -1.
         25    2    1    2    0    0  0.24448792390E+02 -0.14974370005E+02  0.38344396882E+02  0.13385641715E+03  0.12500108973E+03 0.  0.
         25    2    1    2    0    0 -0.24448792390E+02  0.14974370005E+02 -0.43192040980E+02  0.13531454776E+03  0.12498999650E+03 0.  0.
          5    1    3    3  501    0 -0.11076704763E+02 -0.16720121483E+02  0.77827431900E+02  0.80507484167E+02  0.47000000000E+01 0.  1.
         -5    1    3    3    0  501  0.35525497153E+02  0.17457514785E+01 -0.39483035018E+02  0.53348932983E+02  0.47000000000E+01 0.  1.
          5    1    4    4  502    0 -0.95059557802E+01  0.65208671119E+02  0.17884365695E+01  0.66089503628E+02  0.47000000000E+01 0. -1.
         -5    1    4    4    0  502 -0.14942836610E+02 -0.50234301114E+02 -0.44980477549E+02  0.69225044131E+02  0.47000000000E+01 0. -1.
<mgrwt>
<rscale>  0 0.26912731E+03</rscale>
<asrwt>0</asrwt>
<pdfrwt beam="1">  1       21 0.20332563E-01 0.26912731E+03</pdfrwt>
<pdfrwt beam="2">  1       21 0.21078354E-01 0.26912731E+03</pdfrwt>
<totfact> 0.46124765E+05</totfact>
</mgrwt>
</event>
<event>
 8    1  0.9974463E-006  0.2678993E+03  0.7546771E-02  0.1102488E+00
         21   -1    0    0  504  503  0.00000000000E+00  0.00000000000E+00  0.57811489616E+02  0.57811489616E+02  0.00000000000E+00 0.  1.
         21   -1    0    0  503  504 -0.00000000000E+00 -0.00000000000E+00 -0.31036233072E+03  0.31036233072E+03  0.00000000000E+00 0.  1.
         25    2    1    2    0    0  0.23279285864E+02  0.17210278293E+02 -0.17914064628E+03  0.22035132587E+03  0.12500086733E+03 0.  0.
         25    2    1    2    0    0 -0.23279285864E+02 -0.17210278293E+02 -0.73410194822E+02  0.14782249447E+03  0.12499725732E+03 0.  0.
          5    1    3    3  501    0 -0.94117345754E+01 -0.45426293993E+02 -0.30533897491E+02  0.55736324149E+02  0.47000000000E+01 0.  1.
         -5    1    3    3    0  501  0.32691020439E+02  0.62636572286E+02 -0.14860674879E+03  0.16461500172E+03  0.47000000000E+01 0.  1.
          5    1    4    4  502    0 -0.24938842658E+02 -0.20344888793E+02  0.29997655230E+02  0.44247143325E+02  0.47000000000E+01 0.  1.
         -5    1    4    4    0  502  0.16595567943E+01  0.31346104997E+01 -0.10340785005E+03  0.10357535114E+03  0.47000000000E+01 0.  1.
<mgrwt>
<rscale>  0 0.26789930E+03</rscale>
<asrwt>0</asrwt>
<pdfrwt beam="1">  1       21 0.88940755E-02 0.26789930E+03</pdfrwt>
<pdfrwt beam="2">  1       21 0.47748050E-01 0.26789930E+03</pdfrwt>
<totfact> 0.41145763E+05</totfact>
</mgrwt>
</event>
<event>
 8    1  0.9974463E-006  0.3453489E+03  0.7546771E-02  0.1064540E+00
         21   -1    0    0  504  503  0.00000000000E+00  0.00000000000E+00  0.71311587447E+02  0.71311587447E+02  0.00000000000E+00 0.  1.
         21   -1    0    0  503  504 -0.00000000000E+00 -0.00000000000E+00 -0.41811520671E+03  0.41811520671E+03  0.00000000000E+00 0.  1.
         25    2    1    2    0    0  0.11797605354E+03  0.16399965377E+02 -0.17006678016E+03  0.24235055971E+03  0.12499510393E+03 0.  0.
         25    2    1    2    0    0 -0.11797605354E+03 -0.16399965377E+02 -0.17673683911E+03  0.24707623445E+03  0.12499378888E+03 0.  0.
          5    1    3    3  501    0  0.13414819425E+03  0.84976479189E+01 -0.17716841801E+03  0.22243805066E+03  0.47000000000E+01 0.  1.
         -5    1    3    3    0  501 -0.16172140717E+02  0.79023174578E+01  0.71016378515E+01  0.19912509052E+02  0.47000000000E+01 0.  1.
          5    1    4    4  502    0 -0.49474541021E+02 -0.66712880025E+02 -0.59862687520E+02  0.10248887709E+03  0.47000000000E+01 0.  1.
         -5    1    4    4    0  502 -0.68501512516E+02  0.50312914649E+02 -0.11687415159E+03  0.14458735736E+03  0.47000000000E+01 0.  1.
<mgrwt>
<rscale>  0 0.34534886E+03</rscale>
<asrwt>0</asrwt>
<pdfrwt beam="1">  1       21 0.10971014E-01 0.34534886E+03</pdfrwt>
<pdfrwt beam="2">  1       21 0.64325416E-01 0.34534886E+03</pdfrwt>
<totfact> 0.14698677E+05</totfact>
</mgrwt>
</event>
<event>
 8    1  0.9974463E-006  0.2578876E+03  0.7546771E-02  0.1108419E+00
         21   -1    0    0  504  503  0.00000000000E+00  0.00000000000E+00  0.11514899428E+04  0.11514899428E+04  0.00000000000E+00 0.  1.
         21   -1    0    0  503  504 -0.00000000000E+00 -0.00000000000E+00 -0.14439117860E+02  0.14439117860E+02  0.00000000000E+00 0.  1.
         25    2    1    2    0    0 -0.20598250532E+02  0.12816198138E+02  0.47634770515E+03  0.49306875432E+03  0.12498446872E+03 0.  0.
         25    2    1    2    0    0  0.20598250532E+02 -0.12816198138E+02  0.66070311983E+03  0.67286030638E+03  0.12499534588E+03 0.  0.
          5    1    3    3  501    0 -0.60831455051E+02 -0.21468264132E+02  0.35164461436E+03  0.35754353175E+03  0.47000000000E+01 0. -1.
         -5    1    3    3    0  501  0.40233204519E+02  0.34284462270E+02  0.12470309080E+03  0.13552522257E+03  0.47000000000E+01 0. -1.
          5    1    4    4  502    0  0.61639982695E+02 -0.11999185022E+02  0.56656430433E+03  0.57005321581E+03  0.47000000000E+01 0. -1.
         -5    1    4    4    0  502 -0.41041732163E+02 -0.81701311573E+00  0.94138815495E+02  0.10280709057E+03  0.47000000000E+01 0. -1.
<mgrwt>
<rscale>  0 0.25788756E+03</rscale>
<asrwt>0</asrwt>
<pdfrwt beam="1">  1       21 0.17715223E+00 0.25788756E+03</pdfrwt>
<pdfrwt beam="2">  1       21 0.22214037E-02 0.25788756E+03</pdfrwt>
<totfact> 0.19202752E+05</totfact>
</mgrwt>
</event>
<event>
 8    1  0.9974463E-006  0.2608375E+03  0.7546771E-02  0.1106641E+00
         21   -1    0    0  504  503  0.00000000000E+00  0.00000000000E+00  0.56101139287E+02  0.56101139287E+02  0.00000000000E+00 0.  1.
         21   -1    0    0  503  504 -0.00000000000E+00 -0.00000000000E+00 -0.30318550197E+03  0.30318550197E+03  0.00000000000E+00 0.  1.
         25    2    1    2    0    0 -0.44001577697E+01  0.36450589359E+02 -0.11534089720E+03  0.17400136616E+03  0.12499978403E+03 0.  0.
         25    2    1    2    0    0  0.44001577697E+01 -0.36450589359E+02 -0.13174346548E+03  0.18528527509E+03  0.12500514235E+03 0.  0.
          5    1    3    3  501    0 -0.34631943010E+02  0.86973547585E+01  0.13682560253E+02  0.38526846634E+02  0.47000000000E+01 0.  1.
         -5    1    3    3    0  501  0.30231785241E+02  0.27753234600E+02 -0.12902345745E+03  0.13547451953E+03  0.47000000000E+01 0.  1.
          5    1    4    4  502    0 -0.33878174674E+02 -0.26875474187E+02 -0.13832864756E+03  0.14500664318E+03  0.47000000000E+01 0.  1.
         -5    1    4    4    0  502  0.38278332444E+02 -0.95751151715E+01  0.65851820761E+01  0.40278631906E+02  0.47000000000E+01 0.  1.
<mgrwt>
<rscale>  0 0.26083751E+03</rscale>
<asrwt>0</asrwt>
<pdfrwt beam="1">  1       21 0.86309444E-02 0.26083751E+03</pdfrwt>
<pdfrwt beam="2">  1       21 0.46643924E-01 0.26083751E+03</pdfrwt>
<totfact> 0.45610812E+05</totfact>
</mgrwt>
</event>
<event>
 8    1  0.9974463E-006  0.2687613E+03  0.7546771E-02  0.1101991E+00
         21   -1    0    0  504  503  0.00000000000E+00  0.00000000000E+00  0.14691280999E+03  0.14691280999E+03  0.00000000000E+00 0. -1.
         21   -1    0    0  503  504 -0.00000000000E+00 -0.00000000000E+00 -0.12291754934E+03  0.12291754934E+03  0.00000000000E+00 0. -1.
         25    2    1    2    0    0  0.26580806429E+02 -0.30443223175E+02 -0.16412866096E+02  0.13238743650E+03  0.12499488815E+03 0.  0.
         25    2    1    2    0    0 -0.26580806429E+02  0.30443223175E+02  0.40408126747E+02  0.13744292282E+03  0.12499764485E+03 0.  0.
          5    1    3    3  501    0  0.63238616178E+02 -0.21562689439E+02  0.29153950661E+02  0.73048716560E+02  0.47000000000E+01 0. -1.
         -5    1    3    3    0  501 -0.36657809749E+02 -0.88805337358E+01 -0.45566816757E+02  0.59338719942E+02  0.47000000000E+01 0. -1.
          5    1    4    4  502    0  0.36663772358E+02 -0.25491797385E+02  0.25310641237E+02  0.51543986044E+02  0.47000000000E+01 0. -1.
         -5    1    4    4    0  502 -0.63244578787E+02  0.55935020560E+02  0.15097485510E+02  0.85898936779E+02  0.47000000000E+01 0. -1.
<mgrwt>
<rscale>  0 0.26876133E+03</rscale>
<asrwt>0</asrwt>
<pdfrwt beam="1">  1       21 0.22601971E-01 0.26876133E+03</pdfrwt>
<pdfrwt beam="2">  1       21 0.18910392E-01 0.26876133E+03</pdfrwt>
<totfact> 0.46302196E+05</totfact>
</mgrwt>
</event>
<event>
 8    1  0.9974463E-006  0.2520988E+03  0.7546771E-02  0.1111986E+00
         21   -1    0    0  504  503  0.00000000000E+00  0.00000000000E+00  0.37296980204E+02  0.37296980204E+02  0.00000000000E+00 0. -1.
         21   -1    0    0  503  504 -0.00000000000E+00 -0.00000000000E+00 -0.42599844799E+03  0.42599844799E+03  0.00000000000E+00 0. -1.
         25    2    1    2    0    0 -0.78425476981E+01 -0.14053334479E+02 -0.19829961981E+03  0.23496095531E+03  0.12499963816E+03 0.  0.
         25    2    1    2    0    0  0.78425476981E+01  0.14053334479E+02 -0.19040184798E+03  0.22833447288E+03  0.12499906412E+03 0.  0.
          5    1    3    3  501    0  0.84474740452E+00  0.45862071200E+01  0.17200521999E+02  0.18430812542E+02  0.47000000000E+01 0.  1.
         -5    1    3    3    0  501 -0.86872951026E+01 -0.18639541599E+02 -0.21550014181E+03  0.21653014277E+03  0.47000000000E+01 0.  1.
          5    1    4    4  502    0  0.25742831667E+02  0.55296180695E+02 -0.44659459677E+02  0.75742447282E+02  0.47000000000E+01 0. -1.
         -5    1    4    4    0  502 -0.17900283969E+02 -0.41242846216E+02 -0.14574238830E+03  0.15259202560E+03  0.47000000000E+01 0. -1.
<mgrwt>
<rscale>  0 0.25209884E+03</rscale>
<asrwt>0</asrwt>
<pdfrwt beam="1">  1       21 0.57379974E-02 0.25209884E+03</pdfrwt>
<pdfrwt beam="2">  1       21 0.65538218E-01 0.25209884E+03</pdfrwt>
<totfact> 0.44960149E+05</totfact>
</mgrwt>
</event>
<event>
 8    1  0.9974463E-006  0.4972686E+03  0.7546771E-02  0.1014494E+00
         21   -1    0    0  504  503  0.00000000000E+00  0.00000000000E+00  0.44382963715E+03  0.44382963715E+03  0.00000000000E+00 0. -1.
         21   -1    0    0  503  504 -0.00000000000E+00 -0.00000000000E+00 -0.13928546118E+03  0.13928546118E+03  0.00000000000E+00 0. -1.
         25    2    1    2    0    0  0.23268378409E+02 -0.20731869130E+03  0.91646282087E+02  0.25989442328E+03  0.12499445201E+03 0.  0.
         25    2    1    2    0    0 -0.23268378409E+02  0.20731869130E+03  0.21289789389E+03  0.32322067505E+03  0.12499453733E+03 0.  0.
          5    1    3    3  501    0  0.16048424434E+02  0.11182891901E+02 -0.51364875800E+01  0.20762526406E+02  0.47000000000E+01 0.  1.
         -5    1    3    3    0  501  0.72199539747E+01 -0.21850158320E+03  0.96782769667E+02  0.23913189687E+03  0.47000000000E+01 0.  1.
          5    1    4    4  502    0  0.30794153749E+02  0.41938262200E+01  0.40892990359E+02  0.51577075760E+02  0.47000000000E+01 0. -1.
         -5    1    4    4    0  502 -0.54062532157E+02  0.20312486508E+03  0.17200490353E+03  0.27164359929E+03  0.47000000000E+01 0. -1.
<mgrwt>
<rscale>  0 0.49726860E+03</rscale>
<asrwt>0</asrwt>
<pdfrwt beam="1">  1       21 0.68281482E-01 0.49726860E+03</pdfrwt>
<pdfrwt beam="2">  1       21 0.21428533E-01 0.49726860E+03</pdfrwt>
<totfact> 0.35918957E+04</totfact>
</mgrwt>
</event>
<event>
 8    1  0.9974463E-006  0.2906369E+03  0.7546771E-02  0.1090017E+00
         21   -1    0    0  504  503  0.00000000000E+00  0.00000000000E+00  0.62918270146E+02  0.62918270146E+02  0.00000000000E+00 0. -1.
         21   -1    0    0  503  504 -0.00000000000E+00 -0.00000000000E+00 -0.33563305856E+03  0.33563305856E+03  0.00000000000E+00 0. -1.
         25    2    1    2    0    0  0.38836644311E+02 -0.62616626112E+02 -0.12550852142E+03  0.19185323903E+03  0.12500459819E+03 0.  0.
         25    2    1    2    0    0 -0.38836644311E+02  0.62616626112E+02 -0.14720626699E+03  0.20669808968E+03  0.12500115371E+03 0.  0.
          5    1    3    3  501    0 -0.10472901837E+02 -0.88473962194E+02 -0.78414283409E+02  0.11877800092E+03  0.47000000000E+01 0. -1.
         -5    1    3    3    0  501  0.49309546148E+02  0.25857336082E+02 -0.47094238015E+02  0.73075238110E+02  0.47000000000E+01 0. -1.
          5    1    4    4  502    0 -0.45323715403E+02  0.94281874318E+02 -0.79331230835E+02  0.13137292411E+03  0.47000000000E+01 0.  1.
         -5    1    4    4    0  502  0.64870710926E+01 -0.31665248206E+02 -0.67875036158E+02  0.75325165574E+02  0.47000000000E+01 0.  1.
<mgrwt>
<rscale>  0 0.29063690E+03</rscale>
<asrwt>0</asrwt>
<pdfrwt beam="1">  1       21 0.96797340E-02 0.29063690E+03</pdfrwt>
<pdfrwt beam="2">  1       21 0.51635854E-01 0.29063690E+03</pdfrwt>
<totfact> 0.29905480E+05</totfact>
</mgrwt>
</event>
<event>
 8    1  0.9974463E-006  0.4358269E+03  0.7546771E-02  0.1032035E+00
         21   -1    0    0  504  503  0.00000000000E+00  0.00000000000E+00  0.35741643267E+03  0.35741643267E+03  0.00000000000E+00 0.  1.
         21   -1    0    0  503  504 -0.00000000000E+00 -0.00000000000E+00 -0.13285981645E+03  0.13285981645E+03  0.00000000000E+00 0.  1.
         25    2    1    2    0    0 -0.40980797556E+02  0.14597819474E+03  0.63134700714E+01  0.19659749718E+03  0.12498662684E+03 0.  0.
         25    2    1    2    0    0  0.40980797556E+02 -0.14597819474E+03  0.21824314615E+03  0.29367875193E+03  0.12501231694E+03 0.  0.
          5    1    3    3  501    0 -0.75496889814E+02  0.14120374278E+03  0.13336219848E+02  0.16074272023E+03  0.47000000000E+01 0.  1.
         -5    1    3    3    0  501  0.34516092258E+02  0.47744519577E+01 -0.70227497770E+01  0.35854776958E+02  0.47000000000E+01 0.  1.
          5    1    4    4  502    0  0.60859111636E+02 -0.14519216451E+03  0.13338554885E+03  0.20639377594E+03  0.47000000000E+01 0. -1.
         -5    1    4    4    0  502 -0.19878314080E+02 -0.78603022572E+00  0.84857597308E+02  0.87284975998E+02  0.47000000000E+01 0. -1.
<mgrwt>
<rscale>  0 0.43582695E+03</rscale>
<asrwt>0</asrwt>
<pdfrwt beam="1">  1       21 0.54987143E-01 0.43582695E+03</pdfrwt>
<pdfrwt beam="2">  1       21 0.20439972E-01 0.43582695E+03</pdfrwt>
<totfact> 0.64161937E+04</totfact>
</mgrwt>
</event>
<event>
 8    1  0.9974463E-006  0.3489900E+03  0.7546771E-02  0.1063030E+00
         21   -1    0    0  504  503  0.00000000000E+00  0.00000000000E+00  0.66212748262E+02  0.66212748262E+02  0.00000000000E+00 0.  1.
         21   -1    0    0  503  504 -0.00000000000E+00 -0.00000000000E+00 -0.45985868042E+03  0.45985868042E+03  0.00000000000E+00 0.  1.
         25    2    1    2    0    0 -0.28787935418E+02 -0.12346303051E+02 -0.37417792608E+03  0.39574612378E+03  0.12499879079E+03 0.  0.
         25    2    1    2    0    0  0.28787935418E+02  0.12346303051E+02 -0.19468006081E+02  0.13032530490E+03  0.12499802164E+03 0.  0.
          5    1    3    3  501    0 -0.28893799629E+02 -0.17808234461E+02 -0.38290111080E+03  0.38443118438E+03  0.47000000000E+01 0.  1.
         -5    1    3    3    0  501  0.10586421106E+00  0.54619314098E+01  0.87231847214E+01  0.11314939401E+02  0.47000000000E+01 0.  1.
          5    1    4    4  502    0  0.60721620923E+02 -0.79673361740E+01  0.29597195919E+02  0.68181212218E+02  0.47000000000E+01 0.  1.
         -5    1    4    4    0  502 -0.31933685505E+02  0.20313639225E+02 -0.49065202000E+02  0.62144092686E+02  0.47000000000E+01 0.  1.
<mgrwt>
<rscale>  0 0.34899001E+03</rscale>
<asrwt>0</asrwt>
<pdfrwt beam="1">  1       21 0.10186577E-01 0.34899001E+03</pdfrwt>
<pdfrwt beam="2">  1       21 0.70747488E-01 0.34899001E+03</pdfrwt>
<totfact> 0.13580476E+05</totfact>
</mgrwt>
</event>
<event>
 8    1  0.9974463E-006  0.3976583E+03  0.7546771E-02  0.1044594E+00
         21   -1    0    0  504  503  0.00000000000E+00  0.00000000000E+00  0.98344048574E+02  0.98344048574E+02  0.00000000000E+00 0. -1.
         21   -1    0    0  503  504 -0.00000000000E+00 -0.00000000000E+00 -0.40198704282E+03  0.40198704282E+03  0.00000000000E+00 0. -1.
         25    2    1    2    0    0  0.10782516724E+02  0.73441890837E+01  0.42031193666E+02  0.13252065430E+03  0.12499961118E+03 0.  0.
         25    2    1    2    0    0 -0.10782516724E+02 -0.73441890837E+01 -0.34567418792E+03  0.36781043710E+03  0.12499469455E+03 0.  0.
          5    1    3    3  501    0 -0.28051040697E+02 -0.29368272330E+02  0.62849242795E+02  0.74976487139E+02  0.47000000000E+01 0. -1.
         -5    1    3    3    0  501  0.38833557420E+02  0.36712461413E+02 -0.20818049130E+02  0.57544167163E+02  0.47000000000E+01 0. -1.
          5    1    4    4  502    0 -0.31051803087E+02 -0.21883115406E+02 -0.33954741771E+03  0.34169814763E+03  0.47000000000E+01 0. -1.
         -5    1    4    4    0  502  0.20269286363E+02  0.14538926322E+02 -0.61267702020E+01  0.26112289470E+02  0.47000000000E+01 0. -1.
<mgrwt>
<rscale>  0 0.39765831E+03</rscale>
<asrwt>0</asrwt>
<pdfrwt beam="1">  1       21 0.15129854E-01 0.39765831E+03</pdfrwt>
<pdfrwt beam="2">  1       21 0.61844160E-01 0.39765831E+03</pdfrwt>
<totfact> 0.88117636E+04</totfact>
</mgrwt>
</event>
<event>
 8    1  0.9974463E-006  0.4023177E+03  0.7546771E-02  0.1042980E+00
         21   -1    0    0  504  503  0.00000000000E+00  0.00000000000E+00  0.55917650244E+03  0.55917650244E+03  0.00000000000E+00 0.  1.
         21   -1    0    0  503  504 -0.00000000000E+00 -0.00000000000E+00 -0.72365142024E+02  0.72365142024E+02  0.00000000000E+00 0.  1.
         25    2    1    2    0    0  0.39830651509E+02 -0.14315792900E+03  0.16095673783E+03  0.25221760800E+03  0.12500390754E+03 0.  0.
         25    2    1    2    0    0 -0.39830651509E+02  0.14315792900E+03  0.32585462259E+03  0.37932403646E+03  0.12499926456E+03 0.  0.
          5    1    3    3  501    0  0.60074515131E+02 -0.40393987366E+02  0.11883548204E+03  0.13922852931E+03  0.47000000000E+01 0. -1.
         -5    1    3    3    0  501 -0.20243863622E+02 -0.10276394163E+03  0.42121255791E+02  0.11298907869E+03  0.47000000000E+01 0. -1.
          5    1    4    4  502    0  0.39396039332E+02  0.38791956071E+02  0.15026430836E+03  0.16018213427E+03  0.47000000000E+01 0.  1.
         -5    1    4    4    0  502 -0.79226690841E+02  0.10436597293E+03  0.17559031422E+03  0.21914190219E+03  0.47000000000E+01 0.  1.
<mgrwt>
<rscale>  0 0.40231772E+03</rscale>
<asrwt>0</asrwt>
<pdfrwt beam="1">  1       21 0.86027151E-01 0.40231772E+03</pdfrwt>
<pdfrwt beam="2">  1       21 0.11133099E-01 0.40231772E+03</pdfrwt>
<totfact> 0.73068224E+04</totfact>
</mgrwt>
</event>
<event>
 8    1  0.9974463E-006  0.4356729E+03  0.7546771E-02  0.1032083E+00
         21   -1    0    0  504  503  0.00000000000E+00  0.00000000000E+00  0.40246249977E+03  0.40246249977E+03  0.00000000000E+00 0.  1.
         21   -1    0    0  503  504 -0.00000000000E+00 -0.00000000000E+00 -0.11790594267E+03  0.11790594267E+03  0.00000000000E+00 0.  1.
         25    2    1    2    0    0 -0.83011322352E+02  0.15774372729E+03  0.13347270740E+03  0.25537033049E+03  0.12500031573E+03 0.  0.
         25    2    1    2    0    0  0.83011322352E+02 -0.15774372729E+03  0.15108384970E+03  0.26499811195E+03  0.12499482613E+03 0.  0.
          5    1    3    3  501    0 -0.52578679989E+02  0.96980235948E+02  0.56885848969E+01  0.11056280456E+03  0.47000000000E+01 0.  1.
         -5    1    3    3    0  501 -0.30432642363E+02  0.60763491345E+02  0.12778412250E+03  0.14480752593E+03  0.47000000000E+01 0.  1.
          5    1    4    4  502    0  0.11477100922E+03 -0.11170048258E+03  0.98470139696E+02  0.18806339564E+03  0.47000000000E+01 0. -1.
         -5    1    4    4    0  502 -0.31759686873E+02 -0.46043244715E+02  0.52613710000E+02  0.76934716313E+02  0.47000000000E+01 0. -1.
<mgrwt>
<rscale>  0 0.43567291E+03</rscale>
<asrwt>0</asrwt>
<pdfrwt beam="1">  1       21 0.61917307E-01 0.43567291E+03</pdfrwt>
<pdfrwt beam="2">  1       21 0.18139376E-01 0.43567291E+03</pdfrwt>
<totfact> 0.62118262E+04</totfact>
</mgrwt>
</event>
<event>
 8    1  0.9974463E-006  0.3456277E+03  0.7546771E-02  0.1064424E+00
         21   -1    0    0  504  503  0.00000000000E+00  0.00000000000E+00  0.12233367115E+03  0.12233367115E+03  0.00000000000E+00 0. -1.
         21   -1    0    0  503  504 -0.00000000000E+00 -0.00000000000E+00 -0.24412428933E+03  0.24412428933E+03  0.00000000000E+00 0. -1.
         25    2    1    2    0    0  0.88789804496E+02 -0.19539035562E+01  0.23608175041E+02  0.15514259731E+03  0.12499772978E+03 0.  0.
         25    2    1    2    0    0 -0.88789804496E+02  0.19539035562E+01 -0.14539879322E+03  0.21131536316E+03  0.12500370602E+03 0.  0.
          5    1    3    3  501    0  0.10862273170E+03  0.14305972654E+02  0.47752204635E+02  0.11960736492E+03  0.47000000000E+01 0.  1.
         -5    1    3    3    0  501 -0.19832927206E+02 -0.16259876210E+02 -0.24144029594E+02  0.35535232390E+02  0.47000000000E+01 0.  1.
          5    1    4    4  502    0 -0.30929663758E+02 -0.49117171776E+02 -0.15690934685E+02  0.60311160615E+02  0.47000000000E+01 0.  1.
         -5    1    4    4    0  502 -0.57860140738E+02  0.51071075332E+02 -0.12970785853E+03  0.15100420255E+03  0.47000000000E+01 0.  1.
<mgrwt>
<rscale>  0 0.34562766E+03</rscale>
<asrwt>0</asrwt>
<pdfrwt beam="1">  1       21 0.18820565E-01 0.34562766E+03</pdfrwt>
<pdfrwt beam="2">  1       21 0.37557583E-01 0.34562766E+03</pdfrwt>
<totfact> 0.16973064E+05</totfact>
</mgrwt>
</event>
<event>
 8    1  0.9974463E-006  0.3137686E+03  0.7546771E-02  0.1078553E+00
         21   -1    0    0  504  503  0.00000000000E+00  0.00000000000E+00  0.14681219112E+03  0.14681219112E+03  0.00000000000E+00 0. -1.
         21   -1    0    0  503  504 -0.00000000000E+00 -0.00000000000E+00 -0.16764744040E+03  0.16764744040E+03  0.00000000000E+00 0. -1.
         25    2    1    2    0    0 -0.88853496737E+01 -0.83198703742E+02 -0.55072550592E+02  0.16019155167E+03  0.12500949426E+03 0.  0.
         25    2    1    2    0    0  0.88853496737E+01  0.83198703742E+02  0.34237301320E+02  0.15426807985E+03  0.12500189565E+03 0.  0.
          5    1    3    3  501    0 -0.38688074273E+02 -0.10530160180E+03 -0.48076732844E+02  0.12214195296E+03  0.47000000000E+01 0. -1.
         -5    1    3    3    0  501  0.29802724599E+02  0.22102898057E+02 -0.69958177476E+01  0.38049598710E+02  0.47000000000E+01 0. -1.
          5    1    4    4  502    0  0.26835136163E+01  0.11230625456E+03  0.54064142337E+01  0.11256649312E+03  0.47000000000E+01 0. -1.
         -5    1    4    4    0  502  0.62018360575E+01 -0.29107550821E+02  0.28830887087E+02  0.41701586726E+02  0.47000000000E+01 0. -1.
<mgrwt>
<rscale>  0 0.31376863E+03</rscale>
<asrwt>0</asrwt>
<pdfrwt beam="1">  1       21 0.22586491E-01 0.31376863E+03</pdfrwt>
<pdfrwt beam="2">  1       21 0.25791914E-01 0.31376863E+03</pdfrwt>
<totfact> 0.25461154E+05</totfact>
</mgrwt>
</event>
<event>
 8    1  0.9974463E-006  0.5421503E+03  0.7546771E-02  0.1003327E+00
         21   -1    0    0  504  503  0.00000000000E+00  0.00000000000E+00  0.44676075972E+03  0.44676075972E+03  0.00000000000E+00 0.  1.
         21   -1    0    0  503  504 -0.00000000000E+00 -0.00000000000E+00 -0.16447670737E+03  0.16447670737E+03  0.00000000000E+00 0.  1.
         25    2    1    2    0    0 -0.66683952525E+02  0.84578527408E+02  0.38361618910E+03  0.41759765280E+03  0.12500456897E+03 0.  0.
         25    2    1    2    0    0  0.66683952525E+02 -0.84578527408E+02 -0.10133213676E+03  0.19363981429E+03  0.12501159512E+03 0.  0.
          5    1    3    3  501    0 -0.39550342365E+02 -0.27086308746E+02  0.86631177008E+02  0.99120878388E+02  0.47000000000E+01 0.  1.
         -5    1    3    3    0  501 -0.27133610160E+02  0.11166483615E+03  0.29698501209E+03  0.31847677441E+03  0.47000000000E+01 0.  1.
          5    1    4    4  502    0  0.32859033556E+02  0.30434254476E+02 -0.27558501858E+02  0.52796978667E+02  0.47000000000E+01 0.  1.
         -5    1    4    4    0  502  0.33824918969E+02 -0.11501278188E+03 -0.73773634900E+02  0.14084283562E+03  0.47000000000E+01 0.  1.
<mgrwt>
<rscale>  0 0.54215031E+03</rscale>
<asrwt>0</asrwt>
<pdfrwt beam="1">  1       21 0.68732424E-01 0.54215031E+03</pdfrwt>
<pdfrwt beam="2">  1       21 0.25304109E-01 0.54215031E+03</pdfrwt>
<totfact> 0.25406301E+04</totfact>
</mgrwt>
</event>
<event>
 8    1  0.9974463E-006  0.2776765E+03  0.7546771E-02  0.1096965E+00
         21   -1    0    0  504  503  0.00000000000E+00  0.00000000000E+00  0.62717950402E+03  0.62717950402E+03  0.00000000000E+00 0.  1.
         21   -1    0    0  503  504 -0.00000000000E+00 -0.00000000000E+00 -0.30734518680E+02  0.30734518680E+02  0.00000000000E+00 0.  1.
         25    2    1    2    0    0  0.39475206415E+02 -0.45068379130E+02  0.27966932945E+03  0.31213734825E+03  0.12500135847E+03 0.  0.
         25    2    1    2    0    0 -0.39475206415E+02  0.45068379130E+02  0.31677565590E+03  0.34577667445E+03  0.12500096683E+03 0.  0.
          5    1    3    3  501    0  0.13615635557E+02 -0.33673928223E+02  0.28107969183E+03  0.28345582042E+03  0.47000000000E+01 0.  1.
         -5    1    3    3    0  501  0.25859570858E+02 -0.11394450906E+02 -0.14103623807E+01  0.28681527826E+02  0.47000000000E+01 0.  1.
          5    1    4    4  502    0 -0.62221323330E+02 -0.11594990192E+02  0.85199629214E+02  0.10624031105E+03  0.47000000000E+01 0. -1.
         -5    1    4    4    0  502  0.22746116914E+02  0.56663369321E+02  0.23157602668E+03  0.23953636340E+03  0.47000000000E+01 0. -1.
<mgrwt>
<rscale>  0 0.27767650E+03</rscale>
<asrwt>0</asrwt>
<pdfrwt beam="1">  1       21 0.96489145E-01 0.27767650E+03</pdfrwt>
<pdfrwt beam="2">  1       21 0.47283879E-02 0.27767650E+03</pdfrwt>
<totfact> 0.25775728E+05</totfact>
</mgrwt>
</event>
<event>
 8    1  0.9974463E-006  0.2568028E+03  0.7546771E-02  0.1109080E+00
         21   -1    0    0  504  503  0.00000000000E+00  0.00000000000E+00  0.12057083923E+03  0.12057083923E+03  0.00000000000E+00 0. -1.
         21   -1    0    0  503  504 -0.00000000000E+00 -0.00000000000E+00 -0.13674052868E+03  0.13674052868E+03  0.00000000000E+00 0. -1.
         25    2    1    2    0    0 -0.52038230651E+01 -0.27199644168E+02 -0.17795496623E+02  0.12926475285E+03  0.12500318481E+03 0.  0.
         25    2    1    2    0    0  0.52038230651E+01  0.27199644168E+02  0.16258071708E+01  0.12804661506E+03  0.12500556772E+03 0.  0.
          5    1    3    3  501    0 -0.32729528940E+02 -0.32697756268E+02 -0.61505241220E+02  0.77106095914E+02  0.47000000000E+01 0. -1.
         -5    1    3    3    0  501  0.27525705875E+02  0.54981120995E+01  0.43709744597E+02  0.52158656935E+02  0.47000000000E+01 0. -1.
          5    1    4    4  502    0 -0.35407018127E+02  0.10081613381E+02  0.50110239579E+02  0.62357212668E+02  0.47000000000E+01 0.  1.
         -5    1    4    4    0  502  0.40610841193E+02  0.17118030787E+02 -0.48484432408E+02  0.65689402390E+02  0.47000000000E+01 0.  1.
<mgrwt>
<rscale>  0 0.25680281E+03</rscale>
<asrwt>0</asrwt>
<pdfrwt beam="1">  1       21 0.18549360E-01 0.25680281E+03</pdfrwt>
<pdfrwt beam="2">  1       21 0.21037004E-01 0.25680281E+03</pdfrwt>
<totfact> 0.55112458E+05</totfact>
</mgrwt>
</event>
<event>
 8    1  0.9974463E-006  0.3193089E+03  0.7546771E-02  0.1075968E+00
         21   -1    0    0  504  503  0.00000000000E+00  0.00000000000E+00  0.74931847060E+03  0.74931847060E+03  0.00000000000E+00 0. -1.
         21   -1    0    0  503  504 -0.00000000000E+00 -0.00000000000E+00 -0.34016979867E+02  0.34016979867E+02  0.00000000000E+00 0. -1.
         25    2    1    2    0    0  0.73124947404E+02  0.65567986304E+01  0.19359558987E+03  0.24186243734E+03  0.12501174600E+03 0.  0.
         25    2    1    2    0    0 -0.73124947404E+02 -0.65567986304E+01  0.52170590086E+03  0.54147301313E+03  0.12500290960E+03 0.  0.
          5    1    3    3  501    0  0.47575959892E+02  0.62225945809E+02  0.13926948662E+03  0.15985499741E+03  0.47000000000E+01 0.  1.
         -5    1    3    3    0  501  0.25548987511E+02 -0.55669147179E+02  0.54326103250E+02  0.82007439936E+02  0.47000000000E+01 0.  1.
          5    1    4    4  502    0  0.31115618160E+02 -0.18435457466E+02  0.19240291522E+03  0.19582905701E+03  0.47000000000E+01 0.  1.
         -5    1    4    4    0  502 -0.10424056556E+03  0.11878658835E+02  0.32930298564E+03  0.34564395611E+03  0.47000000000E+01 0.  1.
<mgrwt>
<rscale>  0 0.31930895E+03</rscale>
<asrwt>0</asrwt>
<pdfrwt beam="1">  1       21 0.11527975E+00 0.31930895E+03</pdfrwt>
<pdfrwt beam="2">  1       21 0.52333821E-02 0.31930895E+03</pdfrwt>
<totfact> 0.13909981E+05</totfact>
</mgrwt>
</event>
<event>
 8    1  0.9974463E-006  0.3186576E+03  0.7546771E-02  0.1076269E+00
         21   -1    0    0  504  503  0.00000000000E+00  0.00000000000E+00  0.27883627116E+03  0.27883627116E+03  0.00000000000E+00 0.  1.
         21   -1    0    0  503  504 -0.00000000000E+00 -0.00000000000E+00 -0.91041467739E+02  0.91041467739E+02  0.00000000000E+00 0.  1.
         25    2    1    2    0    0  0.90479737457E+02 -0.39527023111E+02  0.97554589761E+02  0.18679462941E+03  0.12500546846E+03 0.  0.
         25    2    1    2    0    0 -0.90479737457E+02  0.39527023111E+02  0.90240213658E+02  0.18308310949E+03  0.12500864120E+03 0.  0.
          5    1    3    3  501    0 -0.18093742932E+02  0.21380318860E+02  0.41252531022E+02  0.50083559014E+02  0.47000000000E+01 0. -1.
         -5    1    3    3    0  501  0.10857348039E+03 -0.60907341971E+02  0.56302058739E+02  0.13671107039E+03  0.47000000000E+01 0. -1.
          5    1    4    4  502    0 -0.11580242525E+03  0.30159870042E+02  0.97839792385E+02  0.15464324890E+03  0.47000000000E+01 0. -1.
         -5    1    4    4    0  502  0.25322687796E+02  0.93671530699E+01 -0.75995787265E+01  0.28439860595E+02  0.47000000000E+01 0. -1.
<mgrwt>
<rscale>  0 0.31865758E+03</rscale>
<asrwt>0</asrwt>
<pdfrwt beam="1">  1       21 0.42897888E-01 0.31865758E+03</pdfrwt>
<pdfrwt beam="2">  1       21 0.14006380E-01 0.31865758E+03</pdfrwt>
<totfact> 0.22492769E+05</totfact>
</mgrwt>
</event>
<event>
 8    1  0.9974463E-006  0.3076729E+03  0.7546771E-02  0.1081467E+00
         21   -1    0    0  504  503  0.00000000000E+00  0.00000000000E+00  0.16368607829E+03  0.16368607829E+03  0.00000000000E+00 0. -1.
         21   -1    0    0  503  504 -0.00000000000E+00 -0.00000000000E+00 -0.14457950854E+03  0.14457950854E+03  0.00000000000E+00 0. -1.
         25    2    1    2    0    0 -0.73076495567E+02  0.30758016424E+02  0.51517674396E+02  0.15673236755E+03  0.12499893793E+03 0.  0.
         25    2    1    2    0    0  0.73076495567E+02 -0.30758016424E+02 -0.32411104643E+02  0.15153321928E+03  0.12500242823E+03 0.  0.
          5    1    3    3  501    0  0.16943885396E+02  0.41094553015E+02 -0.11630709851E+02  0.46186804950E+02  0.47000000000E+01 0. -1.
         -5    1    3    3    0  501 -0.90020380963E+02 -0.10336536590E+02  0.63148384248E+02  0.11054556260E+03  0.47000000000E+01 0. -1.
          5    1    4    4  502    0  0.98605784316E+02 -0.32532435294E+02 -0.54536617229E+02  0.11737884249E+03  0.47000000000E+01 0. -1.
         -5    1    4    4    0  502 -0.25529288749E+02  0.17744188698E+01  0.22125512585E+02  0.34154376784E+02  0.47000000000E+01 0. -1.
<mgrwt>
<rscale>  0 0.30767290E+03</rscale>
<asrwt>0</asrwt>
<pdfrwt beam="1">  1       21 0.25182474E-01 0.30767290E+03</pdfrwt>
<pdfrwt beam="2">  1       21 0.22243001E-01 0.30767290E+03</pdfrwt>
<totfact> 0.27490892E+05</totfact>
</mgrwt>
</event>
<event>
 8    1  0.9974463E-006  0.3932541E+03  0.7546771E-02  0.1046141E+00
         21   -1    0    0  504  503  0.00000000000E+00  0.00000000000E+00  0.67677721878E+03  0.67677721878E+03  0.00000000000E+00 0.  1.
         21   -1    0    0  503  504 -0.00000000000E+00 -0.00000000000E+00 -0.57126932180E+02  0.57126932180E+02  0.00000000000E+00 0.  1.
         25    2    1    2    0    0  0.97983767112E+01  0.14458063150E+03  0.39406201059E+03  0.43807431680E+03  0.12499868661E+03 0.  0.
         25    2    1    2    0    0 -0.97983767112E+01 -0.14458063150E+03  0.22558827601E+03  0.29582983416E+03  0.12500261324E+03 0.  0.
          5    1    3    3  501    0 -0.24773009640E+02  0.38523318556E+02  0.24786571243E+02  0.52289694904E+02  0.47000000000E+01 0. -1.
         -5    1    3    3    0  501  0.34571386351E+02  0.10605731294E+03  0.36927543935E+03  0.38578462189E+03  0.47000000000E+01 0. -1.
          5    1    4    4  502    0  0.14057008466E+02 -0.11624959574E+02 -0.12107959506E+02  0.22392674148E+02  0.47000000000E+01 0.  1.
         -5    1    4    4    0  502 -0.23855385177E+02 -0.13295567193E+03  0.23769623551E+03  0.27343716001E+03  0.47000000000E+01 0.  1.
<mgrwt>
<rscale>  0 0.39325415E+03</rscale>
<asrwt>0</asrwt>
<pdfrwt beam="1">  1       21 0.10411957E+00 0.39325415E+03</pdfrwt>
<pdfrwt beam="2">  1       21 0.87887593E-02 0.39325415E+03</pdfrwt>
<totfact> 0.70909599E+04</totfact>
</mgrwt>
</event>
<event>
 8    1  0.9974463E-006  0.4467271E+03  0.7546771E-02  0.1028703E+00
         21   -1    0    0  504  503  0.00000000000E+00  0.00000000000E+00  0.15206068388E+03  0.15206068388E+03  0.00000000000E+00 0.  1.
         21   -1    0    0  503  504 -0.00000000000E+00 -0.00000000000E+00 -0.32810115178E+03  0.32810115178E+03  0.00000000000E+00 0.  1.
         25    2    1    2    0    0 -0.18069063645E+03 -0.25764318652E+02 -0.12123049254E+03  0.25225694501E+03  0.12499531098E+03 0.  0.
         25    2    1    2    0    0  0.18069063645E+03  0.25764318652E+02 -0.54809975362E+02  0.22790489065E+03  0.12499439814E+03 0.  0.
          5    1    3    3  501    0 -0.61731719808E+02 -0.19522330744E+02 -0.11599805907E+03  0.13292692103E+03  0.47000000000E+01 0. -1.
         -5    1    3    3    0  501 -0.11895891664E+03 -0.62419879082E+01 -0.52324334744E+01  0.11933002397E+03  0.47000000000E+01 0. -1.
          5    1    4    4  502    0  0.74584014136E+02 -0.46825557119E+02 -0.31165620478E+00  0.88190674641E+02  0.47000000000E+01 0. -1.
         -5    1    4    4    0  502  0.10610662231E+03  0.72589875771E+02 -0.54498319157E+02  0.13971421601E+03  0.47000000000E+01 0. -1.
<mgrwt>
<rscale>  0 0.44672715E+03</rscale>
<asrwt>0</asrwt>
<pdfrwt beam="1">  1       21 0.23393951E-01 0.44672715E+03</pdfrwt>
<pdfrwt beam="2">  1       21 0.50477101E-01 0.44672715E+03</pdfrwt>
<totfact> 0.59351423E+04</totfact>
</mgrwt>
</event>
<event>
 8    1  0.9974463E-006  0.3316624E+03  0.7546771E-02  0.1070404E+00
         21   -1    0    0  504  503  0.00000000000E+00  0.00000000000E+00  0.36107320103E+02  0.36107320103E+02  0.00000000000E+00 0.  1.
         21   -1    0    0  503  504 -0.00000000000E+00 -0.00000000000E+00 -0.76161799408E+03  0.76161799408E+03  0.00000000000E+00 0.  1.
         25    2    1    2    0    0  0.10618607660E+03 -0.11760684465E+02 -0.31103292969E+03  0.35182384808E+03  0.12499896065E+03 0.  0.
         25    2    1    2    0    0 -0.10618607660E+03  0.11760684465E+02 -0.41447774429E+03  0.44590146610E+03  0.12499008121E+03 0.  0.
          5    1    3    3  501    0  0.13539322006E+02 -0.25474849215E+02 -0.24786061175E+01  0.29334530356E+02  0.47000000000E+01 0. -1.
         -5    1    3    3    0  501  0.92646754592E+02  0.13714164751E+02 -0.30855432357E+03  0.32248931772E+03  0.47000000000E+01 0. -1.
          5    1    4    4  502    0 -0.11196582257E+02 -0.45433964154E+02 -0.72952368708E+02  0.86797158093E+02  0.47000000000E+01 0. -1.
         -5    1    4    4    0  502 -0.94989494341E+02  0.57194648619E+02 -0.34152537558E+03  0.35910430801E+03  0.47000000000E+01 0. -1.
<mgrwt>
<rscale>  0 0.33166239E+03</rscale>
<asrwt>0</asrwt>
<pdfrwt beam="1">  1       21 0.55549725E-02 0.33166239E+03</pdfrwt>
<pdfrwt beam="2">  1       21 0.11717199E+00 0.33166239E+03</pdfrwt>
<totfact> 0.12016046E+05</totfact>
</mgrwt>
</event>
<event>
 8    1  0.9974463E-006  0.2858938E+03  0.7546771E-02  0.1092513E+00
         21   -1    0    0  504  503  0.00000000000E+00  0.00000000000E+00  0.33641172162E+03  0.33641172162E+03  0.00000000000E+00 0. -1.
         21   -1    0    0  503  504 -0.00000000000E+00 -0.00000000000E+00 -0.60740496091E+02  0.60740496091E+02  0.00000000000E+00 0. -1.
         25    2    1    2    0    0  0.63579252937E+02  0.27682871967E+02  0.13958300899E+03  0.19978879848E+03  0.12499393903E+03 0.  0.
         25    2    1    2    0    0 -0.63579252937E+02 -0.27682871967E+02  0.13608821654E+03  0.19736341924E+03  0.12499461495E+03 0.  0.
          5    1    3    3  501    0  0.36975911108E+02  0.51578608729E+02  0.89439102652E+01  0.64262387222E+02  0.47000000000E+01 0. -1.
         -5    1    3    3    0  501  0.26603341829E+02 -0.23895736762E+02  0.13063909872E+03  0.13552641125E+03  0.47000000000E+01 0. -1.
          5    1    4    4  502    0 -0.75510768166E+02 -0.66682912424E+02  0.10708419674E+03  0.14709725392E+03  0.47000000000E+01 0. -1.
         -5    1    4    4    0  502  0.11931515229E+02  0.39000040457E+02  0.29004019801E+02  0.50266165319E+02  0.47000000000E+01 0. -1.
<mgrwt>
<rscale>  0 0.28589379E+03</rscale>
<asrwt>0</asrwt>
<pdfrwt beam="1">  1       21 0.51755648E-01 0.28589379E+03</pdfrwt>
<pdfrwt beam="2">  1       21 0.93446919E-02 0.28589379E+03</pdfrwt>
<totfact> 0.31711752E+05</totfact>
</mgrwt>
</event>
<event>
 8    1  0.9974463E-006  0.3046098E+03  0.7546771E-02  0.1082959E+00
         21   -1    0    0  504  503  0.00000000000E+00  0.00000000000E+00  0.58168210587E+03  0.58168210587E+03  0.00000000000E+00 0.  1.
         21   -1    0    0  503  504 -0.00000000000E+00 -0.00000000000E+00 -0.39878804129E+02  0.39878804129E+02  0.00000000000E+00 0.  1.
         25    2    1    2    0    0  0.65130463427E+02 -0.55794121238E+02  0.24076928951E+03  0.28451699789E+03  0.12500044035E+03 0.  0.
         25    2    1    2    0    0 -0.65130463427E+02  0.55794121238E+02  0.30103401223E+03  0.33704391210E+03  0.12498864323E+03 0.  0.
          5    1    3    3  501    0 -0.12117555706E+01 -0.41456465722E+02  0.86426391376E+01  0.42625017455E+02  0.47000000000E+01 0. -1.
         -5    1    3    3    0  501  0.66342218998E+02 -0.14337655516E+02  0.23212665037E+03  0.24189198044E+03  0.47000000000E+01 0. -1.
          5    1    4    4  502    0 -0.21270540450E+02 -0.16093123923E+02  0.29338291974E+01  0.27241914074E+02  0.47000000000E+01 0. -1.
         -5    1    4    4    0  502 -0.43859922977E+02  0.71887245161E+02  0.29810018303E+03  0.30980199803E+03  0.47000000000E+01 0. -1.
<mgrwt>
<rscale>  0 0.30460983E+03</rscale>
<asrwt>0</asrwt>
<pdfrwt beam="1">  1       21 0.89489549E-01 0.30460983E+03</pdfrwt>
<pdfrwt beam="2">  1       21 0.61352010E-02 0.30460983E+03</pdfrwt>
<totfact> 0.19555059E+05</totfact>
</mgrwt>
</event>
<event>
 8    1  0.9974463E-006  0.2844515E+03  0.7546771E-02  0.1093282E+00
         21   -1    0    0  504  503  0.00000000000E+00  0.00000000000E+00  0.35001357405E+02  0.35001357405E+02  0.00000000000E+00 0. -1.
         21   -1    0    0  503  504 -0.00000000000E+00 -0.00000000000E+00 -0.57792518930E+03  0.57792518930E+03  0.00000000000E+00 0. -1.
         25    2    1    2    0    0 -0.72752974273E+00 -0.24023773852E+02 -0.13474846229E+03  0.18536497225E+03  0.12500141534E+03 0.  0.
         25    2    1    2    0    0  0.72752974273E+00  0.24023773852E+02 -0.40817536960E+03  0.42756157445E+03  0.12499638631E+03 0.  0.
          5    1    3    3  501    0 -0.45701921751E+01  0.50451744646E+02 -0.69717903864E+02  0.86307249484E+02  0.47000000000E+01 0.  1.
         -5    1    3    3    0  501  0.38426624324E+01 -0.74475518498E+02 -0.65030558424E+02  0.99057722763E+02  0.47000000000E+01 0.  1.
          5    1    4    4  502    0  0.31163316088E+02 -0.42830672482E+02 -0.15271390421E+03  0.16170728281E+03  0.47000000000E+01 0.  1.
         -5    1    4    4    0  502 -0.30435786345E+02  0.66854446334E+02 -0.25546146539E+03  0.26585429164E+03  0.47000000000E+01 0.  1.
<mgrwt>
<rscale>  0 0.28445152E+03</rscale>
<asrwt>0</asrwt>
<pdfrwt beam="1">  1       21 0.53848248E-02 0.28445152E+03</pdfrwt>
<pdfrwt beam="2">  1       21 0.88911558E-01 0.28445152E+03</pdfrwt>
<totfact> 0.24978234E+05</totfact>
</mgrwt>
</event>
<event>
 8    1  0.9974463E-006  0.3250935E+03  0.7546771E-02  0.1073329E+00
         21   -1    0    0  504  503  0.00000000000E+00  0.00000000000E+00  0.17904695652E+03  0.17904695652E+03  0.00000000000E+00 0. -1.
         21   -1    0    0  503  504 -0.00000000000E+00 -0.00000000000E+00 -0.14756713641E+03  0.14756713641E+03  0.00000000000E+00 0. -1.
         25    2    1    2    0    0  0.44788930250E+02  0.67950137257E+02  0.80644306151E+02  0.16956922955E+03  0.12500780004E+03 0.  0.
         25    2    1    2    0    0 -0.44788930250E+02 -0.67950137257E+02 -0.49164486048E+02  0.15704486337E+03  0.12499069164E+03 0.  0.
          5    1    3    3  501    0  0.61995130860E+02 -0.11562919984E+02  0.55906382932E+02  0.84408003302E+02  0.47000000000E+01 0. -1.
         -5    1    3    3    0  501 -0.17206200611E+02  0.79513057241E+02  0.24737923219E+02  0.85161226250E+02  0.47000000000E+01 0. -1.
          5    1    4    4  502    0 -0.94286305926E+01 -0.94786154529E+02 -0.57885493235E+02  0.11156224492E+03  0.47000000000E+01 0.  1.
         -5    1    4    4    0  502 -0.35360299657E+02  0.26836017271E+02  0.87210071877E+01  0.45482618451E+02  0.47000000000E+01 0.  1.
<mgrwt>
<rscale>  0 0.32509350E+03</rscale>
<asrwt>0</asrwt>
<pdfrwt beam="1">  1       21 0.27545685E-01 0.32509350E+03</pdfrwt>
<pdfrwt beam="2">  1       21 0.22702637E-01 0.32509350E+03</pdfrwt>
<totfact> 0.22134946E+05</totfact>
</mgrwt>
</event>
<event>
 8    1  0.9974463E-006  0.3322618E+03  0.7546771E-02  0.1070140E+00
         21   -1    0    0  504  503  0.00000000000E+00  0.00000000000E+00  0.46438416359E+03  0.46438416359E+03  0.00000000000E+00 0.  1.
         21   -1    0    0  503  504 -0.00000000000E+00 -0.00000000000E+00 -0.59432430662E+02  0.59432430662E+02  0.00000000000E+00 0.  1.
         25    2    1    2    0    0  0.50270683007E+02 -0.96317071736E+02  0.18186558354E+03  0.24597680080E+03  0.12500150470E+03 0.  0.
         25    2    1    2    0    0 -0.50270683007E+02  0.96317071736E+02  0.22308614939E+03  0.27783979346E+03  0.12499360343E+03 0.  0.
          5    1    3    3  501    0  0.73026279973E+02 -0.10268285936E+03  0.18256401875E+03  0.22187455491E+03  0.47000000000E+01 0.  1.
         -5    1    3    3    0  501 -0.22755596966E+02  0.63657876201E+01 -0.69843521246E+00  0.24102245892E+02  0.47000000000E+01 0.  1.
          5    1    4    4  502    0  0.14477167426E+02  0.29465885878E+02  0.16440646086E+03  0.16771821958E+03  0.47000000000E+01 0.  1.
         -5    1    4    4    0  502 -0.64747850433E+02  0.66851185858E+02  0.58679688532E+02  0.11012157387E+03  0.47000000000E+01 0.  1.
<mgrwt>
<rscale>  0 0.33226182E+03</rscale>
<asrwt>0</asrwt>
<pdfrwt beam="1">  1       21 0.71443715E-01 0.33226182E+03</pdfrwt>
<pdfrwt beam="2">  1       21 0.91434512E-02 0.33226182E+03</pdfrwt>
<totfact> 0.16171212E+05</totfact>
</mgrwt>
</event>
<event>
 8    1  0.9974463E-006  0.2671329E+03  0.7546771E-02  0.1102932E+00
         21   -1    0    0  504  503  0.00000000000E+00  0.00000000000E+00  0.12616999356E+03  0.12616999356E+03  0.00000000000E+00 0.  1.
         21   -1    0    0  503  504 -0.00000000000E+00 -0.00000000000E+00 -0.14139652506E+03  0.14139652506E+03  0.00000000000E+00 0.  1.
         25    2    1    2    0    0 -0.19339919616E+02 -0.10143583303E+02 -0.49420618974E+02  0.13616411999E+03  0.12498538002E+03 0.  0.
         25    2    1    2    0    0  0.19339919616E+02  0.10143583303E+02  0.34194087476E+02  0.13140239863E+03  0.12498171856E+03 0.  0.
          5    1    3    3  501    0  0.17966948403E+02  0.50382438244E+02 -0.33051090574E+02  0.63052881825E+02  0.47000000000E+01 0.  1.
         -5    1    3    3    0  501 -0.37306868019E+02 -0.60526021547E+02 -0.16369528400E+02  0.73111238163E+02  0.47000000000E+01 0.  1.
          5    1    4    4  502    0  0.21836114889E+02  0.66024429896E+02  0.10557765474E+02  0.70495373382E+02  0.47000000000E+01 0.  1.
         -5    1    4    4    0  502 -0.24961952726E+01 -0.55880846592E+02  0.23636322001E+02  0.60907025247E+02  0.47000000000E+01 0.  1.
<mgrwt>
<rscale>  0 0.26713292E+03</rscale>
<asrwt>0</asrwt>
<pdfrwt beam="1">  1       21 0.19410768E-01 0.26713292E+03</pdfrwt>
<pdfrwt beam="2">  1       21 0.21753311E-01 0.26713292E+03</pdfrwt>
<totfact> 0.47430170E+05</totfact>
</mgrwt>
</event>
<event>
 8    1  0.9974463E-006  0.3113352E+03  0.7546771E-02  0.1079708E+00
         21   -1    0    0  504  503  0.00000000000E+00  0.00000000000E+00  0.24420322456E+02  0.24420322456E+02  0.00000000000E+00 0. -1.
         21   -1    0    0  503  504 -0.00000000000E+00 -0.00000000000E+00 -0.99230459159E+03  0.99230459159E+03  0.00000000000E+00 0. -1.
         25    2    1    2    0    0 -0.21523918601E+02 -0.86922027404E+02 -0.40475875419E+03  0.43298115325E+03  0.12499724819E+03 0.  0.
         25    2    1    2    0    0  0.21523918601E+02  0.86922027404E+02 -0.56312551495E+03  0.58374376080E+03  0.12501085860E+03 0.  0.
          5    1    3    3  501    0 -0.15538266739E-01 -0.60365519109E+02 -0.39129388612E+03  0.39595074373E+03  0.47000000000E+01 0. -1.
         -5    1    3    3    0  501 -0.21508380335E+02 -0.26556508296E+02 -0.13464868066E+02  0.37030409524E+02  0.47000000000E+01 0. -1.
          5    1    4    4  502    0 -0.14654191737E+02  0.18561405002E+02 -0.42246633641E+03  0.42315383312E+03  0.47000000000E+01 0.  1.
         -5    1    4    4    0  502  0.36178110338E+02  0.68360622402E+02 -0.14065917854E+03  0.16058992768E+03  0.47000000000E+01 0.  1.
<mgrwt>
<rscale>  0 0.31133518E+03</rscale>
<asrwt>0</asrwt>
<pdfrwt beam="1">  1       21 0.37569730E-02 0.31133518E+03</pdfrwt>
<pdfrwt beam="2">  1       21 0.15266223E+00 0.31133518E+03</pdfrwt>
<totfact> 0.11857654E+05</totfact>
</mgrwt>
</event>
<event>
 8    1  0.9974463E-006  0.3675718E+03  0.7546771E-02  0.1055625E+00
         21   -1    0    0  504  503  0.00000000000E+00  0.00000000000E+00  0.37187833753E+03  0.37187833753E+03  0.00000000000E+00 0.  1.
         21   -1    0    0  503  504 -0.00000000000E+00 -0.00000000000E+00 -0.90828786721E+02  0.90828786721E+02  0.00000000000E+00 0.  1.
         25    2    1    2    0    0 -0.56515143921E+02  0.10445073554E+03  0.60412448369E+02  0.18269158424E+03  0.12499053319E+03 0.  0.
         25    2    1    2    0    0  0.56515143921E+02 -0.10445073554E+03  0.22063710244E+03  0.28001554001E+03  0.12499621605E+03 0.  0.
          5    1    3    3  501    0 -0.52061912906E+02  0.12008372716E+03  0.12128335917E+02  0.13152844117E+03  0.47000000000E+01 0.  1.
         -5    1    3    3    0  501 -0.44532310151E+01 -0.15632991621E+02  0.48284112452E+02  0.51163143069E+02  0.47000000000E+01 0.  1.
          5    1    4    4  502    0  0.84785702167E+02 -0.86880758985E+02  0.21350904791E+03  0.24565236639E+03  0.47000000000E+01 0.  1.
         -5    1    4    4    0  502 -0.28270558246E+02 -0.17569976557E+02  0.71280545275E+01  0.34363173619E+02  0.47000000000E+01 0.  1.
<mgrwt>
<rscale>  0 0.36757181E+03</rscale>
<asrwt>0</asrwt>
<pdfrwt beam="1">  1       21 0.57212051E-01 0.36757181E+03</pdfrwt>
<pdfrwt beam="2">  1       21 0.13973660E-01 0.36757181E+03</pdfrwt>
<totfact> 0.12170481E+05</totfact>
</mgrwt>
</event>
<event>
 8    1  0.9974463E-006  0.3362979E+03  0.7546771E-02  0.1068384E+00
         21   -1    0    0  504  503  0.00000000000E+00  0.00000000000E+00  0.29414936706E+03  0.29414936706E+03  0.00000000000E+00 0.  1.
         21   -1    0    0  503  504 -0.00000000000E+00 -0.00000000000E+00 -0.96121477745E+02  0.96121477745E+02  0.00000000000E+00 0.  1.
         25    2    1    2    0    0  0.26110883494E+02  0.92799324316E+02  0.31781425574E+02  0.16101651718E+03  0.12499106753E+03 0.  0.
         25    2    1    2    0    0 -0.26110883494E+02 -0.92799324316E+02  0.16624646374E+03  0.22925432763E+03  0.12500466871E+03 0.  0.
          5    1    3    3  501    0 -0.30263452037E+02 -0.43932655807E+01 -0.20382623847E+02  0.37050218171E+02  0.47000000000E+01 0.  1.
         -5    1    3    3    0  501  0.56374335532E+02  0.97192589896E+02  0.52164049421E+02  0.12396629901E+03  0.47000000000E+01 0.  1.
          5    1    4    4  502    0 -0.11551103885E+02  0.13342840935E+02  0.10330836913E+03  0.10491028805E+03  0.47000000000E+01 0.  1.
         -5    1    4    4    0  502 -0.14559779609E+02 -0.10614216525E+03  0.62938094608E+02  0.12434403958E+03  0.47000000000E+01 0.  1.
<mgrwt>
<rscale>  0 0.33629791E+03</rscale>
<asrwt>0</asrwt>
<pdfrwt beam="1">  1       21 0.45253749E-01 0.33629791E+03</pdfrwt>
<pdfrwt beam="2">  1       21 0.14787920E-01 0.33629791E+03</pdfrwt>
<totfact> 0.18155255E+05</totfact>
</mgrwt>
</event>
<event>
 8    1  0.9974463E-006  0.2918823E+03  0.7546771E-02  0.1089370E+00
         21   -1    0    0  504  503  0.00000000000E+00  0.00000000000E+00  0.57725522644E+03  0.57725522644E+03  0.00000000000E+00 0.  1.
         21   -1    0    0  503  504 -0.00000000000E+00 -0.00000000000E+00 -0.36896700262E+02  0.36896700262E+02  0.00000000000E+00 0.  1.
         25    2    1    2    0    0 -0.72397110019E+02 -0.20757568752E+02  0.26688256757E+03  0.30417743697E+03  0.12500156035E+03 0.  0.
         25    2    1    2    0    0  0.72397110019E+02  0.20757568752E+02  0.27347595861E+03  0.30997448973E+03  0.12499146430E+03 0.  0.
          5    1    3    3  501    0  0.31939656978E+02 -0.24430622368E+02  0.59758341332E+02  0.72181343545E+02  0.47000000000E+01 0. -1.
         -5    1    3    3    0  501 -0.10433676700E+03  0.36730536166E+01  0.20712422623E+03  0.23199609342E+03  0.47000000000E+01 0. -1.
          5    1    4    4  502    0  0.15080343075E+02  0.39028217624E+02  0.23424995884E+03  0.23800368009E+03  0.47000000000E+01 0. -1.
         -5    1    4    4    0  502  0.57316766944E+02 -0.18270648872E+02  0.39225999768E+02  0.71970809645E+02  0.47000000000E+01 0. -1.
<mgrwt>
<rscale>  0 0.29188226E+03</rscale>
<asrwt>0</asrwt>
<pdfrwt beam="1">  1       21 0.88808490E-01 0.29188226E+03</pdfrwt>
<pdfrwt beam="2">  1       21 0.56764158E-02 0.29188226E+03</pdfrwt>
<totfact> 0.22835125E+05</totfact>
</mgrwt>
</event>
<event>
 8    1  0.9974463E-006  0.2873442E+03  0.7546771E-02  0.1091744E+00
         21   -1    0    0  504  503  0.00000000000E+00  0.00000000000E+00  0.79740283227E+02  0.79740283227E+02  0.00000000000E+00 0. -1.
         21   -1    0    0  503  504 -0.00000000000E+00 -0.00000000000E+00 -0.25886119973E+03  0.25886119973E+03  0.00000000000E+00 0. -1.
         25    2    1    2    0    0  0.29652298460E+01 -0.54724937755E+02 -0.14240799647E+03  0.19725067687E+03  0.12499672263E+03 0.  0.
         25    2    1    2    0    0 -0.29652298460E+01  0.54724937755E+02 -0.36712920035E+02  0.14135080609E+03  0.12501440110E+03 0.  0.
          5    1    3    3  501    0  0.37659612050E+02 -0.71514385618E+02 -0.13545260034E+03  0.15780383604E+03  0.47000000000E+01 0.  1.
         -5    1    3    3    0  501 -0.34694382204E+02  0.16789447862E+02 -0.69553961260E+01  0.39446840828E+02  0.47000000000E+01 0.  1.
          5    1    4    4  502    0  0.16427314910E+00  0.67719487798E+02 -0.74623180748E+02  0.10087945836E+03  0.47000000000E+01 0. -1.
         -5    1    4    4    0  502 -0.31295029951E+01 -0.12994550042E+02  0.37910260713E+02  0.40471347731E+02  0.47000000000E+01 0. -1.
<mgrwt>
<rscale>  0 0.28734415E+03</rscale>
<asrwt>0</asrwt>
<pdfrwt beam="1">  1       21 0.12267736E-01 0.28734415E+03</pdfrwt>
<pdfrwt beam="2">  1       21 0.39824800E-01 0.28734415E+03</pdfrwt>
<totfact> 0.33554535E+05</totfact>
</mgrwt>
</event>
<event>
 8    1  0.9974463E-006  0.2900343E+03  0.7546771E-02  0.1090331E+00
         21   -1    0    0  504  503  0.00000000000E+00  0.00000000000E+00  0.26853988191E+02  0.26853988191E+02  0.00000000000E+00 0. -1.
         21   -1    0    0  503  504 -0.00000000000E+00 -0.00000000000E+00 -0.78312315846E+03  0.78312315846E+03  0.00000000000E+00 0. -1.
         25    2    1    2    0    0 -0.35570375811E+02  0.63911247422E+02 -0.35745211060E+03  0.38567807025E+03  0.12500265325E+03 0.  0.
         25    2    1    2    0    0  0.35570375811E+02 -0.63911247422E+02 -0.39881705967E+03  0.42429907640E+03  0.12499903987E+03 0.  0.
          5    1    3    3  501    0  0.19623142028E+02  0.55314977282E+02 -0.29880027721E+03  0.30454640053E+03  0.47000000000E+01 0.  1.
         -5    1    3    3    0  501 -0.55193517839E+02  0.85962701399E+01 -0.58651833387E+02  0.81131669719E+02  0.47000000000E+01 0.  1.
          5    1    4    4  502    0 -0.31419686709E+02 -0.45966896689E+00 -0.28669284374E+02  0.42795161818E+02  0.47000000000E+01 0. -1.
         -5    1    4    4    0  502  0.66990062520E+02 -0.63451578455E+02 -0.37014777530E+03  0.38150391458E+03  0.47000000000E+01 0. -1.
<mgrwt>
<rscale>  0 0.29003434E+03</rscale>
<asrwt>0</asrwt>
<pdfrwt beam="1">  1       21 0.41313835E-02 0.29003434E+03</pdfrwt>
<pdfrwt beam="2">  1       21 0.12048047E+00 0.29003434E+03</pdfrwt>
<totfact> 0.18798745E+05</totfact>
</mgrwt>
</event>
<event>
 8    1  0.9974463E-006  0.3002139E+03  0.7546771E-02  0.1085134E+00
         21   -1    0    0  504  503  0.00000000000E+00  0.00000000000E+00  0.30703755409E+02  0.30703755409E+02  0.00000000000E+00 0. -1.
         21   -1    0    0  503  504 -0.00000000000E+00 -0.00000000000E+00 -0.73385490725E+03  0.73385490725E+03  0.00000000000E+00 0. -1.
         25    2    1    2    0    0 -0.66729554191E+02 -0.38608614328E+02 -0.43063218657E+03  0.45498564382E+03  0.12499758985E+03 0.  0.
         25    2    1    2    0    0  0.66729554191E+02  0.38608614328E+02 -0.27251896527E+03  0.30957301884E+03  0.12500163622E+03 0.  0.
          5    1    3    3  501    0  0.21347475028E+02 -0.44070582739E+02 -0.23827318366E+03  0.24329844020E+03  0.47000000000E+01 0.  1.
         -5    1    3    3    0  501 -0.88077029220E+02  0.54619684105E+01 -0.19235900291E+03  0.21168720361E+03  0.47000000000E+01 0.  1.
          5    1    4    4  502    0  0.83436625344E+02  0.71005759583E+02 -0.19319633532E+03  0.22214950444E+03  0.47000000000E+01 0.  1.
         -5    1    4    4    0  502 -0.16707071153E+02 -0.32397145254E+02 -0.79322629954E+02  0.87423514400E+02  0.47000000000E+01 0.  1.
<mgrwt>
<rscale>  0 0.30021393E+03</rscale>
<asrwt>0</asrwt>
<pdfrwt beam="1">  1       21 0.47236550E-02 0.30021393E+03</pdfrwt>
<pdfrwt beam="2">  1       21 0.11290075E+00 0.30021393E+03</pdfrwt>
<totfact> 0.17542925E+05</totfact>
</mgrwt>
</event>
<event>
 8    1  0.9974463E-006  0.2984192E+03  0.7546771E-02  0.1086034E+00
         21   -1    0    0  504  503  0.00000000000E+00  0.00000000000E+00  0.28302812454E+02  0.28302812454E+02  0.00000000000E+00 0.  1.
         21   -1    0    0  503  504 -0.00000000000E+00 -0.00000000000E+00 -0.78661816027E+03  0.78661816027E+03  0.00000000000E+00 0.  1.
         25    2    1    2    0    0  0.42401558004E+02  0.25110874758E+02 -0.55627687044E+03  0.57227326792E+03  0.12499715372E+03 0.  0.
         25    2    1    2    0    0 -0.42401558004E+02 -0.25110874758E+02 -0.20203847738E+03  0.24264770480E+03  0.12501965507E+03 0.  0.
          5    1    3    3  501    0  0.53297875828E+02  0.34701176582E+02 -0.12141823444E+03  0.13714704838E+03  0.47000000000E+01 0. -1.
         -5    1    3    3    0  501 -0.10896317824E+02 -0.95903018245E+01 -0.43485863600E+03  0.43512621955E+03  0.47000000000E+01 0. -1.
          5    1    4    4  502    0 -0.39489705793E+02 -0.16049535416E+02 -0.26391405622E+01  0.42966027436E+02  0.47000000000E+01 0.  1.
         -5    1    4    4    0  502 -0.29118522106E+01 -0.90613393424E+01 -0.19939933682E+03  0.19968167737E+03  0.47000000000E+01 0.  1.
<mgrwt>
<rscale>  0 0.29841921E+03</rscale>
<asrwt>0</asrwt>
<pdfrwt beam="1">  1       21 0.43542793E-02 0.29841921E+03</pdfrwt>
<pdfrwt beam="2">  1       21 0.12101817E+00 0.29841921E+03</pdfrwt>
<totfact> 0.16964715E+05</totfact>
</mgrwt>
</event>
<event>
 8    1  0.9974463E-006  0.2909458E+03  0.7546771E-02  0.1089856E+00
         21   -1    0    0  504  503  0.00000000000E+00  0.00000000000E+00  0.31888540820E+02  0.31888540820E+02  0.00000000000E+00 0. -1.
         21   -1    0    0  503  504 -0.00000000000E+00 -0.00000000000E+00 -0.66363553813E+03  0.66363553813E+03  0.00000000000E+00 0. -1.
         25    2    1    2    0    0 -0.14851271565E+02  0.54351287814E+02 -0.19968000039E+03  0.24222236985E+03  0.12499980458E+03 0.  0.
         25    2    1    2    0    0  0.14851271565E+02 -0.54351287814E+02 -0.43206699692E+03  0.45330170910E+03  0.12500370751E+03 0.  0.
          5    1    3    3  501    0 -0.37375656570E+02  0.73471401616E+02 -0.67344675628E+02  0.10654755696E+03  0.47000000000E+01 0.  1.
         -5    1    3    3    0  501  0.22524385005E+02 -0.19120113802E+02 -0.13233532477E+03  0.13567481289E+03  0.47000000000E+01 0.  1.
          5    1    4    4  502    0  0.33881323607E+01  0.15270372358E+00  0.79001971309E+01  0.97982587243E+01  0.47000000000E+01 0. -1.
         -5    1    4    4    0  502  0.11463139205E+02 -0.54503991538E+02 -0.43996719405E+03  0.44350345037E+03  0.47000000000E+01 0. -1.
<mgrwt>
<rscale>  0 0.29094583E+03</rscale>
<asrwt>0</asrwt>
<pdfrwt beam="1">  1       21 0.49059298E-02 0.29094583E+03</pdfrwt>
<pdfrwt beam="2">  1       21 0.10209777E+00 0.29094583E+03</pdfrwt>
<totfact> 0.21071814E+05</totfact>
</mgrwt>
</event>
<event>
 8    1  0.9974463E-006  0.2890669E+03  0.7546771E-02  0.1090837E+00
         21   -1    0    0  504  503  0.00000000000E+00  0.00000000000E+00  0.17668854930E+03  0.17668854930E+03  0.00000000000E+00 0.  1.
         21   -1    0    0  503  504 -0.00000000000E+00 -0.00000000000E+00 -0.11823018462E+03  0.11823018462E+03  0.00000000000E+00 0.  1.
         25    2    1    2    0    0 -0.45629072638E+02  0.67011598632E+01  0.86403353638E+02  0.15880151138E+03  0.12500185072E+03 0.  0.
         25    2    1    2    0    0  0.45629072638E+02 -0.67011598632E+01 -0.27944988956E+02  0.13611722254E+03  0.12498023064E+03 0.  0.
          5    1    3    3  501    0 -0.47341988872E+02  0.36427648317E+02  0.10676121367E+03  0.12242664831E+03  0.47000000000E+01 0. -1.
         -5    1    3    3    0  501  0.17129162342E+01 -0.29726488454E+02 -0.20357860034E+02  0.36374863065E+02  0.47000000000E+01 0. -1.
          5    1    4    4  502    0  0.44182720190E+01 -0.62379934528E+02 -0.46557423225E+01  0.62885159584E+02  0.47000000000E+01 0.  1.
         -5    1    4    4    0  502  0.41210800619E+02  0.55678774665E+02 -0.23289246633E+02  0.73232062955E+02  0.47000000000E+01 0.  1.
<mgrwt>
<rscale>  0 0.28906691E+03</rscale>
<asrwt>0</asrwt>
<pdfrwt beam="1">  1       21 0.27182854E-01 0.28906691E+03</pdfrwt>
<pdfrwt beam="2">  1       21 0.18189259E-01 0.28906691E+03</pdfrwt>
<totfact> 0.34782407E+05</totfact>
</mgrwt>
</event>
<event>
 8    1  0.9974463E-006  0.3098416E+03  0.7546771E-02  0.1080422E+00
         21   -1    0    0  504  503  0.00000000000E+00  0.00000000000E+00  0.65960272628E+03  0.65960272628E+03  0.00000000000E+00 0.  1.
         21   -1    0    0  503  504 -0.00000000000E+00 -0.00000000000E+00 -0.36386232016E+02  0.36386232016E+02  0.00000000000E+00 0.  1.
         25    2    1    2    0    0  0.71528228112E+02 -0.55708700669E+02  0.28356828759E+03  0.32288559483E+03  0.12499754747E+03 0.  0.
         25    2    1    2    0    0 -0.71528228112E+02  0.55708700669E+02  0.33964820667E+03  0.37310336347E+03  0.12500187514E+03 0.  0.
          5    1    3    3  501    0  0.60225421426E+02 -0.49889097200E+02  0.29495533528E+03  0.30518316339E+03  0.47000000000E+01 0.  1.
         -5    1    3    3    0  501  0.11302806686E+02 -0.58196034690E+01 -0.11387047694E+02  0.17702431435E+02  0.47000000000E+01 0.  1.
          5    1    4    4  502    0  0.26113270811E+02  0.37970265066E+02  0.56680587490E+02  0.73201249578E+02  0.47000000000E+01 0. -1.
         -5    1    4    4    0  502 -0.97641498923E+02  0.17738435604E+02  0.28296761918E+03  0.29990211389E+03  0.47000000000E+01 0. -1.
<mgrwt>
<rscale>  0 0.30984162E+03</rscale>
<asrwt>0</asrwt>
<pdfrwt beam="1">  1       21 0.10147733E+00 0.30984162E+03</pdfrwt>
<pdfrwt beam="2">  1       21 0.55978823E-02 0.30984162E+03</pdfrwt>
<totfact> 0.16971625E+05</totfact>
</mgrwt>
</event>
<event>
 8    1  0.9974463E-006  0.2824793E+03  0.7546771E-02  0.1094342E+00
         21   -1    0    0  504  503  0.00000000000E+00  0.00000000000E+00  0.11167115813E+04  0.11167115813E+04  0.00000000000E+00 0. -1.
         21   -1    0    0  503  504 -0.00000000000E+00 -0.00000000000E+00 -0.17863736096E+02  0.17863736096E+02  0.00000000000E+00 0. -1.
         25    2    1    2    0    0  0.46772561270E+02 -0.46217370457E+02  0.54835215796E+03  0.56624951238E+03  0.12499881328E+03 0.  0.
         25    2    1    2    0    0 -0.46772561270E+02  0.46217370457E+02  0.55049568723E+03  0.56832580500E+03  0.12500000457E+03 0.  0.
          5    1    3    3  501    0  0.58526423627E+02 -0.79503720561E+02  0.31343551141E+03  0.32864889116E+03  0.47000000000E+01 0. -1.
         -5    1    3    3    0  501 -0.11753862357E+02  0.33286350104E+02  0.23491664655E+03  0.23760062123E+03  0.47000000000E+01 0. -1.
          5    1    4    4  502    0 -0.85385012669E+02  0.24445445656E+02  0.26898143158E+03  0.28330421941E+03  0.47000000000E+01 0.  1.
         -5    1    4    4    0  502  0.38612451399E+02  0.21771924801E+02  0.28151425566E+03  0.28502158559E+03  0.47000000000E+01 0.  1.
<mgrwt>
<rscale>  0 0.28247932E+03</rscale>
<asrwt>0</asrwt>
<pdfrwt beam="1">  1       21 0.17180173E+00 0.28247932E+03</pdfrwt>
<pdfrwt beam="2">  1       21 0.27482680E-02 0.28247932E+03</pdfrwt>
<totfact> 0.14598199E+05</totfact>
</mgrwt>
</event>
<event>
 8    1  0.9974463E-006  0.4028917E+03  0.7546771E-02  0.1042783E+00
         21   -1    0    0  504  503  0.00000000000E+00  0.00000000000E+00  0.29221105285E+02  0.29221105285E+02  0.00000000000E+00 0. -1.
         21   -1    0    0  503  504 -0.00000000000E+00 -0.00000000000E+00 -0.13887371664E+04  0.13887371664E+04  0.00000000000E+00 0. -1.
         25    2    1    2    0    0  0.16371832034E+02 -0.13246315083E+03 -0.38236284361E+03  0.42384072709E+03  0.12500037821E+03 0.  0.
         25    2    1    2    0    0 -0.16371832034E+02  0.13246315083E+03 -0.97715321750E+03  0.99411754459E+03  0.12500703492E+03 0.  0.
          5    1    3    3  501    0  0.29873961678E+02 -0.15115212832E+03 -0.28879123172E+03  0.32735589960E+03  0.47000000000E+01 0. -1.
         -5    1    3    3    0  501 -0.13502129644E+02  0.18688977490E+02 -0.93571611889E+02  0.96484827491E+02  0.47000000000E+01 0. -1.
          5    1    4    4  502    0 -0.57387495588E+02  0.12440896166E+03 -0.82251250376E+03  0.83385839519E+03  0.47000000000E+01 0.  1.
         -5    1    4    4    0  502  0.41015663554E+02  0.80541891745E+01 -0.15464071374E+03  0.16025914940E+03  0.47000000000E+01 0.  1.
<mgrwt>
<rscale>  0 0.40289172E+03</rscale>
<asrwt>0</asrwt>
<pdfrwt beam="1">  1       21 0.44955561E-02 0.40289172E+03</pdfrwt>
<pdfrwt beam="2">  1       21 0.21365180E+00 0.40289172E+03</pdfrwt>
<totfact> 0.31868509E+04</totfact>
</mgrwt>
</event>
<event>
 8    1  0.9974463E-006  0.5615424E+03  0.7546771E-02  0.9988571E-01
         21   -1    0    0  504  503  0.00000000000E+00  0.00000000000E+00  0.96732663853E+03  0.96732663853E+03  0.00000000000E+00 0.  1.
         21   -1    0    0  503  504 -0.00000000000E+00 -0.00000000000E+00 -0.81495188788E+02  0.81495188788E+02  0.00000000000E+00 0.  1.
         25    2    1    2    0    0 -0.21088397293E+03 -0.13551423628E+03  0.47891003988E+03  0.55481232135E+03  0.12500290939E+03 0.  0.
         25    2    1    2    0    0  0.21088397293E+03  0.13551423628E+03  0.40692140986E+03  0.49400950596E+03  0.12499679958E+03 0.  0.
          5    1    3    3  501    0 -0.96386134833E+02 -0.36282547587E+02  0.31550625093E+03  0.33192317579E+03  0.47000000000E+01 0.  1.
         -5    1    3    3    0  501 -0.11449783809E+03 -0.99231688694E+02  0.16340378895E+03  0.22288914557E+03  0.47000000000E+01 0.  1.
          5    1    4    4  502    0  0.14111198539E+03  0.60482997397E+02  0.33560788779E+03  0.36908742832E+03  0.47000000000E+01 0. -1.
         -5    1    4    4    0  502  0.69771987531E+02  0.75031238884E+02  0.71313522071E+02  0.12492207764E+03  0.47000000000E+01 0. -1.
<mgrwt>
<rscale>  0 0.56154240E+03</rscale>
<asrwt>0</asrwt>
<pdfrwt beam="1">  1       21 0.14881947E+00 0.56154240E+03</pdfrwt>
<pdfrwt beam="2">  1       21 0.12537722E-01 0.56154240E+03</pdfrwt>
<totfact> 0.14280059E+04</totfact>
</mgrwt>
</event>
<event>
 8    1  0.9974463E-006  0.2617906E+03  0.7546771E-02  0.1106072E+00
         21   -1    0    0  504  503  0.00000000000E+00  0.00000000000E+00  0.25829339129E+03  0.25829339129E+03  0.00000000000E+00 0. -1.
         21   -1    0    0  503  504 -0.00000000000E+00 -0.00000000000E+00 -0.66333799913E+02  0.66333799913E+02  0.00000000000E+00 0. -1.
         25    2    1    2    0    0 -0.45627325601E+01  0.32788663682E+02  0.12117612288E+03  0.17721031444E+03  0.12499571110E+03 0.  0.
         25    2    1    2    0    0  0.45627325601E+01 -0.32788663682E+02  0.70783468497E+02  0.14741687676E+03  0.12500208457E+03 0.  0.
          5    1    3    3  501    0 -0.21519716780E+02 -0.40853823420E+02  0.19270267095E+02  0.50255012608E+02  0.47000000000E+01 0.  1.
         -5    1    3    3    0  501  0.16956984220E+02  0.73642487102E+02  0.10190585578E+03  0.12695530183E+03  0.47000000000E+01 0.  1.
          5    1    4    4  502    0 -0.50133298307E+02  0.13709778093E+02  0.50615161380E+02  0.72700001211E+02  0.47000000000E+01 0.  1.
         -5    1    4    4    0  502  0.54696030867E+02 -0.46498441775E+02  0.20168307117E+02  0.74716875551E+02  0.47000000000E+01 0.  1.
<mgrwt>
<rscale>  0 0.26179062E+03</rscale>
<asrwt>0</asrwt>
<pdfrwt beam="1">  1       21 0.39737444E-01 0.26179062E+03</pdfrwt>
<pdfrwt beam="2">  1       21 0.10205200E-01 0.26179062E+03</pdfrwt>
<totfact> 0.47122543E+05</totfact>
</mgrwt>
</event>
<event>
 8    1  0.9974463E-006  0.5884197E+03  0.7546771E-02  0.9929727E-01
         21   -1    0    0  504  503  0.00000000000E+00  0.00000000000E+00  0.64724765950E+03  0.64724765950E+03  0.00000000000E+00 0. -1.
         21   -1    0    0  503  504 -0.00000000000E+00 -0.00000000000E+00 -0.13373463667E+03  0.13373463667E+03  0.00000000000E+00 0. -1.
         25    2    1    2    0    0 -0.25902753286E+03 -0.50542596478E+02  0.20918452299E+03  0.35921192260E+03  0.12500089536E+03 0.  0.
         25    2    1    2    0    0  0.25902753286E+03  0.50542596478E+02  0.30432849984E+03  0.42177037358E+03  0.12499838149E+03 0.  0.
          5    1    3    3  501    0 -0.18230752674E+03 -0.92446179460E+02  0.14805300716E+03  0.25243635501E+03  0.47000000000E+01 0.  1.
         -5    1    3    3    0  501 -0.76720006118E+02  0.41903582982E+02  0.61131515829E+02  0.10677556759E+03  0.47000000000E+01 0.  1.
          5    1    4    4  502    0  0.21102053007E+03  0.16930185397E+02  0.15839123614E+03  0.26443556677E+03  0.47000000000E+01 0.  1.
         -5    1    4    4    0  502  0.48007002788E+02  0.33612411081E+02  0.14593726370E+03  0.15733480680E+03  0.47000000000E+01 0.  1.
<mgrwt>
<rscale>  0 0.58841968E+03</rscale>
<asrwt>0</asrwt>
<pdfrwt beam="1">  1       21 0.99576562E-01 0.58841968E+03</pdfrwt>
<pdfrwt beam="2">  1       21 0.20574560E-01 0.58841968E+03</pdfrwt>
<totfact> 0.15768481E+04</totfact>
</mgrwt>
</event>
<event>
 8    1  0.9974463E-006  0.3039386E+03  0.7546771E-02  0.1083288E+00
         21   -1    0    0  504  503  0.00000000000E+00  0.00000000000E+00  0.81622470220E+03  0.81622470220E+03  0.00000000000E+00 0.  1.
         21   -1    0    0  503  504 -0.00000000000E+00 -0.00000000000E+00 -0.28294504530E+02  0.28294504530E+02  0.00000000000E+00 0.  1.
         25    2    1    2    0    0  0.58465328719E+02 -0.18798486467E+02  0.22496952673E+03  0.26458700697E+03  0.12499367401E+03 0.  0.
         25    2    1    2    0    0 -0.58465328719E+02  0.18798486467E+02  0.56296067094E+03  0.57993219977E+03  0.12500024616E+03 0.  0.
          5    1    3    3  501    0  0.50219706471E+02  0.12551030436E+02  0.17945749642E+02  0.54988064280E+02  0.47000000000E+01 0. -1.
         -5    1    3    3    0  501  0.82456222480E+01 -0.31349516903E+02  0.20702377709E+03  0.20959894269E+03  0.47000000000E+01 0. -1.
          5    1    4    4  502    0  0.31073136976E+01 -0.33026360681E+02  0.47043625158E+02  0.57754554506E+02  0.47000000000E+01 0. -1.
         -5    1    4    4    0  502 -0.61572642417E+02  0.51824847148E+02  0.51591704579E+03  0.52217764526E+03  0.47000000000E+01 0. -1.
<mgrwt>
<rscale>  0 0.30393864E+03</rscale>
<asrwt>0</asrwt>
<pdfrwt beam="1">  1       21 0.12557301E+00 0.30393864E+03</pdfrwt>
<pdfrwt beam="2">  1       21 0.43530013E-02 0.30393864E+03</pdfrwt>
<totfact> 0.15433753E+05</totfact>
</mgrwt>
</event>
<event>
 8    1  0.9974463E-006  0.3038475E+03  0.7546771E-02  0.1083333E+00
         21   -1    0    0  504  503  0.00000000000E+00  0.00000000000E+00  0.58349260680E+03  0.58349260680E+03  0.00000000000E+00 0. -1.
         21   -1    0    0  503  504 -0.00000000000E+00 -0.00000000000E+00 -0.39556322704E+02  0.39556322704E+02  0.00000000000E+00 0. -1.
         25    2    1    2    0    0 -0.14738156412E+02  0.29343503811E+02  0.10819049740E+03  0.16854393734E+03  0.12499448235E+03 0.  0.
         25    2    1    2    0    0  0.14738156412E+02 -0.29343503811E+02  0.43574578669E+03  0.45450499216E+03  0.12498857070E+03 0.  0.
          5    1    3    3  501    0 -0.39780180197E+02 -0.67037772454E+01  0.11672026604E+03  0.12358444024E+03  0.47000000000E+01 0.  1.
         -5    1    3    3    0  501  0.25042023784E+02  0.36047281056E+02 -0.85297686355E+01  0.44959497103E+02  0.47000000000E+01 0.  1.
          5    1    4    4  502    0 -0.17109777611E+02  0.66458988357E+01  0.31316775307E+01  0.19204423069E+02  0.47000000000E+01 0.  1.
         -5    1    4    4    0  502  0.31847934024E+02 -0.35989402646E+02  0.43261410916E+03  0.43530056909E+03  0.47000000000E+01 0.  1.
<mgrwt>
<rscale>  0 0.30384747E+03</rscale>
<asrwt>0</asrwt>
<pdfrwt beam="1">  1       21 0.89768087E-01 0.30384747E+03</pdfrwt>
<pdfrwt beam="2">  1       21 0.60855885E-02 0.30384747E+03</pdfrwt>
<totfact> 0.19691482E+05</totfact>
</mgrwt>
</event>
<event>
 8    1  0.9974463E-006  0.3077161E+03  0.7546771E-02  0.1081446E+00
         21   -1    0    0  504  503  0.00000000000E+00  0.00000000000E+00  0.14806133474E+02  0.14806133474E+02  0.00000000000E+00 0.  1.
         21   -1    0    0  503  504 -0.00000000000E+00 -0.00000000000E+00 -0.15988169837E+04  0.15988169837E+04  0.00000000000E+00 0.  1.
         25    2    1    2    0    0 -0.68336679576E+01 -0.60719029205E+02 -0.11364244622E+04  0.11449098950E+04  0.12499844001E+03 0.  0.
         25    2    1    2    0    0  0.68336679576E+01  0.60719029205E+02 -0.44758638809E+03  0.46871322217E+03  0.12500004124E+03 0.  0.
          5    1    3    3  501    0  0.84456418885E+01  0.28615097194E+01 -0.88565537694E+03  0.88571273774E+03  0.47000000000E+01 0. -1.
         -5    1    3    3    0  501 -0.15279309846E+02 -0.63580538924E+02 -0.25076908524E+03  0.25919715730E+03  0.47000000000E+01 0. -1.
          5    1    4    4  502    0 -0.12591975981E+02  0.76277200827E+02 -0.43218490521E+03  0.43907021252E+03  0.47000000000E+01 0. -1.
         -5    1    4    4    0  502  0.19425643939E+02 -0.15558171623E+02 -0.15401482877E+02  0.29643009656E+02  0.47000000000E+01 0. -1.
<mgrwt>
<rscale>  0 0.30771609E+03</rscale>
<asrwt>0</asrwt>
<pdfrwt beam="1">  1       21 0.22778666E-02 0.30771609E+03</pdfrwt>
<pdfrwt beam="2">  1       21 0.24597185E+00 0.30771609E+03</pdfrwt>
<totfact> 0.65331274E+04</totfact>
</mgrwt>
</event>
<event>
 8    1  0.9974463E-006  0.3672286E+03  0.7546771E-02  0.1055758E+00
         21   -1    0    0  504  503  0.00000000000E+00  0.00000000000E+00  0.93995969974E+02  0.93995969974E+02  0.00000000000E+00 0. -1.
         21   -1    0    0  503  504 -0.00000000000E+00 -0.00000000000E+00 -0.35867721602E+03  0.35867721602E+03  0.00000000000E+00 0. -1.
         25    2    1    2    0    0 -0.11868815369E+03 -0.63266256398E+02 -0.13198682327E+03  0.22613081449E+03  0.12500050687E+03 0.  0.
         25    2    1    2    0    0  0.11868815369E+03  0.63266256398E+02 -0.13269442278E+03  0.22654237151E+03  0.12499655686E+03 0.  0.
          5    1    3    3  501    0 -0.14275962177E+00  0.23709090261E+02 -0.55047484258E+02  0.60120353163E+02  0.47000000000E+01 0.  1.
         -5    1    3    3    0  501 -0.11854539407E+03 -0.86975346658E+02 -0.76939339013E+02  0.16601046133E+03  0.47000000000E+01 0.  1.
          5    1    4    4  502    0 -0.24048119970E+02  0.11198158028E+02 -0.40872699432E+02  0.48952817857E+02  0.47000000000E+01 0. -1.
         -5    1    4    4    0  502  0.14273627366E+03  0.52068098370E+02 -0.91821723345E+02  0.17758955365E+03  0.47000000000E+01 0. -1.
<mgrwt>
<rscale>  0 0.36722861E+03</rscale>
<asrwt>0</asrwt>
<pdfrwt beam="1">  1       21 0.14460919E-01 0.36722861E+03</pdfrwt>
<pdfrwt beam="2">  1       21 0.55181109E-01 0.36722861E+03</pdfrwt>
<totfact> 0.12353905E+05</totfact>
</mgrwt>
</event>
<event>
 8    1  0.9974463E-006  0.3954398E+03  0.7546771E-02  0.1045370E+00
         21   -1    0    0  504  503  0.00000000000E+00  0.00000000000E+00  0.47099858582E+03  0.47099858582E+03  0.00000000000E+00 0.  1.
         21   -1    0    0  503  504 -0.00000000000E+00 -0.00000000000E+00 -0.83000581962E+02  0.83000581962E+02  0.00000000000E+00 0.  1.
         25    2    1    2    0    0 -0.12890282045E+03 -0.81778631018E+02  0.17594443506E+03  0.26435990221E+03  0.12500412815E+03 0.  0.
         25    2    1    2    0    0  0.12890282045E+03  0.81778631018E+02  0.21205356879E+03  0.28963926557E+03  0.12498202475E+03 0.  0.
          5    1    3    3  501    0 -0.14762575066E+03 -0.76151051342E+02  0.12017602810E+03  0.20507733324E+03  0.47000000000E+01 0. -1.
         -5    1    3    3    0  501  0.18722930204E+02 -0.56275796760E+01  0.55768406968E+02  0.59282568974E+02  0.47000000000E+01 0. -1.
          5    1    4    4  502    0  0.91060851985E+02  0.11094542861E+03  0.12575492016E+03  0.19088571670E+03  0.47000000000E+01 0.  1.
         -5    1    4    4    0  502  0.37841968470E+02 -0.29166797593E+02  0.86298648628E+02  0.98753548871E+02  0.47000000000E+01 0.  1.
<mgrwt>
<rscale>  0 0.39543979E+03</rscale>
<asrwt>0</asrwt>
<pdfrwt beam="1">  1       21 0.72461319E-01 0.39543979E+03</pdfrwt>
<pdfrwt beam="2">  1       21 0.12769321E-01 0.39543979E+03</pdfrwt>
<totfact> 0.84622040E+04</totfact>
</mgrwt>
</event>
<event>
 8    1  0.9974463E-006  0.2859673E+03  0.7546771E-02  0.1092474E+00
         21   -1    0    0  504  503  0.00000000000E+00  0.00000000000E+00  0.10098688664E+04  0.10098688664E+04  0.00000000000E+00 0.  1.
         21   -1    0    0  503  504 -0.00000000000E+00 -0.00000000000E+00 -0.20244533822E+02  0.20244533822E+02  0.00000000000E+00 0.  1.
         25    2    1    2    0    0  0.51755443214E+02 -0.33062293744E+02  0.61161305940E+03  0.62726999843E+03  0.12500150130E+03 0.  0.
         25    2    1    2    0    0 -0.51755443214E+02  0.33062293744E+02  0.37801127316E+03  0.40284340178E+03  0.12497416754E+03 0.  0.
          5    1    3    3  501    0  0.36598976468E+02 -0.40874736058E+02  0.91052278951E+02  0.10640881838E+03  0.47000000000E+01 0.  1.
         -5    1    3    3    0  501  0.15156466746E+02  0.78124423139E+01  0.52056078045E+03  0.52086118005E+03  0.47000000000E+01 0.  1.
          5    1    4    4  502    0 -0.12095495982E+02  0.43296183045E+02  0.34485300656E+02  0.56852321418E+02  0.47000000000E+01 0.  1.
         -5    1    4    4    0  502 -0.39659947232E+02 -0.10233889301E+02  0.34352597250E+03  0.34599108036E+03  0.47000000000E+01 0.  1.
<mgrwt>
<rscale>  0 0.28596730E+03</rscale>
<asrwt>0</asrwt>
<pdfrwt beam="1">  1       21 0.15536440E+00 0.28596730E+03</pdfrwt>
<pdfrwt beam="2">  1       21 0.31145445E-02 0.28596730E+03</pdfrwt>
<totfact> 0.15622463E+05</totfact>
</mgrwt>
</event>
<event>
 8    1  0.9974463E-006  0.8693116E+03  0.7546771E-02  0.9464778E-01
         21   -1    0    0  504  503  0.00000000000E+00  0.00000000000E+00  0.11469976840E+04  0.11469976840E+04  0.00000000000E+00 0.  1.
         21   -1    0    0  503  504 -0.00000000000E+00 -0.00000000000E+00 -0.16471322134E+03  0.16471322134E+03  0.00000000000E+00 0.  1.
         25    2    1    2    0    0 -0.26946163455E+03 -0.73296000077E+01  0.12462265275E+02  0.29739333006E+03  0.12499675665E+03 0.  0.
         25    2    1    2    0    0  0.26946163455E+03  0.73296000077E+01  0.96982219740E+03  0.10143175753E+04  0.12498701322E+03 0.  0.
          5    1    3    3  501    0 -0.59976336104E+02 -0.42430882707E+02  0.38956386802E+02  0.83290040055E+02  0.47000000000E+01 0. -1.
         -5    1    3    3    0  501 -0.20948529845E+03  0.35101282699E+02 -0.26494121527E+02  0.21410329000E+03  0.47000000000E+01 0. -1.
          5    1    4    4  502    0  0.26677351629E+03 -0.20125140795E+02  0.90466146299E+03  0.94340213213E+03  0.47000000000E+01 0. -1.
         -5    1    4    4    0  502  0.26881182686E+01  0.27454740803E+02  0.65160734405E+02  0.70915443174E+02  0.47000000000E+01 0. -1.
<mgrwt>
<rscale>  0 0.86931164E+03</rscale>
<asrwt>0</asrwt>
<pdfrwt beam="1">  1       21 0.17646118E+00 0.86931164E+03</pdfrwt>
<pdfrwt beam="2">  1       21 0.25340496E-01 0.86931164E+03</pdfrwt>
<totfact> 0.21577622E+03</totfact>
</mgrwt>
</event>
<event>
 8    1  0.9974463E-006  0.2813576E+03  0.7546771E-02  0.1094950E+00
         21   -1    0    0  504  503  0.00000000000E+00  0.00000000000E+00  0.17607570941E+03  0.17607570941E+03  0.00000000000E+00 0.  1.
         21   -1    0    0  503  504 -0.00000000000E+00 -0.00000000000E+00 -0.11239785263E+03  0.11239785263E+03  0.00000000000E+00 0.  1.
         25    2    1    2    0    0 -0.21170927751E+02 -0.25835580000E+02  0.88388694316E+02  0.15669646677E+03  0.12500214414E+03 0.  0.
         25    2    1    2    0    0  0.21170927751E+02  0.25835580000E+02 -0.24710837541E+02  0.13177709527E+03  0.12505555554E+03 0.  0.
          5    1    3    3  501    0 -0.45611303948E+02  0.38573300816E+02  0.34809440839E+02  0.69297025586E+02  0.47000000000E+01 0. -1.
         -5    1    3    3    0  501  0.24440376196E+02 -0.64408880815E+02  0.53579253477E+02  0.87399441186E+02  0.47000000000E+01 0. -1.
          5    1    4    4  502    0 -0.18770039759E+02 -0.68294840729E+01 -0.63707321123E+02  0.66930329522E+02  0.47000000000E+01 0. -1.
         -5    1    4    4    0  502  0.39940967510E+02  0.32665064073E+02  0.38996483582E+02  0.64846765750E+02  0.47000000000E+01 0. -1.
<mgrwt>
<rscale>  0 0.28135765E+03</rscale>
<asrwt>0</asrwt>
<pdfrwt beam="1">  1       21 0.27088571E-01 0.28135765E+03</pdfrwt>
<pdfrwt beam="2">  1       21 0.17291977E-01 0.28135765E+03</pdfrwt>
<totfact> 0.38534987E+05</totfact>
</mgrwt>
</event>
<event>
 8    1  0.9974463E-006  0.3280679E+03  0.7546771E-02  0.1071995E+00
         21   -1    0    0  504  503  0.00000000000E+00  0.00000000000E+00  0.51888371060E+02  0.51888371060E+02  0.00000000000E+00 0. -1.
         21   -1    0    0  503  504 -0.00000000000E+00 -0.00000000000E+00 -0.51855820872E+03  0.51855820872E+03  0.00000000000E+00 0. -1.
         25    2    1    2    0    0  0.21877863824E+02  0.10343863075E+03 -0.25081162546E+03  0.29951771204E+03  0.12500478833E+03 0.  0.
         25    2    1    2    0    0 -0.21877863824E+02 -0.10343863075E+03 -0.21585821220E+03  0.27092886774E+03  0.12501796806E+03 0.  0.
          5    1    3    3  501    0 -0.84074415568E+01  0.98802866315E+02 -0.84567942851E+02  0.13040904272E+03  0.47000000000E+01 0. -1.
         -5    1    3    3    0  501  0.30285305381E+02  0.46357644394E+01 -0.16624368260E+03  0.16910866932E+03  0.47000000000E+01 0. -1.
          5    1    4    4  502    0  0.41145393325E+02 -0.36488792471E+01 -0.85148366412E+02  0.94755432637E+02  0.47000000000E+01 0. -1.
         -5    1    4    4    0  502 -0.63023257149E+02 -0.99789751508E+02 -0.13070984579E+03  0.17617343510E+03  0.47000000000E+01 0. -1.
<mgrwt>
<rscale>  0 0.32806792E+03</rscale>
<asrwt>0</asrwt>
<pdfrwt beam="1">  1       21 0.79828262E-02 0.32806792E+03</pdfrwt>
<pdfrwt beam="2">  1       21 0.79778188E-01 0.32806792E+03</pdfrwt>
<totfact> 0.16024668E+05</totfact>
</mgrwt>
</event>
<event>
 8    1  0.9974463E-006  0.2964003E+03  0.7546771E-02  0.1087054E+00
         21   -1    0    0  504  503  0.00000000000E+00  0.00000000000E+00  0.41373592139E+02  0.41373592139E+02  0.00000000000E+00 0. -1.
         21   -1    0    0  503  504 -0.00000000000E+00 -0.00000000000E+00 -0.53085259448E+03  0.53085259448E+03  0.00000000000E+00 0. -1.
         25    2    1    2    0    0  0.73564182289E+01 -0.30102218578E+01 -0.39766813059E+03  0.41692736540E+03  0.12500123043E+03 0.  0.
         25    2    1    2    0    0 -0.73564182289E+01  0.30102218578E+01 -0.91810871750E+02  0.15529882122E+03  0.12500123749E+03 0.  0.
          5    1    3    3  501    0  0.31030034173E+02  0.54451487885E+02 -0.19219034164E+03  0.20220545238E+03  0.47000000000E+01 0.  1.
         -5    1    3    3    0  501 -0.23673615944E+02 -0.57461709743E+02 -0.20547778896E+03  0.21472191302E+03  0.47000000000E+01 0.  1.
          5    1    4    4  502    0  0.29307411749E+02  0.51279532167E+01 -0.10999864595E+03  0.11404828976E+03  0.47000000000E+01 0. -1.
         -5    1    4    4    0  502 -0.36663829978E+02 -0.21177313588E+01  0.18187774199E+02  0.41250531452E+02  0.47000000000E+01 0. -1.
<mgrwt>
<rscale>  0 0.29640026E+03</rscale>
<asrwt>0</asrwt>
<pdfrwt beam="1">  1       21 0.63651684E-02 0.29640026E+03</pdfrwt>
<pdfrwt beam="2">  1       21 0.81669624E-01 0.29640026E+03</pdfrwt>
<totfact> 0.22723621E+05</totfact>
</mgrwt>
</event>
<event>
 8    1  0.9974463E-006  0.2582779E+03  0.7546771E-02  0.1108182E+00
         21   -1    0    0  504  503  0.00000000000E+00  0.00000000000E+00  0.30456727439E+02  0.30456727439E+02  0.00000000000E+00 0.  1.
         21   -1    0    0  503  504 -0.00000000000E+00 -0.00000000000E+00 -0.54755928602E+03  0.54755928602E+03  0.00000000000E+00 0.  1.
         25    2    1    2    0    0  0.23510017364E+02  0.45257065327E+01 -0.20951249119E+03  0.24513679817E+03  0.12499345149E+03 0.  0.
         25    2    1    2    0    0 -0.23510017364E+02 -0.45257065327E+01 -0.30759006739E+03  0.33287921529E+03  0.12499487781E+03 0.  0.
          5    1    3    3  501    0 -0.11451134033E+02  0.43471627822E+02 -0.21750509032E+02  0.50160597477E+02  0.47000000000E+01 0.  1.
         -5    1    3    3    0  501  0.34961151397E+02 -0.38945921289E+02 -0.18776198216E+03  0.19497620069E+03  0.47000000000E+01 0.  1.
          5    1    4    4  502    0 -0.65983438518E+02 -0.19695010865E+02 -0.25124987194E+03  0.26055766303E+03  0.47000000000E+01 0.  1.
         -5    1    4    4    0  502  0.42473421154E+02  0.15169304332E+02 -0.56340195447E+02  0.72321552261E+02  0.47000000000E+01 0.  1.
<mgrwt>
<rscale>  0 0.25827787E+03</rscale>
<asrwt>0</asrwt>
<pdfrwt beam="1">  1       21 0.46856504E-02 0.25827787E+03</pdfrwt>
<pdfrwt beam="2">  1       21 0.84239890E-01 0.25827787E+03</pdfrwt>
<totfact> 0.36118200E+05</totfact>
</mgrwt>
</event>
<event>
 8    1  0.9974463E-006  0.2741407E+03  0.7546771E-02  0.1098933E+00
         21   -1    0    0  504  503  0.00000000000E+00  0.00000000000E+00  0.12404683404E+02  0.12404683404E+02  0.00000000000E+00 0. -1.
         21   -1    0    0  503  504 -0.00000000000E+00 -0.00000000000E+00 -0.15146114536E+04  0.15146114536E+04  0.00000000000E+00 0. -1.
         25    2    1    2    0    0  0.60954537986E+01 -0.54062635586E+02 -0.83046603045E+03  0.84158243197E+03  0.12500895546E+03 0.  0.
         25    2    1    2    0    0 -0.60954537986E+01  0.54062635586E+02 -0.67174073977E+03  0.68543370506E+03  0.12499527767E+03 0.  0.
          5    1    3    3  501    0  0.20202439086E+02 -0.35518213687E+02 -0.73363986107E+02  0.84107351082E+02  0.47000000000E+01 0. -1.
         -5    1    3    3    0  501 -0.14106985288E+02 -0.18544421898E+02 -0.75710204434E+03  0.75747508088E+03  0.47000000000E+01 0. -1.
          5    1    4    4  502    0 -0.89186647785E+00 -0.18406985237E+02 -0.13851680908E+02  0.23528102246E+02  0.47000000000E+01 0.  1.
         -5    1    4    4    0  502 -0.52035873207E+01  0.72469620823E+02 -0.65788905887E+03  0.66190560282E+03  0.47000000000E+01 0.  1.
<mgrwt>
<rscale>  0 0.27414066E+03</rscale>
<asrwt>0</asrwt>
<pdfrwt beam="1">  1       21 0.19084144E-02 0.27414066E+03</pdfrwt>
<pdfrwt beam="2">  1       21 0.23301696E+00 0.27414066E+03</pdfrwt>
<totfact> 0.10644402E+05</totfact>
</mgrwt>
</event>
<event>
 8    1  0.9974463E-006  0.4253058E+03  0.7546771E-02  0.1035353E+00
         21   -1    0    0  504  503  0.00000000000E+00  0.00000000000E+00  0.18684228861E+03  0.18684228861E+03  0.00000000000E+00 0. -1.
         21   -1    0    0  503  504 -0.00000000000E+00 -0.00000000000E+00 -0.24202903720E+03  0.24202903720E+03  0.00000000000E+00 0. -1.
         25    2    1    2    0    0 -0.72793100093E+02  0.42965056232E+02  0.12350104787E+03  0.19499276546E+03  0.12499935311E+03 0.  0.
         25    2    1    2    0    0  0.72793100093E+02 -0.42965056232E+02 -0.17868779646E+03  0.23387856034E+03  0.12500008362E+03 0.  0.
          5    1    3    3  501    0  0.15608419218E+02  0.76831579584E+01 -0.17295064350E+02  0.24977247998E+02  0.47000000000E+01 0. -1.
         -5    1    3    3    0  501 -0.88401519310E+02  0.35281898274E+02  0.14079611222E+03  0.17001551746E+03  0.47000000000E+01 0. -1.
          5    1    4    4  502    0  0.44082227556E+02 -0.50720866006E+02 -0.17088015673E+02  0.69497764815E+02  0.47000000000E+01 0. -1.
         -5    1    4    4    0  502  0.28710872537E+02  0.77558097735E+01 -0.16159978079E+03  0.16438079553E+03  0.47000000000E+01 0. -1.
<mgrwt>
<rscale>  0 0.42530582E+03</rscale>
<asrwt>0</asrwt>
<pdfrwt beam="1">  1       21 0.28744968E-01 0.42530582E+03</pdfrwt>
<pdfrwt beam="2">  1       21 0.37235236E-01 0.42530582E+03</pdfrwt>
<totfact> 0.75143568E+04</totfact>
</mgrwt>
</event>
<event>
 8    1  0.9974463E-006  0.3674185E+03  0.7546771E-02  0.1055684E+00
         21   -1    0    0  504  503  0.00000000000E+00  0.00000000000E+00  0.43721014354E+02  0.43721014354E+02  0.00000000000E+00 0. -1.
         21   -1    0    0  503  504 -0.00000000000E+00 -0.00000000000E+00 -0.77191895884E+03  0.77191895884E+03  0.00000000000E+00 0. -1.
         25    2    1    2    0    0  0.31107799122E+01 -0.48544825523E+02 -0.85435455951E+02  0.15903047603E+03  0.12500079254E+03 0.  0.
         25    2    1    2    0    0 -0.31107799122E+01  0.48544825523E+02 -0.64276248853E+03  0.65660949717E+03  0.12500455218E+03 0.  0.
          5    1    3    3  501    0 -0.24587589775E+02  0.11981464824E+02 -0.87979940001E+02  0.92253265052E+02  0.47000000000E+01 0. -1.
         -5    1    3    3    0  501  0.27698369687E+02 -0.60526290347E+02  0.25444840500E+01  0.66777210974E+02  0.47000000000E+01 0. -1.
          5    1    4    4  502    0 -0.12708804783E+02  0.77445668846E+02 -0.59221063081E+03  0.59740678485E+03  0.47000000000E+01 0. -1.
         -5    1    4    4    0  502  0.95980248706E+01 -0.28900843323E+02 -0.50551857727E+02  0.59202712318E+02  0.47000000000E+01 0. -1.
<mgrwt>
<rscale>  0 0.36741845E+03</rscale>
<asrwt>0</asrwt>
<pdfrwt beam="1">  1       21 0.67263101E-02 0.36741845E+03</pdfrwt>
<pdfrwt beam="2">  1       21 0.11875676E+00 0.36741845E+03</pdfrwt>
<totfact> 0.82576044E+04</totfact>
</mgrwt>
</event>
<event>
 8    1  0.9974463E-006  0.4361505E+03  0.7546771E-02  0.1031935E+00
         21   -1    0    0  504  503  0.00000000000E+00  0.00000000000E+00  0.41917059788E+03  0.41917059788E+03  0.00000000000E+00 0. -1.
         21   -1    0    0  503  504 -0.00000000000E+00 -0.00000000000E+00 -0.11345455226E+03  0.11345455226E+03  0.00000000000E+00 0. -1.
         25    2    1    2    0    0  0.13404058705E+03 -0.51624492950E+02  0.28267450674E+03  0.34082478692E+03  0.12499876545E+03 0.  0.
         25    2    1    2    0    0 -0.13404058705E+03  0.51624492950E+02  0.23041538879E+02  0.19180036322E+03  0.12499799826E+03 0.  0.
          5    1    3    3  501    0  0.15831985189E+03 -0.46799295375E+02  0.24801468052E+03  0.29797436350E+03  0.47000000000E+01 0. -1.
         -5    1    3    3    0  501 -0.24279264842E+02 -0.48251975756E+01  0.34659826225E+02  0.42850423415E+02  0.47000000000E+01 0. -1.
          5    1    4    4  502    0 -0.11949472731E+03  0.82301380115E+02  0.43917724970E+02  0.15166859790E+03  0.47000000000E+01 0. -1.
         -5    1    4    4    0  502 -0.14545859743E+02 -0.30676887165E+02 -0.20876186091E+02  0.40131765317E+02  0.47000000000E+01 0. -1.
<mgrwt>
<rscale>  0 0.43615049E+03</rscale>
<asrwt>0</asrwt>
<pdfrwt beam="1">  1       21 0.64487783E-01 0.43615049E+03</pdfrwt>
<pdfrwt beam="2">  1       21 0.17454547E-01 0.43615049E+03</pdfrwt>
<totfact> 0.61034060E+04</totfact>
</mgrwt>
</event>
<event>
 8    1  0.9974463E-006  0.3730198E+03  0.7546771E-02  0.1053544E+00
         21   -1    0    0  504  503  0.00000000000E+00  0.00000000000E+00  0.34571790675E+02  0.34571790675E+02  0.00000000000E+00 0.  1.
         21   -1    0    0  503  504 -0.00000000000E+00 -0.00000000000E+00 -0.10061943989E+04  0.10061943989E+04  0.00000000000E+00 0.  1.
         25    2    1    2    0    0  0.96542566408E+02  0.12998584448E+01 -0.20906676850E+03  0.26202423085E+03  0.12500250839E+03 0.  0.
         25    2    1    2    0    0 -0.96542566408E+02 -0.12998584448E+01 -0.76255583970E+03  0.77874195870E+03  0.12500189124E+03 0.  0.
          5    1    3    3  501    0  0.55651144277E+02 -0.38353138797E+02 -0.30068805584E+02  0.74123115046E+02  0.47000000000E+01 0.  1.
         -5    1    3    3    0  501  0.40891422131E+02  0.39652997242E+02 -0.17899796292E+03  0.18790111581E+03  0.47000000000E+01 0.  1.
          5    1    4    4  502    0  0.51112359980E+01 -0.39569643801E+01  0.13310323871E+01  0.81020952690E+01  0.47000000000E+01 0.  1.
         -5    1    4    4    0  502 -0.10165380241E+03  0.26571059352E+01 -0.76388687209E+03  0.77063986343E+03  0.47000000000E+01 0.  1.
<mgrwt>
<rscale>  0 0.37301980E+03</rscale>
<asrwt>0</asrwt>
<pdfrwt beam="1">  1       21 0.53187374E-02 0.37301980E+03</pdfrwt>
<pdfrwt beam="2">  1       21 0.15479913E+00 0.37301980E+03</pdfrwt>
<totfact> 0.61924365E+04</totfact>
</mgrwt>
</event>
<event>
 8    1  0.9974463E-006  0.2797027E+03  0.7546771E-02  0.1095851E+00
         21   -1    0    0  504  503  0.00000000000E+00  0.00000000000E+00  0.10021913554E+04  0.10021913554E+04  0.00000000000E+00 0. -1.
         21   -1    0    0  503  504 -0.00000000000E+00 -0.00000000000E+00 -0.19515630714E+02  0.19515630714E+02  0.00000000000E+00 0. -1.
         25    2    1    2    0    0  0.22441783076E+02  0.19267969861E+02  0.28929909569E+03  0.31653454299E+03  0.12500104738E+03 0.  0.
         25    2    1    2    0    0 -0.22441783076E+02 -0.19267969861E+02  0.69337662903E+03  0.70517244316E+03  0.12498854595E+03 0.  0.
          5    1    3    3  501    0 -0.34577369030E+02 -0.26067469734E+02  0.17932331409E+03  0.18453739025E+03  0.47000000000E+01 0.  1.
         -5    1    3    3    0  501  0.57019152106E+02  0.45335439595E+02  0.10997578161E+03  0.13199715274E+03  0.47000000000E+01 0.  1.
          5    1    4    4  502    0  0.45972259660E+02  0.18904449141E+02  0.26247305777E+03  0.26717975768E+03  0.47000000000E+01 0. -1.
         -5    1    4    4    0  502 -0.68414042736E+02 -0.38172419002E+02  0.43090357125E+03  0.43799268548E+03  0.47000000000E+01 0. -1.
<mgrwt>
<rscale>  0 0.27970267E+03</rscale>
<asrwt>0</asrwt>
<pdfrwt beam="1">  1       21 0.15418324E+00 0.27970267E+03</pdfrwt>
<pdfrwt beam="2">  1       21 0.30024055E-02 0.27970267E+03</pdfrwt>
<totfact> 0.16988764E+05</totfact>
</mgrwt>
</event>
<event>
 8    1  0.9974463E-006  0.4475487E+03  0.7546771E-02  0.1028456E+00
         21   -1    0    0  504  503  0.00000000000E+00  0.00000000000E+00  0.40275050648E+02  0.40275050648E+02  0.00000000000E+00 0.  1.
         21   -1    0    0  503  504 -0.00000000000E+00 -0.00000000000E+00 -0.12433246498E+04  0.12433246498E+04  0.00000000000E+00 0.  1.
         25    2    1    2    0    0  0.79636036676E+02 -0.49722584108E+02 -0.14230854845E+03  0.21140116658E+03  0.12499798623E+03 0.  0.
         25    2    1    2    0    0 -0.79636036676E+02  0.49722584108E+02 -0.10607410507E+04  0.10721985339E+04  0.12499554263E+03 0.  0.
          5    1    3    3  501    0  0.63682966903E+02 -0.29174660971E+02 -0.16323101055E+03  0.17768830553E+03  0.47000000000E+01 0. -1.
         -5    1    3    3    0  501  0.15953069773E+02 -0.20547923137E+02  0.20922462095E+02  0.33712861055E+02  0.47000000000E+01 0. -1.
          5    1    4    4  502    0 -0.10154330874E+03  0.62180853181E+02 -0.98618121084E+03  0.99335440436E+03  0.47000000000E+01 0.  1.
         -5    1    4    4    0  502  0.21907272060E+02 -0.12458269073E+02 -0.74559839857E+02  0.78844129502E+02  0.47000000000E+01 0.  1.
<mgrwt>
<rscale>  0 0.44754872E+03</rscale>
<asrwt>0</asrwt>
<pdfrwt beam="1">  1       21 0.61961618E-02 0.44754872E+03</pdfrwt>
<pdfrwt beam="2">  1       21 0.19128071E+00 0.44754872E+03</pdfrwt>
<totfact> 0.25365004E+04</totfact>
</mgrwt>
</event>
<event>
 8    1  0.9974463E-006  0.3100505E+03  0.7546771E-02  0.1080322E+00
         21   -1    0    0  504  503  0.00000000000E+00  0.00000000000E+00  0.96423593193E+02  0.96423593193E+02  0.00000000000E+00 0.  1.
         21   -1    0    0  503  504 -0.00000000000E+00 -0.00000000000E+00 -0.24924212792E+03  0.24924212792E+03  0.00000000000E+00 0.  1.
         25    2    1    2    0    0  0.68155533148E+02  0.14041359105E+02 -0.14297678172E+03  0.20226107460E+03  0.12499938290E+03 0.  0.
         25    2    1    2    0    0 -0.68155533148E+02 -0.14041359105E+02 -0.98417530123E+01  0.14340464651E+03  0.12500278427E+03 0.  0.
          5    1    3    3  501    0 -0.32535505073E+02  0.17402891903E+02 -0.17030963191E+02  0.40909209772E+02  0.47000000000E+01 0. -1.
         -5    1    3    3    0  501  0.10069103822E+03 -0.33615327982E+01 -0.12594581852E+03  0.16135186483E+03  0.47000000000E+01 0. -1.
          5    1    4    4  502    0  0.31439752710E+02  0.19119083742E+02 -0.96435435339E+01  0.38328649148E+02  0.47000000000E+01 0. -1.
         -5    1    4    4    0  502 -0.99595285858E+02 -0.33160442847E+02 -0.19820947841E+00  0.10507599736E+03  0.47000000000E+01 0. -1.
<mgrwt>
<rscale>  0 0.31005046E+03</rscale>
<asrwt>0</asrwt>
<pdfrwt beam="1">  1       21 0.14834399E-01 0.31005046E+03</pdfrwt>
<pdfrwt beam="2">  1       21 0.38344943E-01 0.31005046E+03</pdfrwt>
<totfact> 0.25515624E+05</totfact>
</mgrwt>
</event>
<event>
 8    1  0.9974463E-006  0.3024972E+03  0.7546771E-02  0.1083999E+00
         21   -1    0    0  504  503  0.00000000000E+00  0.00000000000E+00  0.39512972350E+03  0.39512972350E+03  0.00000000000E+00 0.  1.
         21   -1    0    0  503  504 -0.00000000000E+00 -0.00000000000E+00 -0.57895265343E+02  0.57895265343E+02  0.00000000000E+00 0.  1.
         25    2    1    2    0    0 -0.15126204218E+02 -0.60738531632E+02  0.82148851926E+02  0.16214356266E+03  0.12499651900E+03 0.  0.
         25    2    1    2    0    0  0.15126204218E+02  0.60738531632E+02  0.25508560623E+03  0.29088142618E+03  0.12500146524E+03 0.  0.
          5    1    3    3  501    0 -0.11348751130E+02 -0.94704977465E+02  0.30914174756E+02  0.10037730376E+03  0.47000000000E+01 0.  1.
         -5    1    3    3    0  501 -0.37774530883E+01  0.33966445833E+02  0.51234677171E+02  0.61766258905E+02  0.47000000000E+01 0.  1.
          5    1    4    4  502    0 -0.14750347982E+01 -0.30599609860E+02  0.13772247396E+03  0.14116685760E+03  0.47000000000E+01 0. -1.
         -5    1    4    4    0  502  0.16601239016E+02  0.91338141492E+02  0.11736313227E+03  0.14971456858E+03  0.47000000000E+01 0. -1.
<mgrwt>
<rscale>  0 0.30249721E+03</rscale>
<asrwt>0</asrwt>
<pdfrwt beam="1">  1       21 0.60789187E-01 0.30249721E+03</pdfrwt>
<pdfrwt beam="2">  1       21 0.89069641E-02 0.30249721E+03</pdfrwt>
<totfact> 0.24364032E+05</totfact>
</mgrwt>
</event>
<event>
 8    1  0.9974463E-006  0.4383827E+03  0.7546771E-02  0.1031244E+00
         21   -1    0    0  504  503  0.00000000000E+00  0.00000000000E+00  0.14568779048E+03  0.14568779048E+03  0.00000000000E+00 0.  1.
         21   -1    0    0  503  504 -0.00000000000E+00 -0.00000000000E+00 -0.32977947282E+03  0.32977947282E+03  0.00000000000E+00 0.  1.
         25    2    1    2    0    0 -0.90001975005E+02 -0.15343440150E+03 -0.12207402208E+03  0.24934856909E+03  0.12502068217E+03 0.  0.
         25    2    1    2    0    0  0.90001975005E+02  0.15343440150E+03 -0.62017660260E+02  0.22611869421E+03  0.12506399411E+03 0.  0.
          5    1    3    3  501    0 -0.89984083580E+02 -0.59259935878E+02 -0.18745503705E+02  0.10946396305E+03  0.47000000000E+01 0.  1.
         -5    1    3    3    0  501 -0.17891424981E-01 -0.94174465619E+02 -0.10332851838E+03  0.13988460603E+03  0.47000000000E+01 0.  1.
          5    1    4    4  502    0  0.11487812605E+03  0.13006757246E+03 -0.24730065024E+02  0.17535171333E+03  0.47000000000E+01 0. -1.
         -5    1    4    4    0  502 -0.24876151044E+02  0.23366829034E+02 -0.37287595236E+02  0.50766980887E+02  0.47000000000E+01 0. -1.
<mgrwt>
<rscale>  0 0.43838268E+03</rscale>
<asrwt>0</asrwt>
<pdfrwt beam="1">  1       21 0.22413506E-01 0.43838268E+03</pdfrwt>
<pdfrwt beam="2">  1       21 0.50735304E-01 0.43838268E+03</pdfrwt>
<totfact> 0.63873545E+04</totfact>
</mgrwt>
</event>
<event>
 8    1  0.9974463E-006  0.3946623E+03  0.7546771E-02  0.1045644E+00
         21   -1    0    0  504  503  0.00000000000E+00  0.00000000000E+00  0.35671833477E+03  0.35671833477E+03  0.00000000000E+00 0.  1.
         21   -1    0    0  503  504 -0.00000000000E+00 -0.00000000000E+00 -0.10916055978E+03  0.10916055978E+03  0.00000000000E+00 0.  1.
         25    2    1    2    0    0 -0.66206611284E+02  0.13472072574E+03  0.90751616611E+02  0.21538975972E+03  0.12499561334E+03 0.  0.
         25    2    1    2    0    0  0.66206611284E+02 -0.13472072574E+03  0.15680615839E+03  0.25048913482E+03  0.12499458403E+03 0.  0.
          5    1    3    3  501    0  0.10923882598E+02  0.38256597529E+02  0.82263809412E+02  0.91500397838E+02  0.47000000000E+01 0. -1.
         -5    1    3    3    0  501 -0.77130493882E+02  0.96464128209E+02  0.84878071987E+01  0.12388936189E+03  0.47000000000E+01 0. -1.
          5    1    4    4  502    0 -0.31390297784E+02 -0.68016317916E+02  0.43908976747E+02  0.86957797447E+02  0.47000000000E+01 0. -1.
         -5    1    4    4    0  502  0.97596909068E+02 -0.66704407821E+02  0.11289718164E+03  0.16353133738E+03  0.47000000000E+01 0. -1.
<mgrwt>
<rscale>  0 0.39466225E+03</rscale>
<asrwt>0</asrwt>
<pdfrwt beam="1">  1       21 0.54879743E-01 0.39466225E+03</pdfrwt>
<pdfrwt beam="2">  1       21 0.16793932E-01 0.39466225E+03</pdfrwt>
<totfact> 0.94164919E+04</totfact>
</mgrwt>
</event>
<event>
 8    1  0.9974463E-006  0.4401882E+03  0.7546771E-02  0.1030689E+00
         21   -1    0    0  504  503  0.00000000000E+00  0.00000000000E+00  0.18482985471E+03  0.18482985471E+03  0.00000000000E+00 0.  1.
         21   -1    0    0  503  504 -0.00000000000E+00 -0.00000000000E+00 -0.26208651201E+03  0.26208651201E+03  0.00000000000E+00 0.  1.
         25    2    1    2    0    0  0.27684976815E+02  0.27668616420E+02  0.14095019198E+03  0.19240809190E+03  0.12498762712E+03 0.  0.
         25    2    1    2    0    0 -0.27684976815E+02 -0.27668616420E+02 -0.21820684928E+03  0.25450827481E+03  0.12501288973E+03 0.  0.
          5    1    3    3  501    0  0.11314683702E+01 -0.46969544468E+02  0.77717445023E+02  0.90936843959E+02  0.47000000000E+01 0. -1.
         -5    1    3    3    0  501  0.26553508445E+02  0.74638160888E+02  0.63232746957E+02  0.10147124794E+03  0.47000000000E+01 0. -1.
          5    1    4    4  502    0 -0.38803236018E+02 -0.60314537091E+02 -0.20507933518E+03  0.21730890048E+03  0.47000000000E+01 0.  1.
         -5    1    4    4    0  502  0.11118259203E+02  0.32645920672E+02 -0.13127514105E+02  0.37199374333E+02  0.47000000000E+01 0.  1.
<mgrwt>
<rscale>  0 0.44018820E+03</rscale>
<asrwt>0</asrwt>
<pdfrwt beam="1">  1       21 0.28435362E-01 0.44018820E+03</pdfrwt>
<pdfrwt beam="2">  1       21 0.40321002E-01 0.44018820E+03</pdfrwt>
<totfact> 0.65010579E+04</totfact>
</mgrwt>
</event>
<event>
 8    1  0.9974463E-006  0.3252992E+03  0.7546771E-02  0.1073236E+00
         21   -1    0    0  504  503  0.00000000000E+00  0.00000000000E+00  0.83069567313E+03  0.83069567313E+03  0.00000000000E+00 0.  1.
         21   -1    0    0  503  504 -0.00000000000E+00 -0.00000000000E+00 -0.31846672440E+02  0.31846672440E+02  0.00000000000E+00 0.  1.
         25    2    1    2    0    0 -0.16405880582E+02  0.10275580770E+03  0.39552457771E+03  0.42765905488E+03  0.12499866683E+03 0.  0.
         25    2    1    2    0    0  0.16405880582E+02 -0.10275580770E+03  0.40332442297E+03  0.43488329069E+03  0.12499990969E+03 0.  0.
          5    1    3    3  501    0  0.47487299390E+02  0.46071250931E+02  0.25192828566E+03  0.26051402051E+03  0.47000000000E+01 0.  1.
         -5    1    3    3    0  501 -0.63893179972E+02  0.56684556767E+02  0.14359629206E+03  0.16714503437E+03  0.47000000000E+01 0.  1.
          5    1    4    4  502    0 -0.37954389619E+02 -0.75374440991E+02  0.13174476919E+03  0.15652672697E+03  0.47000000000E+01 0. -1.
         -5    1    4    4    0  502  0.54360270200E+02 -0.27381366707E+02  0.27157965378E+03  0.27835656372E+03  0.47000000000E+01 0. -1.
<mgrwt>
<rscale>  0 0.32529920E+03</rscale>
<asrwt>0</asrwt>
<pdfrwt beam="1">  1       21 0.12779932E+00 0.32529920E+03</pdfrwt>
<pdfrwt beam="2">  1       21 0.48994887E-02 0.32529920E+03</pdfrwt>
<totfact> 0.11988402E+05</totfact>
</mgrwt>
</event>
<event>
 8    1  0.9974463E-006  0.3125160E+03  0.7546771E-02  0.1079146E+00
         21   -1    0    0  504  503  0.00000000000E+00  0.00000000000E+00  0.86439322635E+02  0.86439322635E+02  0.00000000000E+00 0.  1.
         21   -1    0    0  503  504 -0.00000000000E+00 -0.00000000000E+00 -0.28247052763E+03  0.28247052763E+03  0.00000000000E+00 0.  1.
         25    2    1    2    0    0 -0.31401079093E+02 -0.35036416313E+02 -0.22116164334E+01  0.13356826695E+03  0.12498804923E+03 0.  0.
         25    2    1    2    0    0  0.31401079093E+02  0.35036416313E+02 -0.19381958857E+03  0.23534158332E+03  0.12492417578E+03 0.  0.
          5    1    3    3  501    0  0.31764006098E+02  0.95039572578E+01 -0.35927789752E+02  0.49113881576E+02  0.47000000000E+01 0.  1.
         -5    1    3    3    0  501 -0.63165085191E+02 -0.44540373571E+02  0.33716173319E+02  0.84454385370E+02  0.47000000000E+01 0.  1.
          5    1    4    4  502    0 -0.29327286575E+02  0.11657817339E+02 -0.11530484212E+01  0.31928262771E+02  0.47000000000E+01 0. -1.
         -5    1    4    4    0  502  0.60728365668E+02  0.23378598974E+02 -0.19266654014E+03  0.20341332055E+03  0.47000000000E+01 0. -1.
<mgrwt>
<rscale>  0 0.31251599E+03</rscale>
<asrwt>0</asrwt>
<pdfrwt beam="1">  1       21 0.13298357E-01 0.31251599E+03</pdfrwt>
<pdfrwt beam="2">  1       21 0.43457005E-01 0.31251599E+03</pdfrwt>
<totfact> 0.24106745E+05</totfact>
</mgrwt>
</event>
<event>
 8    1  0.9974463E-006  0.3554545E+03  0.7546771E-02  0.1060398E+00
         21   -1    0    0  504  503  0.00000000000E+00  0.00000000000E+00  0.10045542530E+04  0.10045542530E+04  0.00000000000E+00 0. -1.
         21   -1    0    0  503  504 -0.00000000000E+00 -0.00000000000E+00 -0.31443779864E+02  0.31443779864E+02  0.00000000000E+00 0. -1.
         25    2    1    2    0    0  0.36416459691E+02  0.61678459149E+02  0.78987279984E+03  0.80290362656E+03  0.12499921106E+03 0.  0.
         25    2    1    2    0    0 -0.36416459691E+02 -0.61678459149E+02  0.18323767332E+03  0.23309440632E+03  0.12500626574E+03 0.  0.
          5    1    3    3  501    0 -0.26606950624E+01  0.44406666007E+02  0.71630180485E+03  0.71769728780E+03  0.47000000000E+01 0. -1.
         -5    1    3    3    0  501  0.39077154754E+02  0.17271793142E+02  0.73570994985E+02  0.85206338761E+02  0.47000000000E+01 0. -1.
          5    1    4    4  502    0  0.32737857293E+02 -0.58864253209E+02  0.54163296697E+02  0.86559345626E+02  0.47000000000E+01 0. -1.
         -5    1    4    4    0  502 -0.69154316985E+02 -0.28142059401E+01  0.12907437662E+03  0.14653506070E+03  0.47000000000E+01 0. -1.
<mgrwt>
<rscale>  0 0.35545454E+03</rscale>
<asrwt>0</asrwt>
<pdfrwt beam="1">  1       21 0.15454678E+00 0.35545454E+03</pdfrwt>
<pdfrwt beam="2">  1       21 0.48375054E-02 0.35545454E+03</pdfrwt>
<totfact> 0.73602168E+04</totfact>
</mgrwt>
</event>
<event>
 8    1  0.9974463E-006  0.2942183E+03  0.7546771E-02  0.1088167E+00
         21   -1    0    0  504  503  0.00000000000E+00  0.00000000000E+00  0.66765537978E+02  0.66765537978E+02  0.00000000000E+00 0.  1.
         21   -1    0    0  503  504 -0.00000000000E+00 -0.00000000000E+00 -0.32413588039E+03  0.32413588039E+03  0.00000000000E+00 0.  1.
         25    2    1    2    0    0  0.35214007453E+01  0.54025899876E+02 -0.20249755599E+03  0.24404395027E+03  0.12498396440E+03 0.  0.
         25    2    1    2    0    0 -0.35214007453E+01 -0.54025899876E+02 -0.54872786422E+02  0.14685746811E+03  0.12499958051E+03 0.  0.
          5    1    3    3  501    0 -0.47219428159E+02  0.59255173715E+02 -0.75328972231E+02  0.10694575291E+03  0.47000000000E+01 0. -1.
         -5    1    3    3    0  501  0.50740828904E+02 -0.52292738391E+01 -0.12716858376E+03  0.13709819736E+03  0.47000000000E+01 0. -1.
          5    1    4    4  502    0  0.50709748752E+02 -0.42056147492E+02 -0.62098615764E+02  0.90656087717E+02  0.47000000000E+01 0. -1.
         -5    1    4    4    0  502 -0.54231149498E+02 -0.11969752383E+02  0.72258293413E+01  0.56201380389E+02  0.47000000000E+01 0. -1.
<mgrwt>
<rscale>  0 0.29421833E+03</rscale>
<asrwt>0</asrwt>
<pdfrwt beam="1">  1       21 0.10271621E-01 0.29421833E+03</pdfrwt>
<pdfrwt beam="2">  1       21 0.49867060E-01 0.29421833E+03</pdfrwt>
<totfact> 0.28936011E+05</totfact>
</mgrwt>
</event>
<event>
 8    1  0.9974463E-006  0.2775505E+03  0.7546771E-02  0.1097034E+00
         21   -1    0    0  504  503  0.00000000000E+00  0.00000000000E+00  0.28498728055E+03  0.28498728055E+03  0.00000000000E+00 0. -1.
         21   -1    0    0  503  504 -0.00000000000E+00 -0.00000000000E+00 -0.67576950189E+02  0.67576950189E+02  0.00000000000E+00 0. -1.
         25    2    1    2    0    0 -0.27501418441E+02 -0.53250116589E+02  0.10105707990E+03  0.17154509960E+03  0.12499313927E+03 0.  0.
         25    2    1    2    0    0  0.27501418441E+02  0.53250116589E+02  0.11635325046E+03  0.18101913114E+03  0.12505176533E+03 0.  0.
          5    1    3    3  501    0 -0.23802487581E+02 -0.93086511992E+02  0.56858781256E+02  0.11174376106E+03  0.47000000000E+01 0. -1.
         -5    1    3    3    0  501 -0.36989308601E+01  0.39836395403E+02  0.44198298640E+02  0.59801338537E+02  0.47000000000E+01 0. -1.
          5    1    4    4  502    0  0.22046930539E+02 -0.33782880823E+02  0.72274481401E+01  0.41251378031E+02  0.47000000000E+01 0. -1.
         -5    1    4    4    0  502  0.54544879016E+01  0.87032997412E+02  0.10912580232E+03  0.13976775311E+03  0.47000000000E+01 0. -1.
<mgrwt>
<rscale>  0 0.27755051E+03</rscale>
<asrwt>0</asrwt>
<pdfrwt beam="1">  1       21 0.43844196E-01 0.27755051E+03</pdfrwt>
<pdfrwt beam="2">  1       21 0.10396454E-01 0.27755051E+03</pdfrwt>
<totfact> 0.37158217E+05</totfact>
</mgrwt>
</event>
<event>
 8    1  0.9974463E-006  0.1522726E+04  0.7546771E-02  0.8869480E-01
         21   -1    0    0  504  503  0.00000000000E+00  0.00000000000E+00  0.18322720682E+04  0.18322720682E+04  0.00000000000E+00 0.  1.
         21   -1    0    0  503  504 -0.00000000000E+00 -0.00000000000E+00 -0.31636860031E+03  0.31636860031E+03  0.00000000000E+00 0.  1.
         25    2    1    2    0    0 -0.74074162603E+01 -0.42870623244E+03  0.16280119960E+04  0.16881623131E+04  0.12500012983E+03 0.  0.
         25    2    1    2    0    0  0.74074162603E+01  0.42870623244E+03 -0.11210852810E+03  0.46047835550E+03  0.12501236044E+03 0.  0.
          5    1    3    3  501    0  0.43822356757E+02 -0.24416692483E+03  0.76851771889E+03  0.80757628765E+03  0.47000000000E+01 0. -1.
         -5    1    3    3    0  501 -0.51229773017E+02 -0.18453930761E+03  0.85949427715E+03  0.88058602541E+03  0.47000000000E+01 0. -1.
          5    1    4    4  502    0 -0.22608864332E+02  0.21921709085E+03  0.10867048394E+01  0.22043267588E+03  0.47000000000E+01 0.  1.
         -5    1    4    4    0  502  0.30016280592E+02  0.20948914159E+03 -0.11319523294E+03  0.24004567962E+03  0.47000000000E+01 0.  1.
<mgrwt>
<rscale>  0 0.15227256E+04</rscale>
<asrwt>0</asrwt>
<pdfrwt beam="1">  1       21 0.28188800E+00 0.15227256E+04</pdfrwt>
<pdfrwt beam="2">  1       21 0.48672093E-01 0.15227256E+04</pdfrwt>
<totfact> 0.99416438E+01</totfact>
</mgrwt>
</event>
<event>
 8    1  0.9974463E-006  0.2737778E+03  0.7546771E-02  0.1099137E+00
         21   -1    0    0  504  503  0.00000000000E+00  0.00000000000E+00  0.14418352049E+02  0.14418352049E+02  0.00000000000E+00 0. -1.
         21   -1    0    0  503  504 -0.00000000000E+00 -0.00000000000E+00 -0.12996331676E+04  0.12996331676E+04  0.00000000000E+00 0. -1.
         25    2    1    2    0    0 -0.50584447313E+02  0.23322427006E+02 -0.65864696556E+03  0.67271348212E+03  0.12499952750E+03 0.  0.
         25    2    1    2    0    0  0.50584447313E+02 -0.23322427006E+02 -0.62656784997E+03  0.64133803751E+03  0.12499794329E+03 0.  0.
          5    1    3    3  501    0 -0.43236267934E+02 -0.94308987361E+01 -0.69082039306E+02  0.82175025832E+02  0.47000000000E+01 0.  1.
         -5    1    3    3    0  501 -0.73481793788E+01  0.32753325743E+02 -0.58956492625E+03  0.59053845629E+03  0.47000000000E+01 0.  1.
          5    1    4    4  502    0  0.76548300202E+02  0.23145370878E+02 -0.44154497156E+03  0.44875316418E+03  0.47000000000E+01 0. -1.
         -5    1    4    4    0  502 -0.25963852889E+02 -0.46467797885E+02 -0.18502287841E+03  0.19258487332E+03  0.47000000000E+01 0. -1.
<mgrwt>
<rscale>  0 0.27377778E+03</rscale>
<asrwt>0</asrwt>
<pdfrwt beam="1">  1       21 0.22182087E-02 0.27377778E+03</pdfrwt>
<pdfrwt beam="2">  1       21 0.19994350E+00 0.27377778E+03</pdfrwt>
<totfact> 0.13438264E+05</totfact>
</mgrwt>
</event>
<event>
 8    1  0.9974463E-006  0.2974720E+03  0.7546771E-02  0.1086511E+00
         21   -1    0    0  504  503  0.00000000000E+00  0.00000000000E+00  0.54715200466E+03  0.54715200466E+03  0.00000000000E+00 0. -1.
         21   -1    0    0  503  504 -0.00000000000E+00 -0.00000000000E+00 -0.40431901616E+02  0.40431901616E+02  0.00000000000E+00 0. -1.
         25    2    1    2    0    0  0.35729845530E+02 -0.40842753450E+02  0.13562507557E+03  0.19225990075E+03  0.12499982377E+03 0.  0.
         25    2    1    2    0    0 -0.35729845530E+02  0.40842753450E+02  0.37109502747E+03  0.39532400552E+03  0.12499919022E+03 0.  0.
          5    1    3    3  501    0  0.16087208861E+02 -0.55784549057E+02  0.41384426187E+01  0.58394613705E+02  0.47000000000E+01 0. -1.
         -5    1    3    3    0  501  0.19642636668E+02  0.14941795606E+02  0.13148663295E+03  0.13386528705E+03  0.47000000000E+01 0. -1.
          5    1    4    4  502    0 -0.14242788972E+02 -0.45077357611E+02  0.13564138158E+03  0.14372021293E+03  0.47000000000E+01 0.  1.
         -5    1    4    4    0  502 -0.21487056558E+02  0.85920111061E+02  0.23545364589E+03  0.25160379260E+03  0.47000000000E+01 0.  1.
<mgrwt>
<rscale>  0 0.29747199E+03</rscale>
<asrwt>0</asrwt>
<pdfrwt beam="1">  1       21 0.84177226E-01 0.29747199E+03</pdfrwt>
<pdfrwt beam="2">  1       21 0.62202929E-02 0.29747199E+03</pdfrwt>
<totfact> 0.22052097E+05</totfact>
</mgrwt>
</event>
<event>
 8    1  0.9974463E-006  0.8144695E+03  0.7546771E-02  0.9539306E-01
         21   -1    0    0  504  503  0.00000000000E+00  0.00000000000E+00  0.13792327741E+03  0.13792327741E+03  0.00000000000E+00 0. -1.
         21   -1    0    0  503  504 -0.00000000000E+00 -0.00000000000E+00 -0.12024085329E+04  0.12024085329E+04  0.00000000000E+00 0. -1.
         25    2    1    2    0    0  0.21782334077E+03  0.14238889427E+03 -0.59582211392E+02  0.29478098982E+03  0.12499674814E+03 0.  0.
         25    2    1    2    0    0 -0.21782334077E+03 -0.14238889427E+03 -0.10049030441E+04  0.10455508205E+04  0.12499914085E+03 0.  0.
          5    1    3    3  501    0  0.16853015103E+03  0.11885217500E+03  0.96092890617E+01  0.20650104055E+03  0.47000000000E+01 0.  1.
         -5    1    3    3    0  501  0.49293189740E+02  0.23536719271E+02 -0.69191500454E+02  0.88279949274E+02  0.47000000000E+01 0.  1.
          5    1    4    4  502    0 -0.20663951702E+03 -0.95684527028E+02 -0.92115055697E+03  0.94889191024E+03  0.47000000000E+01 0. -1.
         -5    1    4    4    0  502 -0.11183823751E+02 -0.46704367245E+02 -0.83752487148E+02  0.96658910282E+02  0.47000000000E+01 0. -1.
<mgrwt>
<rscale>  0 0.81446946E+03</rscale>
<asrwt>0</asrwt>
<pdfrwt beam="1">  1       21 0.21218965E-01 0.81446946E+03</pdfrwt>
<pdfrwt beam="2">  1       21 0.18498593E+00 0.81446946E+03</pdfrwt>
<totfact> 0.26810329E+03</totfact>
</mgrwt>
</event>
<event>
 8    1  0.9974463E-006  0.2788563E+03  0.7546771E-02  0.1096315E+00
         21   -1    0    0  504  503  0.00000000000E+00  0.00000000000E+00  0.26735961632E+03  0.26735961632E+03  0.00000000000E+00 0.  1.
         21   -1    0    0  503  504 -0.00000000000E+00 -0.00000000000E+00 -0.72711819468E+02  0.72711819468E+02  0.00000000000E+00 0.  1.
         25    2    1    2    0    0  0.36886018600E+02 -0.26501075635E+00  0.36891594575E+02  0.13544632357E+03  0.12499627283E+03 0.  0.
         25    2    1    2    0    0 -0.36886018600E+02  0.26501075635E+00  0.15775620227E+03  0.20462511221E+03  0.12499507427E+03 0.  0.
          5    1    3    3  501    0  0.25646498062E+02 -0.50480435306E+02 -0.18444939081E+02  0.59735441651E+02  0.47000000000E+01 0.  1.
         -5    1    3    3    0  501  0.11239520538E+02  0.50215424550E+02  0.55336533656E+02  0.75710881924E+02  0.47000000000E+01 0.  1.
          5    1    4    4  502    0 -0.25542052655E+02  0.32570511807E+02 -0.14781102352E+01  0.41683443992E+02  0.47000000000E+01 0.  1.
         -5    1    4    4    0  502 -0.11343965945E+02 -0.32305501051E+02  0.15923431251E+03  0.16294166822E+03  0.47000000000E+01 0.  1.
<mgrwt>
<rscale>  0 0.27885627E+03</rscale>
<asrwt>0</asrwt>
<pdfrwt beam="1">  1       21 0.41132248E-01 0.27885627E+03</pdfrwt>
<pdfrwt beam="2">  1       21 0.11186434E-01 0.27885627E+03</pdfrwt>
<totfact> 0.37153246E+05</totfact>
</mgrwt>
</event>
<event>
 8    1  0.9974463E-006  0.3416832E+03  0.7546771E-02  0.1066081E+00
         21   -1    0    0  504  503  0.00000000000E+00  0.00000000000E+00  0.55403270631E+02  0.55403270631E+02  0.00000000000E+00 0.  1.
         21   -1    0    0  503  504 -0.00000000000E+00 -0.00000000000E+00 -0.52680750507E+03  0.52680750507E+03  0.00000000000E+00 0.  1.
         25    2    1    2    0    0 -0.40781335763E+02  0.24546291475E+01 -0.49900972473E+02  0.14066272926E+03  0.12500701499E+03 0.  0.
         25    2    1    2    0    0  0.40781335763E+02 -0.24546291475E+01 -0.42150326196E+03  0.44154804644E+03  0.12502213772E+03 0.  0.
          5    1    3    3  501    0  0.23686065046E+02  0.39705265310E+02  0.67872324851E+01  0.46964819764E+02  0.47000000000E+01 0.  1.
         -5    1    3    3    0  501 -0.64467400809E+02 -0.37250636162E+02 -0.56688204958E+02  0.93697909491E+02  0.47000000000E+01 0.  1.
          5    1    4    4  502    0  0.27650753613E+01 -0.29123920678E+02 -0.16599550255E+02  0.33962971986E+02  0.47000000000E+01 0. -1.
         -5    1    4    4    0  502  0.38016260402E+02  0.26669291531E+02 -0.40490371171E+03  0.40758507446E+03  0.47000000000E+01 0. -1.
<mgrwt>
<rscale>  0 0.34168324E+03</rscale>
<asrwt>0</asrwt>
<pdfrwt beam="1">  1       21 0.85235800E-02 0.34168324E+03</pdfrwt>
<pdfrwt beam="2">  1       21 0.81047309E-01 0.34168324E+03</pdfrwt>
<totfact> 0.13722484E+05</totfact>
</mgrwt>
</event>
<event>
 8    1  0.9974463E-006  0.4921899E+03  0.7546771E-02  0.1015838E+00
         21   -1    0    0  504  503  0.00000000000E+00  0.00000000000E+00  0.73261159920E+02  0.73261159920E+02  0.00000000000E+00 0. -1.
         21   -1    0    0  503  504 -0.00000000000E+00 -0.00000000000E+00 -0.82666885520E+03  0.82666885520E+03  0.00000000000E+00 0. -1.
         25    2    1    2    0    0  0.12029130865E+03  0.16343717795E+03 -0.48879695549E+03  0.54380978294E+03  0.12499962498E+03 0.  0.
         25    2    1    2    0    0 -0.12029130865E+03 -0.16343717795E+03 -0.26461073978E+03  0.35612023218E+03  0.12498426336E+03 0.  0.
          5    1    3    3  501    0  0.32171923847E+02  0.11121580680E+03 -0.36560616124E+03  0.38352828253E+03  0.47000000000E+01 0.  1.
         -5    1    3    3    0  501  0.88119384805E+02  0.52221371146E+02 -0.12319079426E+03  0.16028150041E+03  0.47000000000E+01 0.  1.
          5    1    4    4  502    0 -0.97240651710E+02 -0.86684949335E+02 -0.75413066509E+02  0.15059629938E+03  0.47000000000E+01 0.  1.
         -5    1    4    4    0  502 -0.23050656942E+02 -0.76752228612E+02 -0.18919767327E+03  0.20552393280E+03  0.47000000000E+01 0.  1.
<mgrwt>
<rscale>  0 0.49218988E+03</rscale>
<asrwt>0</asrwt>
<pdfrwt beam="1">  1       21 0.11270948E-01 0.49218988E+03</pdfrwt>
<pdfrwt beam="2">  1       21 0.12717982E+00 0.49218988E+03</pdfrwt>
<totfact> 0.26776122E+04</totfact>
</mgrwt>
</event>
