<event>
 8    1  0.9529436E-006  0.3098448E+03  0.7546771E-02  0.1080420E+00
         21   -1    0    0  504  503  0.00000000000E+00  0.00000000000E+00  0.64687387941E+03  0.64687387941E+03  0.00000000000E+00 0. -1.
         21   -1    0    0  503  504 -0.00000000000E+00 -0.00000000000E+00 -0.37102970285E+02  0.37102970285E+02  0.00000000000E+00 0. -1.
         25    2    1    2    0    0  0.60952646821E+02 -0.61567296732E+02  0.23975743117E+03  0.28392598806E+03  0.12499833484E+03 0.  0.
         25    2    1    2    0    0 -0.60952646821E+02  0.61567296732E+02  0.37001347795E+03  0.40005086163E+03  0.12499984338E+03 0.  0.
          5    1    3    3  501    0  0.29285869741E+02 -0.94456911045E+02  0.11935787864E+03  0.15507470266E+03  0.47000000000E+01 0. -1.
         -5    1    3    3    0  501  0.31666777081E+02  0.32889614314E+02  0.12039955253E+03  0.12885128540E+03  0.47000000000E+01 0. -1.
          5    1    4    4  502    0  0.17033016426E+01  0.82110988173E+02  0.24789959821E+03  0.26119229776E+03  0.47000000000E+01 0.  1.
         -5    1    4    4    0  502 -0.62655948464E+02 -0.20543691441E+02  0.12211387974E+03  0.13885856387E+03  0.47000000000E+01 0.  1.
<mgrwt>
<rscale>  0 0.30984475E+03</rscale>
<asrwt>0</asrwt>
<pdfrwt beam="1">  1       21 0.99519050E-01 0.30984475E+03</pdfrwt>
<pdfrwt beam="2">  1       21 0.57081498E-02 0.30984475E+03</pdfrwt>
<totfact> 0.17200050E+05</totfact>
</mgrwt>
</event>
<event>
 8    1  0.9529436E-006  0.3304331E+03  0.7546771E-02  0.1070945E+00
         21   -1    0    0  504  503  0.00000000000E+00  0.00000000000E+00  0.29862487899E+02  0.29862487899E+02  0.00000000000E+00 0.  1.
         21   -1    0    0  503  504 -0.00000000000E+00 -0.00000000000E+00 -0.91407353210E+03  0.91407353210E+03  0.00000000000E+00 0.  1.
         25    2    1    2    0    0 -0.10097770795E+03  0.17713129695E+02 -0.53949748338E+03  0.56319956249E+03  0.12500384054E+03 0.  0.
         25    2    1    2    0    0  0.10097770795E+03 -0.17713129695E+02 -0.34471356081E+03  0.38073645750E+03  0.12499023400E+03 0.  0.
          5    1    3    3  501    0 -0.91112014601E+02  0.75951361554E+01 -0.16735067665E+03  0.19075488008E+03  0.47000000000E+01 0.  1.
         -5    1    3    3    0  501 -0.98656933491E+01  0.10117993540E+02 -0.37214680673E+03  0.37244468241E+03  0.47000000000E+01 0.  1.
          5    1    4    4  502    0  0.10748352472E+03 -0.52323961592E+02 -0.21281939965E+03  0.24414072153E+03  0.47000000000E+01 0.  1.
         -5    1    4    4    0  502 -0.65058167680E+01  0.34610831897E+02 -0.13189416117E+03  0.13659573597E+03  0.47000000000E+01 0.  1.
<mgrwt>
<rscale>  0 0.33043311E+03</rscale>
<asrwt>0</asrwt>
<pdfrwt beam="1">  1       21 0.45942286E-02 0.33043311E+03</pdfrwt>
<pdfrwt beam="2">  1       21 0.14062671E+00 0.33043311E+03</pdfrwt>
<totfact> 0.10427688E+05</totfact>
</mgrwt>
</event>
<event>
 8    1  0.9529436E-006  0.2756238E+03  0.7546771E-02  0.1098103E+00
         21   -1    0    0  504  503  0.00000000000E+00  0.00000000000E+00  0.17642337013E+02  0.17642337013E+02  0.00000000000E+00 0. -1.
         21   -1    0    0  503  504 -0.00000000000E+00 -0.00000000000E+00 -0.10765085338E+04  0.10765085338E+04  0.00000000000E+00 0. -1.
         25    2    1    2    0    0  0.21440671861E+02 -0.32032849904E+02 -0.35717063346E+03  0.38036883816E+03  0.12499514293E+03 0.  0.
         25    2    1    2    0    0 -0.21440671861E+02  0.32032849904E+02 -0.70169556336E+03  0.71378203269E+03  0.12498928219E+03 0.  0.
          5    1    3    3  501    0 -0.52031004700E+02 -0.21172213642E+02 -0.15109301942E+03  0.16126586309E+03  0.47000000000E+01 0. -1.
         -5    1    3    3    0  501  0.73471676561E+02 -0.10860636262E+02 -0.20607761404E+03  0.21910297507E+03  0.47000000000E+01 0. -1.
          5    1    4    4  502    0  0.56994494958E+01 -0.11560860992E+02 -0.59620170300E+03  0.59635953743E+03  0.47000000000E+01 0.  1.
         -5    1    4    4    0  502 -0.27140121357E+02  0.43593710896E+02 -0.10549386037E+03  0.11742249526E+03  0.47000000000E+01 0.  1.
<mgrwt>
<rscale>  0 0.27562385E+03</rscale>
<asrwt>0</asrwt>
<pdfrwt beam="1">  1       21 0.27142055E-02 0.27562385E+03</pdfrwt>
<pdfrwt beam="2">  1       21 0.16561671E+00 0.27562385E+03</pdfrwt>
<totfact> 0.16547033E+05</totfact>
</mgrwt>
</event>
<event>
 8    1  0.9529436E-006  0.2744001E+03  0.7546771E-02  0.1098787E+00
         21   -1    0    0  504  503  0.00000000000E+00  0.00000000000E+00  0.95804146409E+03  0.95804146409E+03  0.00000000000E+00 0.  1.
         21   -1    0    0  503  504 -0.00000000000E+00 -0.00000000000E+00 -0.19648268128E+02  0.19648268128E+02  0.00000000000E+00 0.  1.
         25    2    1    2    0    0  0.15359794170E+02 -0.31471168184E+02  0.62745952454E+03  0.64074400544E+03  0.12498427048E+03 0.  0.
         25    2    1    2    0    0 -0.15359794170E+02  0.31471168184E+02  0.31093367142E+03  0.33694572677E+03  0.12500526816E+03 0.  0.
          5    1    3    3  501    0  0.99378392561E+01 -0.79090878412E+02  0.33787523604E+03  0.34718279454E+03  0.47000000000E+01 0.  1.
         -5    1    3    3    0  501  0.54219549142E+01  0.47619710228E+02  0.28958428850E+03  0.29356121090E+03  0.47000000000E+01 0.  1.
          5    1    4    4  502    0 -0.62930292433E+02  0.47857285654E+02  0.18382099457E+03  0.20015691229E+03  0.47000000000E+01 0. -1.
         -5    1    4    4    0  502  0.47570498262E+02 -0.16386117470E+02  0.12711267685E+03  0.13678881448E+03  0.47000000000E+01 0. -1.
<mgrwt>
<rscale>  0 0.27440011E+03</rscale>
<asrwt>0</asrwt>
<pdfrwt beam="1">  1       21 0.14739096E+00 0.27440011E+03</pdfrwt>
<pdfrwt beam="2">  1       21 0.30228112E-02 0.27440011E+03</pdfrwt>
<totfact> 0.18979997E+05</totfact>
</mgrwt>
</event>
<event>
 8    1  0.9529436E-006  0.2633902E+03  0.7546771E-02  0.1105123E+00
         21   -1    0    0  504  503  0.00000000000E+00  0.00000000000E+00  0.55025340685E+02  0.55025340685E+02  0.00000000000E+00 0. -1.
         21   -1    0    0  503  504 -0.00000000000E+00 -0.00000000000E+00 -0.31519287142E+03  0.31519287142E+03  0.00000000000E+00 0. -1.
         25    2    1    2    0    0 -0.30165758378E+02 -0.24349445019E+02 -0.10943580086E+03  0.17059666619E+03  0.12499663818E+03 0.  0.
         25    2    1    2    0    0  0.30165758378E+02  0.24349445019E+02 -0.15073172987E+03  0.19962154591E+03  0.12500335495E+03 0.  0.
          5    1    3    3  501    0 -0.44801741573E+02  0.29318572802E+01 -0.12693600109E+03  0.13472427475E+03  0.47000000000E+01 0. -1.
         -5    1    3    3    0  501  0.14635983195E+02 -0.27281302300E+02  0.17500200235E+02  0.35872391438E+02  0.47000000000E+01 0. -1.
          5    1    4    4  502    0  0.39494206261E+02  0.33874386766E+02 -0.16878889731E+03  0.17668912887E+03  0.47000000000E+01 0.  1.
         -5    1    4    4    0  502 -0.93284478831E+01 -0.95249417466E+01  0.18057167436E+02  0.22932417034E+02  0.47000000000E+01 0.  1.
<mgrwt>
<rscale>  0 0.26339017E+03</rscale>
<asrwt>0</asrwt>
<pdfrwt beam="1">  1       21 0.84654371E-02 0.26339017E+03</pdfrwt>
<pdfrwt beam="2">  1       21 0.48491211E-01 0.26339017E+03</pdfrwt>
<totfact> 0.43498910E+05</totfact>
</mgrwt>
</event>
<event>
 8    1  0.9529436E-006  0.2658325E+03  0.7546771E-02  0.1103689E+00
         21   -1    0    0  504  503  0.00000000000E+00  0.00000000000E+00  0.73421460268E+01  0.73421460268E+01  0.00000000000E+00 0.  1.
         21   -1    0    0  503  504 -0.00000000000E+00 -0.00000000000E+00 -0.24062076070E+04  0.24062076070E+04  0.00000000000E+00 0.  1.
         25    2    1    2    0    0  0.19148798958E+02  0.33965585783E+01 -0.82914339015E+03  0.83873887582E+03  0.12500370903E+03 0.  0.
         25    2    1    2    0    0 -0.19148798958E+02 -0.33965585783E+01 -0.15697220708E+04  0.15748108772E+04  0.12499482480E+03 0.  0.
          5    1    3    3  501    0 -0.18866594148E+02 -0.40026754572E+02 -0.13415809834E+03  0.14134558645E+03  0.47000000000E+01 0. -1.
         -5    1    3    3    0  501  0.38015393106E+02  0.43423313150E+02 -0.69498529181E+03  0.69739328938E+03  0.47000000000E+01 0. -1.
          5    1    4    4  502    0  0.52815448718E+02  0.75827711316E+00 -0.77520211570E+03  0.77701380734E+03  0.47000000000E+01 0. -1.
         -5    1    4    4    0  502 -0.71964247675E+02 -0.41548356915E+01 -0.79451995510E+03  0.79779706985E+03  0.47000000000E+01 0. -1.
<mgrwt>
<rscale>  0 0.26583249E+03</rscale>
<asrwt>0</asrwt>
<pdfrwt beam="1">  1       21 0.11295605E-02 0.26583249E+03</pdfrwt>
<pdfrwt beam="2">  1       21 0.37018593E+00 0.26583249E+03</pdfrwt>
<totfact> 0.38282633E+04</totfact>
</mgrwt>
</event>
<event>
 8    1  0.9529436E-006  0.2990390E+03  0.7546771E-02  0.1085722E+00
         21   -1    0    0  504  503  0.00000000000E+00  0.00000000000E+00  0.37497349189E+03  0.37497349189E+03  0.00000000000E+00 0.  1.
         21   -1    0    0  503  504 -0.00000000000E+00 -0.00000000000E+00 -0.59620426156E+02  0.59620426156E+02  0.00000000000E+00 0.  1.
         25    2    1    2    0    0  0.36332220498E+02 -0.59394244163E+02  0.22074889030E+03  0.26306373059E+03  0.12499898917E+03 0.  0.
         25    2    1    2    0    0 -0.36332220498E+02  0.59394244163E+02  0.94604175430E+02  0.17153018746E+03  0.12499979486E+03 0.  0.
          5    1    3    3  501    0 -0.45441182086E+02 -0.81588975146E+01  0.75307676059E+02  0.88457926222E+02  0.47000000000E+01 0. -1.
         -5    1    3    3    0  501  0.81773402584E+02 -0.51235346649E+02  0.14544121425E+03  0.17460580436E+03  0.47000000000E+01 0. -1.
          5    1    4    4  502    0 -0.31806596479E+02  0.45840939901E+01 -0.24218408917E+02  0.40512897055E+02  0.47000000000E+01 0. -1.
         -5    1    4    4    0  502 -0.45256240184E+01  0.54810150173E+02  0.11882258435E+03  0.13101729041E+03  0.47000000000E+01 0. -1.
<mgrwt>
<rscale>  0 0.29903899E+03</rscale>
<asrwt>0</asrwt>
<pdfrwt beam="1">  1       21 0.57688228E-01 0.29903899E+03</pdfrwt>
<pdfrwt beam="2">  1       21 0.91723735E-02 0.29903899E+03</pdfrwt>
<totfact> 0.25925875E+05</totfact>
</mgrwt>
</event>
<event>
 8    1  0.9529436E-006  0.4235704E+03  0.7546771E-02  0.1035910E+00
         21   -1    0    0  504  503  0.00000000000E+00  0.00000000000E+00  0.12943816002E+04  0.12943816002E+04  0.00000000000E+00 0. -1.
         21   -1    0    0  503  504 -0.00000000000E+00 -0.00000000000E+00 -0.34652052637E+02  0.34652052637E+02  0.00000000000E+00 0. -1.
         25    2    1    2    0    0 -0.30650371512E+02 -0.16802041695E+03  0.60586999055E+03  0.64177330419E+03  0.12499689091E+03 0.  0.
         25    2    1    2    0    0  0.30650371512E+02  0.16802041695E+03  0.65385955697E+03  0.68726034861E+03  0.12499664290E+03 0.  0.
          5    1    3    3  501    0  0.26856872908E+02 -0.14488843924E+03  0.46460041788E+03  0.48743162571E+03  0.47000000000E+01 0. -1.
         -5    1    3    3    0  501 -0.57507244421E+02 -0.23131977706E+02  0.14126957267E+03  0.15434167848E+03  0.47000000000E+01 0. -1.
          5    1    4    4  502    0  0.48367057074E+02  0.13361801273E+03  0.30825992539E+03  0.33946931693E+03  0.47000000000E+01 0.  1.
         -5    1    4    4    0  502 -0.17716685561E+02  0.34402404215E+02  0.34559963159E+03  0.34779103168E+03  0.47000000000E+01 0.  1.
<mgrwt>
<rscale>  0 0.42357044E+03</rscale>
<asrwt>0</asrwt>
<pdfrwt beam="1">  1       21 0.19913559E+00 0.42357044E+03</pdfrwt>
<pdfrwt beam="2">  1       21 0.53310860E-02 0.42357044E+03</pdfrwt>
<totfact> 0.29375331E+04</totfact>
</mgrwt>
</event>
<event>
 8    1  0.9529436E-006  0.3141103E+03  0.7546771E-02  0.1078392E+00
         21   -1    0    0  504  503  0.00000000000E+00  0.00000000000E+00  0.16097497723E+03  0.16097497723E+03  0.00000000000E+00 0. -1.
         21   -1    0    0  503  504 -0.00000000000E+00 -0.00000000000E+00 -0.15323080842E+03  0.15323080842E+03  0.00000000000E+00 0. -1.
         25    2    1    2    0    0  0.12502908105E+02  0.87556607670E+02 -0.31063652269E+02  0.15624218393E+03  0.12499674911E+03 0.  0.
         25    2    1    2    0    0 -0.12502908105E+02 -0.87556607670E+02  0.38807821080E+02  0.15796360172E+03  0.12499588087E+03 0.  0.
          5    1    3    3  501    0 -0.37502365031E+02  0.79937806148E+02 -0.50527274469E+02  0.10184093332E+03  0.47000000000E+01 0. -1.
         -5    1    3    3    0  501  0.50005273136E+02  0.76188015222E+01  0.19463622200E+02  0.54401250603E+02  0.47000000000E+01 0. -1.
          5    1    4    4  502    0  0.50493245872E+02 -0.86743713486E+01  0.64529700773E+01  0.51851166041E+02  0.47000000000E+01 0. -1.
         -5    1    4    4    0  502 -0.62996153977E+02 -0.78882236322E+02  0.32354851002E+02  0.10611243568E+03  0.47000000000E+01 0. -1.
<mgrwt>
<rscale>  0 0.31411034E+03</rscale>
<asrwt>0</asrwt>
<pdfrwt beam="1">  1       21 0.24765381E-01 0.31411034E+03</pdfrwt>
<pdfrwt beam="2">  1       21 0.23573971E-01 0.31411034E+03</pdfrwt>
<totfact> 0.25371864E+05</totfact>
</mgrwt>
</event>
<event>
 8    1  0.9529436E-006  0.3403727E+03  0.7546771E-02  0.1066637E+00
         21   -1    0    0  504  503  0.00000000000E+00  0.00000000000E+00  0.58117637775E+03  0.58117637775E+03  0.00000000000E+00 0. -1.
         21   -1    0    0  503  504 -0.00000000000E+00 -0.00000000000E+00 -0.49835809012E+02  0.49835809012E+02  0.00000000000E+00 0. -1.
         25    2    1    2    0    0 -0.98414610798E+02 -0.56570489118E+02  0.22619239306E+03  0.28226230609E+03  0.12499341943E+03 0.  0.
         25    2    1    2    0    0  0.98414610798E+02  0.56570489118E+02  0.30514817568E+03  0.34874988068E+03  0.12500165717E+03 0.  0.
          5    1    3    3  501    0  0.21364288363E+02  0.79189437768E+01  0.76394511840E+02  0.79858336616E+02  0.47000000000E+01 0. -1.
         -5    1    3    3    0  501 -0.11977889916E+03 -0.64489432894E+02  0.14979788122E+03  0.20240396947E+03  0.47000000000E+01 0. -1.
          5    1    4    4  502    0  0.60323982426E+02  0.18783095668E+02  0.33214591395E+02  0.71533814522E+02  0.47000000000E+01 0.  1.
         -5    1    4    4    0  502  0.38090628373E+02  0.37787393450E+02  0.27193358428E+03  0.27721606615E+03  0.47000000000E+01 0.  1.
<mgrwt>
<rscale>  0 0.34037271E+03</rscale>
<asrwt>0</asrwt>
<pdfrwt beam="1">  1       21 0.89411745E-01 0.34037271E+03</pdfrwt>
<pdfrwt beam="2">  1       21 0.76670480E-02 0.34037271E+03</pdfrwt>
<totfact> 0.13168643E+05</totfact>
</mgrwt>
</event>
<event>
 8    1  0.9529436E-006  0.3474557E+03  0.7546771E-02  0.1063664E+00
         21   -1    0    0  504  503  0.00000000000E+00  0.00000000000E+00  0.11479846974E+03  0.11479846974E+03  0.00000000000E+00 0.  1.
         21   -1    0    0  503  504 -0.00000000000E+00 -0.00000000000E+00 -0.26290734788E+03  0.26290734788E+03  0.00000000000E+00 0.  1.
         25    2    1    2    0    0  0.94267479391E+02 -0.45520021219E+02 -0.88139064887E+01  0.16328443949E+03  0.12500277289E+03 0.  0.
         25    2    1    2    0    0 -0.94267479391E+02  0.45520021219E+02 -0.13929497166E+03  0.21442137813E+03  0.12496002668E+03 0.  0.
          5    1    3    3  501    0  0.52085794255E+02 -0.78102774505E+02  0.28303162710E+02  0.98163803756E+02  0.47000000000E+01 0.  1.
         -5    1    3    3    0  501  0.42181685137E+02  0.32582753286E+02 -0.37117069199E+02  0.65120635735E+02  0.47000000000E+01 0.  1.
          5    1    4    4  502    0 -0.11179468353E+03  0.64698695314E+02 -0.86896692015E+02  0.15574690213E+03  0.47000000000E+01 0. -1.
         -5    1    4    4    0  502  0.17527204134E+02 -0.19178674095E+02 -0.52398279642E+02  0.58674476003E+02  0.47000000000E+01 0. -1.
<mgrwt>
<rscale>  0 0.34745567E+03</rscale>
<asrwt>0</asrwt>
<pdfrwt beam="1">  1       21 0.17661303E-01 0.34745567E+03</pdfrwt>
<pdfrwt beam="2">  1       21 0.40447283E-01 0.34745567E+03</pdfrwt>
<totfact> 0.16432052E+05</totfact>
</mgrwt>
</event>
<event>
 8    1  0.9529436E-006  0.2969244E+03  0.7546771E-02  0.1086788E+00
         21   -1    0    0  504  503  0.00000000000E+00  0.00000000000E+00  0.91245845594E+03  0.91245845594E+03  0.00000000000E+00 0.  1.
         21   -1    0    0  503  504 -0.00000000000E+00 -0.00000000000E+00 -0.24155641384E+02  0.24155641384E+02  0.00000000000E+00 0.  1.
         25    2    1    2    0    0  0.44314093436E+02  0.64216544601E+02  0.38705953526E+03  0.41416350429E+03  0.12501528297E+03 0.  0.
         25    2    1    2    0    0 -0.44314093436E+02 -0.64216544601E+02  0.50124327929E+03  0.52245059303E+03  0.12498917409E+03 0.  0.
          5    1    3    3  501    0 -0.15992393660E+02 -0.30604017185E+02  0.95912677206E+02  0.10204750938E+03  0.47000000000E+01 0. -1.
         -5    1    3    3    0  501  0.60306487097E+02  0.94820561786E+02  0.29114685805E+03  0.31211599491E+03  0.47000000000E+01 0. -1.
          5    1    4    4  502    0 -0.45246741559E+02  0.28425282804E+02  0.21283480222E+03  0.21949033546E+03  0.47000000000E+01 0.  1.
         -5    1    4    4    0  502  0.93264812292E+00 -0.92641827405E+02  0.28840847708E+03  0.30296025757E+03  0.47000000000E+01 0.  1.
<mgrwt>
<rscale>  0 0.29692436E+03</rscale>
<asrwt>0</asrwt>
<pdfrwt beam="1">  1       21 0.14037820E+00 0.29692436E+03</pdfrwt>
<pdfrwt beam="2">  1       21 0.37162532E-02 0.29692436E+03</pdfrwt>
<totfact> 0.15163665E+05</totfact>
</mgrwt>
</event>
<event>
 8    1  0.9529436E-006  0.4904343E+03  0.7546771E-02  0.1016306E+00
         21   -1    0    0  504  503  0.00000000000E+00  0.00000000000E+00  0.13234087475E+03  0.13234087475E+03  0.00000000000E+00 0.  1.
         21   -1    0    0  503  504 -0.00000000000E+00 -0.00000000000E+00 -0.45436789412E+03  0.45436789412E+03  0.00000000000E+00 0.  1.
         25    2    1    2    0    0  0.14789512504E+03  0.14753592772E+03 -0.19624691402E+03  0.31269258634E+03  0.12499593717E+03 0.  0.
         25    2    1    2    0    0 -0.14789512504E+03 -0.14753592772E+03 -0.12578010535E+03  0.27401618254E+03  0.12499766162E+03 0.  0.
          5    1    3    3  501    0  0.12166334369E+03  0.37683218463E+02 -0.12808715917E+03  0.18069422928E+03  0.47000000000E+01 0.  1.
         -5    1    3    3    0  501  0.26231781350E+02  0.10985270926E+03 -0.68159754845E+02  0.13199835705E+03  0.47000000000E+01 0.  1.
          5    1    4    4  502    0 -0.26963155936E+02 -0.30347484544E+02 -0.94112960767E+02  0.10260273379E+03  0.47000000000E+01 0.  1.
         -5    1    4    4    0  502 -0.12093196910E+03 -0.11718844318E+03 -0.31667144582E+02  0.17141344875E+03  0.47000000000E+01 0.  1.
<mgrwt>
<rscale>  0 0.49043428E+03</rscale>
<asrwt>0</asrwt>
<pdfrwt beam="1">  1       21 0.20360134E-01 0.49043428E+03</pdfrwt>
<pdfrwt beam="2">  1       21 0.69902753E-01 0.49043428E+03</pdfrwt>
<totfact> 0.37631093E+04</totfact>
</mgrwt>
</event>
<event>
 8    1  0.9529436E-006  0.3104262E+03  0.7546771E-02  0.1080142E+00
         21   -1    0    0  504  503  0.00000000000E+00  0.00000000000E+00  0.16778996291E+04  0.16778996291E+04  0.00000000000E+00 0.  1.
         21   -1    0    0  503  504 -0.00000000000E+00 -0.00000000000E+00 -0.14357894941E+02  0.14357894941E+02  0.00000000000E+00 0.  1.
         25    2    1    2    0    0 -0.31737322646E+02  0.55262422025E+02  0.11937456635E+04  0.12019623400E+04  0.12499425804E+03 0.  0.
         25    2    1    2    0    0  0.31737322646E+02 -0.55262422025E+02  0.46979607065E+03  0.49029518411E+03  0.12497930478E+03 0.  0.
          5    1    3    3  501    0 -0.63774626357E+02 -0.12292583840E+02  0.59243267910E+03  0.59600073813E+03  0.47000000000E+01 0. -1.
         -5    1    3    3    0  501  0.32037303711E+02  0.67555005864E+02  0.60131298443E+03  0.60596160183E+03  0.47000000000E+01 0. -1.
          5    1    4    4  502    0 -0.34914081456E+01  0.64496563069E+00 -0.68688777037E+01  0.90486127341E+01  0.47000000000E+01 0.  1.
         -5    1    4    4    0  502  0.35228730791E+02 -0.55907387656E+02  0.47666494836E+03  0.48124657138E+03  0.47000000000E+01 0.  1.
<mgrwt>
<rscale>  0 0.31042620E+03</rscale>
<asrwt>0</asrwt>
<pdfrwt beam="1">  1       21 0.25813825E+00 0.31042620E+03</pdfrwt>
<pdfrwt beam="2">  1       21 0.22089082E-02 0.31042620E+03</pdfrwt>
<totfact> 0.57988762E+04</totfact>
</mgrwt>
</event>
<event>
 8    1  0.9529436E-006  0.3354873E+03  0.7546771E-02  0.1068734E+00
         21   -1    0    0  504  503  0.00000000000E+00  0.00000000000E+00  0.54318956755E+02  0.54318956755E+02  0.00000000000E+00 0.  1.
         21   -1    0    0  503  504 -0.00000000000E+00 -0.00000000000E+00 -0.51801304959E+03  0.51801304959E+03  0.00000000000E+00 0.  1.
         25    2    1    2    0    0  0.82482445186E+01 -0.10557907806E+03 -0.29327511998E+03  0.33593085910E+03  0.12499708333E+03 0.  0.
         25    2    1    2    0    0 -0.82482445186E+01  0.10557907806E+03 -0.17041897286E+03  0.23640114724E+03  0.12501160285E+03 0.  0.
          5    1    3    3  501    0  0.45360485932E+02 -0.87974723172E+02 -0.27188817872E+03  0.28938278686E+03  0.47000000000E+01 0. -1.
         -5    1    3    3    0  501 -0.37112241414E+02 -0.17604354884E+02 -0.21386941258E+02  0.46548072248E+02  0.47000000000E+01 0. -1.
          5    1    4    4  502    0  0.34465414265E+02  0.58765244615E+02 -0.17044146192E+02  0.70383319576E+02  0.47000000000E+01 0.  1.
         -5    1    4    4    0  502 -0.42713658784E+02  0.46813833441E+02 -0.15337482667E+03  0.16601782767E+03  0.47000000000E+01 0.  1.
<mgrwt>
<rscale>  0 0.33548728E+03</rscale>
<asrwt>0</asrwt>
<pdfrwt beam="1">  1       21 0.83567625E-02 0.33548728E+03</pdfrwt>
<pdfrwt beam="2">  1       21 0.79694316E-01 0.33548728E+03</pdfrwt>
<totfact> 0.14791840E+05</totfact>
</mgrwt>
</event>
<event>
 8    1  0.9529436E-006  0.3012003E+03  0.7546771E-02  0.1084642E+00
         21   -1    0    0  504  503  0.00000000000E+00  0.00000000000E+00  0.51312597622E+02  0.51312597622E+02  0.00000000000E+00 0.  1.
         21   -1    0    0  503  504 -0.00000000000E+00 -0.00000000000E+00 -0.44200450093E+03  0.44200450093E+03  0.00000000000E+00 0.  1.
         25    2    1    2    0    0 -0.57571212012E+02  0.46164360477E+02 -0.26105592808E+03  0.29869918829E+03  0.12500165947E+03 0.  0.
         25    2    1    2    0    0  0.57571212012E+02 -0.46164360477E+02 -0.12963597523E+03  0.19461791026E+03  0.12500020916E+03 0.  0.
          5    1    3    3  501    0  0.14048056278E+02  0.29737887955E+02 -0.20087696757E+03  0.20360583480E+03  0.47000000000E+01 0. -1.
         -5    1    3    3    0  501 -0.71619268290E+02  0.16426472522E+02 -0.60178960507E+02  0.95093353488E+02  0.47000000000E+01 0. -1.
          5    1    4    4  502    0  0.44749030101E+02 -0.70608135021E+01  0.11958593461E+02  0.47089582074E+02  0.47000000000E+01 0.  1.
         -5    1    4    4    0  502  0.12822181911E+02 -0.39103546975E+02 -0.14159456869E+03  0.14752832819E+03  0.47000000000E+01 0.  1.
<mgrwt>
<rscale>  0 0.30120026E+03</rscale>
<asrwt>0</asrwt>
<pdfrwt beam="1">  1       21 0.78942458E-02 0.30120026E+03</pdfrwt>
<pdfrwt beam="2">  1       21 0.68000692E-01 0.30120026E+03</pdfrwt>
<totfact> 0.23567477E+05</totfact>
</mgrwt>
</event>
<event>
 8    1  0.9529436E-006  0.2561184E+03  0.7546771E-02  0.1109498E+00
         21   -1    0    0  504  503  0.00000000000E+00  0.00000000000E+00  0.20461748548E+02  0.20461748548E+02  0.00000000000E+00 0. -1.
         21   -1    0    0  503  504 -0.00000000000E+00 -0.00000000000E+00 -0.80145451339E+03  0.80145451339E+03  0.00000000000E+00 0. -1.
         25    2    1    2    0    0  0.98729063000E+01 -0.24118254359E+02 -0.35924508231E+03  0.38126255910E+03  0.12499978133E+03 0.  0.
         25    2    1    2    0    0 -0.98729063000E+01  0.24118254359E+02 -0.42174768253E+03  0.44065370284E+03  0.12500165453E+03 0.  0.
          5    1    3    3  501    0  0.40354459754E+02  0.10653256208E+02 -0.31261764577E+03  0.31542646803E+03  0.47000000000E+01 0.  1.
         -5    1    3    3    0  501 -0.30481553455E+02 -0.34771510566E+02 -0.46627436544E+02  0.65836091065E+02  0.47000000000E+01 0.  1.
          5    1    4    4  502    0  0.52533596028E+02 -0.89104070696E+01 -0.23340567891E+03  0.23945662450E+03  0.47000000000E+01 0.  1.
         -5    1    4    4    0  502 -0.62406502328E+02  0.33028661429E+02 -0.18834200361E+03  0.20119707834E+03  0.47000000000E+01 0.  1.
<mgrwt>
<rscale>  0 0.25611842E+03</rscale>
<asrwt>0</asrwt>
<pdfrwt beam="1">  1       21 0.31479606E-02 0.25611842E+03</pdfrwt>
<pdfrwt beam="2">  1       21 0.12330072E+00 0.25611842E+03</pdfrwt>
<totfact> 0.28272982E+05</totfact>
</mgrwt>
</event>
<event>
 8    1  0.9529436E-006  0.2569109E+03  0.7546771E-02  0.1109014E+00
         21   -1    0    0  504  503  0.00000000000E+00  0.00000000000E+00  0.24043295089E+02  0.24043295089E+02  0.00000000000E+00 0. -1.
         21   -1    0    0  503  504 -0.00000000000E+00 -0.00000000000E+00 -0.68629513141E+03  0.68629513141E+03  0.00000000000E+00 0. -1.
         25    2    1    2    0    0 -0.55799059757E+01 -0.11666254693E+01 -0.41154261858E+03  0.43014412241E+03  0.12499657101E+03 0.  0.
         25    2    1    2    0    0  0.55799059757E+01  0.11666254693E+01 -0.25070921774E+03  0.28019430409E+03  0.12498495838E+03 0.  0.
          5    1    3    3  501    0  0.14292880727E+02 -0.38784426710E+02 -0.45671659545E+02  0.61777897992E+02  0.47000000000E+01 0.  1.
         -5    1    3    3    0  501 -0.19872786703E+02  0.37617801240E+02 -0.36587095904E+03  0.36836622441E+03  0.47000000000E+01 0.  1.
          5    1    4    4  502    0 -0.40550646535E+02  0.51935271216E+00 -0.22184725248E+03  0.22557242317E+03  0.47000000000E+01 0. -1.
         -5    1    4    4    0  502  0.46130552511E+02  0.64727275709E+00 -0.28861965255E+02  0.54621880921E+02  0.47000000000E+01 0. -1.
<mgrwt>
<rscale>  0 0.25691085E+03</rscale>
<asrwt>0</asrwt>
<pdfrwt beam="1">  1       21 0.36989683E-02 0.25691085E+03</pdfrwt>
<pdfrwt beam="2">  1       21 0.10558387E+00 0.25691085E+03</pdfrwt>
<totfact> 0.31620023E+05</totfact>
</mgrwt>
</event>
<event>
 8    1  0.9529436E-006  0.5003074E+03  0.7546771E-02  0.1013699E+00
         21   -1    0    0  504  503  0.00000000000E+00  0.00000000000E+00  0.46141544719E+03  0.46141544719E+03  0.00000000000E+00 0.  1.
         21   -1    0    0  503  504 -0.00000000000E+00 -0.00000000000E+00 -0.13561936572E+03  0.13561936572E+03  0.00000000000E+00 0.  1.
         25    2    1    2    0    0 -0.10920214543E+03 -0.13471215954E+03  0.78592422719E+01  0.21391562879E+03  0.12500261620E+03 0.  0.
         25    2    1    2    0    0  0.10920214543E+03  0.13471215954E+03  0.31793683921E+03  0.38311918412E+03  0.12499600403E+03 0.  0.
          5    1    3    3  501    0 -0.11209801297E+03 -0.62031266429E+02 -0.30164762421E+02  0.13170362720E+03  0.47000000000E+01 0.  1.
         -5    1    3    3    0  501  0.28958675373E+01 -0.72680893112E+02  0.38024004693E+02  0.82212001589E+02  0.47000000000E+01 0.  1.
          5    1    4    4  502    0 -0.86756493713E+01  0.40384827561E+02  0.14257617561E+02  0.43949639904E+02  0.47000000000E+01 0. -1.
         -5    1    4    4    0  502  0.11787779480E+03  0.94327331980E+02  0.30367922164E+03  0.33916954422E+03  0.47000000000E+01 0. -1.
<mgrwt>
<rscale>  0 0.50030739E+03</rscale>
<asrwt>0</asrwt>
<pdfrwt beam="1">  1       21 0.70986991E-01 0.50030739E+03</pdfrwt>
<pdfrwt beam="2">  1       21 0.20864518E-01 0.50030739E+03</pdfrwt>
<totfact> 0.34610223E+04</totfact>
</mgrwt>
</event>
<event>
 8    1  0.9529436E-006  0.3725603E+03  0.7546771E-02  0.1053718E+00
         21   -1    0    0  504  503  0.00000000000E+00  0.00000000000E+00  0.18595396394E+03  0.18595396394E+03  0.00000000000E+00 0.  1.
         21   -1    0    0  503  504 -0.00000000000E+00 -0.00000000000E+00 -0.18660686037E+03  0.18660686037E+03  0.00000000000E+00 0.  1.
         25    2    1    2    0    0 -0.21310346669E+02 -0.13186010494E+03 -0.35467532103E+02  0.18633927652E+03  0.12499264774E+03 0.  0.
         25    2    1    2    0    0  0.21310346669E+02  0.13186010494E+03  0.34814635676E+02  0.18622154779E+03  0.12500075141E+03 0.  0.
          5    1    3    3  501    0  0.32941733153E+02 -0.75210918255E+01 -0.37350613499E+02  0.50585402382E+02  0.47000000000E+01 0.  1.
         -5    1    3    3    0  501 -0.54252079823E+02 -0.12433901312E+03  0.18830813964E+01  0.13575387414E+03  0.47000000000E+01 0.  1.
          5    1    4    4  502    0  0.54413834242E+02  0.12712122956E+02  0.26964176869E+02  0.62222345353E+02  0.47000000000E+01 0. -1.
         -5    1    4    4    0  502 -0.33103487573E+02  0.11914798199E+03  0.78504588071E+01  0.12399920243E+03  0.47000000000E+01 0. -1.
<mgrwt>
<rscale>  0 0.37256025E+03</rscale>
<asrwt>0</asrwt>
<pdfrwt beam="1">  1       21 0.28608302E-01 0.37256025E+03</pdfrwt>
<pdfrwt beam="2">  1       21 0.28708748E-01 0.37256025E+03</pdfrwt>
<totfact> 0.12908235E+05</totfact>
</mgrwt>
</event>
<event>
 8    1  0.9529436E-006  0.2810668E+03  0.7546771E-02  0.1095108E+00
         21   -1    0    0  504  503  0.00000000000E+00  0.00000000000E+00  0.53292774218E+03  0.53292774218E+03  0.00000000000E+00 0. -1.
         21   -1    0    0  503  504 -0.00000000000E+00 -0.00000000000E+00 -0.37058756732E+02  0.37058756732E+02  0.00000000000E+00 0. -1.
         25    2    1    2    0    0  0.93590708178E+01  0.11526729268E+02  0.37464812137E+03  0.39522888643E+03  0.12499680047E+03 0.  0.
         25    2    1    2    0    0 -0.93590708178E+01 -0.11526729268E+02  0.12122086408E+03  0.17475761249E+03  0.12500107015E+03 0.  0.
          5    1    3    3  501    0 -0.16362914897E+02  0.32243396030E+02  0.35426113947E+03  0.35613259681E+03  0.47000000000E+01 0.  1.
         -5    1    3    3    0  501  0.25721985714E+02 -0.20716666762E+02  0.20386981893E+02  0.39096289613E+02  0.47000000000E+01 0.  1.
          5    1    4    4  502    0 -0.23531985762E+02  0.80637380974E+01  0.14094565688E+03  0.14320106989E+03  0.47000000000E+01 0.  1.
         -5    1    4    4    0  502  0.14172914944E+02 -0.19590467366E+02 -0.19724792796E+02  0.31556542594E+02  0.47000000000E+01 0.  1.
<mgrwt>
<rscale>  0 0.28106682E+03</rscale>
<asrwt>0</asrwt>
<pdfrwt beam="1">  1       21 0.81988878E-01 0.28106682E+03</pdfrwt>
<pdfrwt beam="2">  1       21 0.57013476E-02 0.28106682E+03</pdfrwt>
<totfact> 0.27336324E+05</totfact>
</mgrwt>
</event>
<event>
 8    1  0.9529436E-006  0.2810558E+03  0.7546771E-02  0.1095114E+00
         21   -1    0    0  504  503  0.00000000000E+00  0.00000000000E+00  0.47824770380E+03  0.47824770380E+03  0.00000000000E+00 0. -1.
         21   -1    0    0  503  504 -0.00000000000E+00 -0.00000000000E+00 -0.41292605364E+02  0.41292605364E+02  0.00000000000E+00 0. -1.
         25    2    1    2    0    0 -0.52124971987E+02 -0.90486485631E+01  0.28586479061E+03  0.31644063996E+03  0.12496843347E+03 0.  0.
         25    2    1    2    0    0  0.52124971987E+02  0.90486485631E+01  0.15109030783E+03  0.20309966921E+03  0.12498921460E+03 0.  0.
          5    1    3    3  501    0 -0.91369236920E+02  0.10999626763E+01  0.22764061973E+03  0.24534035364E+03  0.47000000000E+01 0.  1.
         -5    1    3    3    0  501  0.39244264934E+02 -0.10148611239E+02  0.58224170876E+02  0.71100286318E+02  0.47000000000E+01 0.  1.
          5    1    4    4  502    0 -0.25872760607E+02 -0.32189471278E+02  0.78199937804E+02  0.88560047850E+02  0.47000000000E+01 0.  1.
         -5    1    4    4    0  502  0.77997732594E+02  0.41238119841E+02  0.72890370026E+02  0.11453962136E+03  0.47000000000E+01 0.  1.
<mgrwt>
<rscale>  0 0.28105582E+03</rscale>
<asrwt>0</asrwt>
<pdfrwt beam="1">  1       21 0.73576566E-01 0.28105582E+03</pdfrwt>
<pdfrwt beam="2">  1       21 0.63527089E-02 0.28105582E+03</pdfrwt>
<totfact> 0.28998606E+05</totfact>
</mgrwt>
</event>
<event>
 8    1  0.9529436E-006  0.2753718E+03  0.7546771E-02  0.1098244E+00
         21   -1    0    0  504  503  0.00000000000E+00  0.00000000000E+00  0.11965649503E+04  0.11965649503E+04  0.00000000000E+00 0.  1.
         21   -1    0    0  503  504 -0.00000000000E+00 -0.00000000000E+00 -0.15843194189E+02  0.15843194189E+02  0.00000000000E+00 0.  1.
         25    2    1    2    0    0 -0.52502614888E+01 -0.41854204144E+02  0.41676043183E+03  0.43713997203E+03  0.12499103150E+03 0.  0.
         25    2    1    2    0    0  0.52502614888E+01  0.41854204144E+02  0.76396132429E+03  0.77526817247E+03  0.12499797832E+03 0.  0.
          5    1    3    3  501    0  0.53105482729E+02  0.29909135973E+01  0.11983072710E+03  0.13118929460E+03  0.47000000000E+01 0. -1.
         -5    1    3    3    0  501 -0.58355744218E+02 -0.44845117741E+02  0.29692970473E+03  0.30595067743E+03  0.47000000000E+01 0. -1.
          5    1    4    4  502    0  0.33538954604E+02  0.61475167366E+02  0.23730265794E+03  0.24746454118E+03  0.47000000000E+01 0.  1.
         -5    1    4    4    0  502 -0.28288693116E+02 -0.19620963222E+02  0.52665866635E+03  0.52780363129E+03  0.47000000000E+01 0.  1.
<mgrwt>
<rscale>  0 0.27537183E+03</rscale>
<asrwt>0</asrwt>
<pdfrwt beam="1">  1       21 0.18408684E+00 0.27537183E+03</pdfrwt>
<pdfrwt beam="2">  1       21 0.24374154E-02 0.27537183E+03</pdfrwt>
<totfact> 0.14665040E+05</totfact>
</mgrwt>
</event>
<event>
 8    1  0.9529436E-006  0.6499900E+03  0.7546771E-02  0.9806798E-01
         21   -1    0    0  504  503  0.00000000000E+00  0.00000000000E+00  0.40193340716E+03  0.40193340716E+03  0.00000000000E+00 0. -1.
         21   -1    0    0  503  504 -0.00000000000E+00 -0.00000000000E+00 -0.26278419079E+03  0.26278419079E+03  0.00000000000E+00 0. -1.
         25    2    1    2    0    0  0.10797756071E+02 -0.40850824940E+02  0.37331039802E+03  0.39594306469E+03  0.12499950308E+03 0.  0.
         25    2    1    2    0    0 -0.10797756071E+02  0.40850824940E+02 -0.23416118166E+03  0.26877453325E+03  0.12499163690E+03 0.  0.
          5    1    3    3  501    0 -0.43838648692E+02 -0.45702411645E+02  0.28412159524E+03  0.29113177160E+03  0.47000000000E+01 0. -1.
         -5    1    3    3    0  501  0.54636404764E+02  0.48515867046E+01  0.89188802780E+02  0.10481129310E+03  0.47000000000E+01 0. -1.
          5    1    4    4  502    0 -0.40774821948E+02 -0.60176471732E+01 -0.17480821005E+02  0.45016300219E+02  0.47000000000E+01 0.  1.
         -5    1    4    4    0  502  0.29977065876E+02  0.46868472114E+02 -0.21668036066E+03  0.22375823303E+03  0.47000000000E+01 0.  1.
<mgrwt>
<rscale>  0 0.64998999E+03</rscale>
<asrwt>0</asrwt>
<pdfrwt beam="1">  1       21 0.61835909E-01 0.64998999E+03</pdfrwt>
<pdfrwt beam="2">  1       21 0.40428337E-01 0.64998999E+03</pdfrwt>
<totfact> 0.12258300E+04</totfact>
</mgrwt>
</event>
<event>
 8    1  0.9529436E-006  0.2944587E+03  0.7546771E-02  0.1088044E+00
         21   -1    0    0  504  503  0.00000000000E+00  0.00000000000E+00  0.64889443662E+02  0.64889443662E+02  0.00000000000E+00 0.  1.
         21   -1    0    0  503  504 -0.00000000000E+00 -0.00000000000E+00 -0.33405243148E+03  0.33405243148E+03  0.00000000000E+00 0.  1.
         25    2    1    2    0    0  0.36048269719E+02  0.10012366840E+02 -0.22699536619E+03  0.26182844913E+03  0.12501006066E+03 0.  0.
         25    2    1    2    0    0 -0.36048269719E+02 -0.10012366840E+02 -0.42167621631E+02  0.13711342601E+03  0.12498903167E+03 0.  0.
          5    1    3    3  501    0 -0.18841571785E+02  0.54552245595E+02 -0.12359489030E+03  0.13648713945E+03  0.47000000000E+01 0.  1.
         -5    1    3    3    0  501  0.54889841504E+02 -0.44539878755E+02 -0.10340047589E+03  0.12534130968E+03  0.47000000000E+01 0.  1.
          5    1    4    4  502    0 -0.53502209254E+02 -0.14289843722E+02  0.29609212802E+02  0.62972069296E+02  0.47000000000E+01 0. -1.
         -5    1    4    4    0  502  0.17453939535E+02  0.42774768821E+01 -0.71776834433E+02  0.74141356711E+02  0.47000000000E+01 0. -1.
<mgrwt>
<rscale>  0 0.29445867E+03</rscale>
<asrwt>0</asrwt>
<pdfrwt beam="1">  1       21 0.99829914E-02 0.29445867E+03</pdfrwt>
<pdfrwt beam="2">  1       21 0.51392682E-01 0.29445867E+03</pdfrwt>
<totfact> 0.28568485E+05</totfact>
</mgrwt>
</event>
<event>
 8    1  0.9529436E-006  0.3854801E+03  0.7546771E-02  0.1048927E+00
         21   -1    0    0  504  503  0.00000000000E+00  0.00000000000E+00  0.32483976830E+02  0.32483976830E+02  0.00000000000E+00 0.  1.
         21   -1    0    0  503  504 -0.00000000000E+00 -0.00000000000E+00 -0.11436016358E+04  0.11436016358E+04  0.00000000000E+00 0.  1.
         25    2    1    2    0    0 -0.77502962448E+02  0.12265304416E+03 -0.62193943233E+03  0.65075636368E+03  0.12499883584E+03 0.  0.
         25    2    1    2    0    0  0.77502962448E+02 -0.12265304416E+03 -0.48917822667E+03  0.52532924897E+03  0.12500001579E+03 0.  0.
          5    1    3    3  501    0 -0.10333219582E+03  0.67060786518E+02 -0.32671330282E+03  0.34919674114E+03  0.47000000000E+01 0.  1.
         -5    1    3    3    0  501  0.25829233371E+02  0.55592257646E+02 -0.29522612950E+03  0.30155962254E+03  0.47000000000E+01 0.  1.
          5    1    4    4  502    0  0.35687273678E+02 -0.14092798926E+03 -0.38137250852E+03  0.40816829851E+03  0.47000000000E+01 0. -1.
         -5    1    4    4    0  502  0.41815688770E+02  0.18274945100E+02 -0.10780571815E+03  0.11716095046E+03  0.47000000000E+01 0. -1.
<mgrwt>
<rscale>  0 0.38548011E+03</rscale>
<asrwt>0</asrwt>
<pdfrwt beam="1">  1       21 0.49975358E-02 0.38548011E+03</pdfrwt>
<pdfrwt beam="2">  1       21 0.17593868E+00 0.38548011E+03</pdfrwt>
<totfact> 0.47982185E+04</totfact>
</mgrwt>
</event>
<event>
 8    1  0.9529436E-006  0.2671125E+03  0.7546771E-02  0.1102944E+00
         21   -1    0    0  504  503  0.00000000000E+00  0.00000000000E+00  0.36289736346E+03  0.36289736346E+03  0.00000000000E+00 0. -1.
         21   -1    0    0  503  504 -0.00000000000E+00 -0.00000000000E+00 -0.49152379415E+02  0.49152379415E+02  0.00000000000E+00 0. -1.
         25    2    1    2    0    0 -0.35539987193E+02 -0.21216949131E+02  0.19134765585E+03  0.23227597579E+03  0.12499981563E+03 0.  0.
         25    2    1    2    0    0  0.35539987193E+02  0.21216949131E+02  0.12239732820E+03  0.17977376709E+03  0.12499700702E+03 0.  0.
          5    1    3    3  501    0 -0.33628732480E+02 -0.35071478306E+02  0.93772245783E+01  0.49708375346E+02  0.47000000000E+01 0. -1.
         -5    1    3    3    0  501 -0.19112547123E+01  0.13854529174E+02  0.18197043128E+03  0.18256760044E+03  0.47000000000E+01 0. -1.
          5    1    4    4  502    0  0.60331541692E+02 -0.12117198580E+02  0.13566734343E+02  0.63189142304E+02  0.47000000000E+01 0.  1.
         -5    1    4    4    0  502 -0.24791554499E+02  0.33334147711E+02  0.10883059385E+03  0.11658462479E+03  0.47000000000E+01 0.  1.
<mgrwt>
<rscale>  0 0.26711248E+03</rscale>
<asrwt>0</asrwt>
<pdfrwt beam="1">  1       21 0.55830362E-01 0.26711248E+03</pdfrwt>
<pdfrwt beam="2">  1       21 0.75619047E-02 0.26711248E+03</pdfrwt>
<totfact> 0.39326543E+05</totfact>
</mgrwt>
</event>
<event>
 8    1  0.9529436E-006  0.4159171E+03  0.7546771E-02  0.1038403E+00
         21   -1    0    0  504  503  0.00000000000E+00  0.00000000000E+00  0.79085706686E+02  0.79085706686E+02  0.00000000000E+00 0.  1.
         21   -1    0    0  503  504 -0.00000000000E+00 -0.00000000000E+00 -0.54683405024E+03  0.54683405024E+03  0.00000000000E+00 0.  1.
         25    2    1    2    0    0  0.87593457940E+02 -0.10996741540E+03 -0.36726813504E+03  0.41264475411E+03  0.12499745499E+03 0.  0.
         25    2    1    2    0    0 -0.87593457940E+02  0.10996741540E+03 -0.10048020852E+03  0.21327500282E+03  0.12499803278E+03 0.  0.
          5    1    3    3  501    0 -0.31706622756E+02 -0.18564736501E+02 -0.59067064357E+02  0.69720638693E+02  0.47000000000E+01 0. -1.
         -5    1    3    3    0  501  0.11930008070E+03 -0.91402678904E+02 -0.30820107068E+03  0.34292411541E+03  0.47000000000E+01 0. -1.
          5    1    4    4  502    0 -0.27295078355E+02  0.65511218269E+02 -0.11652505507E+03  0.13651710326E+03  0.47000000000E+01 0.  1.
         -5    1    4    4    0  502 -0.60298379585E+02  0.44456197135E+02  0.16044846555E+02  0.76757899563E+02  0.47000000000E+01 0.  1.
<mgrwt>
<rscale>  0 0.41591709E+03</rscale>
<asrwt>0</asrwt>
<pdfrwt beam="1">  1       21 0.12167032E-01 0.41591709E+03</pdfrwt>
<pdfrwt beam="2">  1       21 0.84128316E-01 0.41591709E+03</pdfrwt>
<totfact> 0.65314577E+04</totfact>
</mgrwt>
</event>
<event>
 8    1  0.9529436E-006  0.2787856E+03  0.7546771E-02  0.1096354E+00
         21   -1    0    0  504  503  0.00000000000E+00  0.00000000000E+00  0.21263909042E+03  0.21263909042E+03  0.00000000000E+00 0. -1.
         21   -1    0    0  503  504 -0.00000000000E+00 -0.00000000000E+00 -0.91377172959E+02  0.91377172959E+02  0.00000000000E+00 0. -1.
         25    2    1    2    0    0 -0.19893084200E+02 -0.54614387597E+02  0.38088490093E+02  0.14301759839E+03  0.12499933695E+03 0.  0.
         25    2    1    2    0    0  0.19893084200E+02  0.54614387597E+02  0.83173427372E+02  0.16099866500E+03  0.12499713988E+03 0.  0.
          5    1    3    3  501    0 -0.15432870855E+02 -0.73174224946E+02 -0.23370268367E+02  0.78491401713E+02  0.47000000000E+01 0. -1.
         -5    1    3    3    0  501 -0.44602133453E+01  0.18559837349E+02  0.61458758460E+02  0.64526196672E+02  0.47000000000E+01 0. -1.
          5    1    4    4  502    0 -0.31778662094E+02 -0.26333431035E+01 -0.15426656368E+02  0.35733591858E+02  0.47000000000E+01 0.  1.
         -5    1    4    4    0  502  0.51671746294E+02  0.57247730701E+02  0.98600083739E+02  0.12526507314E+03  0.47000000000E+01 0.  1.
<mgrwt>
<rscale>  0 0.27878564E+03</rscale>
<asrwt>0</asrwt>
<pdfrwt beam="1">  1       21 0.32713706E-01 0.27878564E+03</pdfrwt>
<pdfrwt beam="2">  1       21 0.14058027E-01 0.27878564E+03</pdfrwt>
<totfact> 0.38970353E+05</totfact>
</mgrwt>
</event>
<event>
 8    1  0.9529436E-006  0.2778562E+03  0.7546771E-02  0.1096866E+00
         21   -1    0    0  504  503  0.00000000000E+00  0.00000000000E+00  0.12774199030E+04  0.12774199030E+04  0.00000000000E+00 0.  1.
         21   -1    0    0  503  504 -0.00000000000E+00 -0.00000000000E+00 -0.15109380758E+02  0.15109380758E+02  0.00000000000E+00 0.  1.
         25    2    1    2    0    0  0.40207043372E+01 -0.12109327319E+02  0.90671818373E+03  0.91539092234E+03  0.12505948238E+03 0.  0.
         25    2    1    2    0    0 -0.40207043372E+01  0.12109327319E+02  0.35559233848E+03  0.37713836138E+03  0.12499852227E+03 0.  0.
          5    1    3    3  501    0 -0.85320504558E+01 -0.58793922649E+02  0.25525747695E+03  0.26212209133E+03  0.47000000000E+01 0. -1.
         -5    1    3    3    0  501  0.12552754793E+02  0.46684595330E+02  0.65146070678E+03  0.65326883102E+03  0.47000000000E+01 0. -1.
          5    1    4    4  502    0  0.54864969887E+02  0.24005917266E+02  0.23182115239E+03  0.23947773525E+03  0.47000000000E+01 0. -1.
         -5    1    4    4    0  502 -0.58885674224E+02 -0.11896589947E+02  0.12377118609E+03  0.13766062613E+03  0.47000000000E+01 0. -1.
<mgrwt>
<rscale>  0 0.27785625E+03</rscale>
<asrwt>0</asrwt>
<pdfrwt beam="1">  1       21 0.19652605E+00 0.27785625E+03</pdfrwt>
<pdfrwt beam="2">  1       21 0.23245211E-02 0.27785625E+03</pdfrwt>
<totfact> 0.13077586E+05</totfact>
</mgrwt>
</event>
<event>
 8    1  0.9529436E-006  0.3890947E+03  0.7546771E-02  0.1047623E+00
         21   -1    0    0  504  503  0.00000000000E+00  0.00000000000E+00  0.67771418182E+02  0.67771418182E+02  0.00000000000E+00 0.  1.
         21   -1    0    0  503  504 -0.00000000000E+00 -0.00000000000E+00 -0.55847551198E+03  0.55847551198E+03  0.00000000000E+00 0.  1.
         25    2    1    2    0    0  0.29616204735E+02  0.11110969459E+03 -0.39804871727E+03  0.43277073573E+03  0.12500097826E+03 0.  0.
         25    2    1    2    0    0 -0.29616204735E+02 -0.11110969459E+03 -0.92655376524E+02  0.19347619443E+03  0.12500214077E+03 0.  0.
          5    1    3    3  501    0  0.34795499301E+01  0.10929098524E+03 -0.38984507511E+03  0.40491715117E+03  0.47000000000E+01 0. -1.
         -5    1    3    3    0  501  0.26136654805E+02  0.18187093542E+01 -0.82036421593E+01  0.27853584559E+02  0.47000000000E+01 0. -1.
          5    1    4    4  502    0  0.39384684067E+02 -0.17677984997E+02 -0.57454400919E+02  0.72019182706E+02  0.47000000000E+01 0. -1.
         -5    1    4    4    0  502 -0.69000888802E+02 -0.93431709597E+02 -0.35200975605E+02  0.12145701173E+03  0.47000000000E+01 0. -1.
<mgrwt>
<rscale>  0 0.38909473E+03</rscale>
<asrwt>0</asrwt>
<pdfrwt beam="1">  1       21 0.10426372E-01 0.38909473E+03</pdfrwt>
<pdfrwt beam="2">  1       21 0.85919312E-01 0.38909473E+03</pdfrwt>
<totfact> 0.82739850E+04</totfact>
</mgrwt>
</event>
<event>
 8    1  0.9529436E-006  0.3596507E+03  0.7546771E-02  0.1058722E+00
         21   -1    0    0  504  503  0.00000000000E+00  0.00000000000E+00  0.21743248381E+04  0.21743248381E+04  0.00000000000E+00 0. -1.
         21   -1    0    0  503  504 -0.00000000000E+00 -0.00000000000E+00 -0.14872275741E+02  0.14872275741E+02  0.00000000000E+00 0. -1.
         25    2    1    2    0    0 -0.59870856504E+02 -0.99967720505E+02  0.73899654556E+03  0.75849797747E+03  0.12500089147E+03 0.  0.
         25    2    1    2    0    0  0.59870856504E+02  0.99967720505E+02  0.14204560168E+04  0.14306991364E+04  0.12500663410E+03 0.  0.
          5    1    3    3  501    0 -0.69968672660E+02 -0.97173210425E+02  0.73719850602E+03  0.74687480561E+03  0.47000000000E+01 0. -1.
         -5    1    3    3    0  501  0.10097816156E+02 -0.27945100796E+01  0.17980395376E+01  0.11623171851E+02  0.47000000000E+01 0. -1.
          5    1    4    4  502    0  0.86932315715E+02  0.83757520206E+02  0.13146938123E+04  0.13202327294E+04  0.47000000000E+01 0.  1.
         -5    1    4    4    0  502 -0.27061459212E+02  0.16210200299E+02  0.10576220458E+03  0.11046640705E+03  0.47000000000E+01 0.  1.
<mgrwt>
<rscale>  0 0.35965071E+03</rscale>
<asrwt>0</asrwt>
<pdfrwt beam="1">  1       21 0.33451126E+00 0.35965071E+03</pdfrwt>
<pdfrwt beam="2">  1       21 0.22880441E-02 0.35965071E+03</pdfrwt>
<totfact> 0.18711151E+04</totfact>
</mgrwt>
</event>
<event>
 8    1  0.9529436E-006  0.3396361E+03  0.7546771E-02  0.1066951E+00
         21   -1    0    0  504  503  0.00000000000E+00  0.00000000000E+00  0.12113159969E+04  0.12113159969E+04  0.00000000000E+00 0.  1.
         21   -1    0    0  503  504 -0.00000000000E+00 -0.00000000000E+00 -0.23807303640E+02  0.23807303640E+02  0.00000000000E+00 0.  1.
         25    2    1    2    0    0 -0.56349383691E+02  0.93458476119E+02  0.46239674601E+03  0.49126654695E+03  0.12498931809E+03 0.  0.
         25    2    1    2    0    0  0.56349383691E+02 -0.93458476119E+02  0.72511194721E+03  0.74385675354E+03  0.12500317598E+03 0.  0.
          5    1    3    3  501    0  0.22843141042E+02  0.24295507818E+02  0.26527624068E+02  0.42870568359E+02  0.47000000000E+01 0.  1.
         -5    1    3    3    0  501 -0.79192524733E+02  0.69162968301E+02  0.43586912194E+03  0.44839597859E+03  0.47000000000E+01 0.  1.
          5    1    4    4  502    0  0.76930415868E+02 -0.77012357517E+01  0.35530955141E+03  0.36365445858E+03  0.47000000000E+01 0. -1.
         -5    1    4    4    0  502 -0.20581032177E+02 -0.85757240367E+02  0.36980239580E+03  0.38020229497E+03  0.47000000000E+01 0. -1.
<mgrwt>
<rscale>  0 0.33963609E+03</rscale>
<asrwt>0</asrwt>
<pdfrwt beam="1">  1       21 0.18635626E+00 0.33963609E+03</pdfrwt>
<pdfrwt beam="2">  1       21 0.36626631E-02 0.33963609E+03</pdfrwt>
<totfact> 0.70006705E+04</totfact>
</mgrwt>
</event>
<event>
 8    1  0.9529436E-006  0.3002864E+03  0.7546771E-02  0.1085098E+00
         21   -1    0    0  504  503  0.00000000000E+00  0.00000000000E+00  0.47981095142E+03  0.47981095142E+03  0.00000000000E+00 0. -1.
         21   -1    0    0  503  504 -0.00000000000E+00 -0.00000000000E+00 -0.46983049199E+02  0.46983049199E+02  0.00000000000E+00 0. -1.
         25    2    1    2    0    0  0.58384976419E+02  0.45890063055E+02  0.28213961506E+03  0.31739936951E+03  0.12499957607E+03 0.  0.
         25    2    1    2    0    0 -0.58384976419E+02 -0.45890063055E+02  0.15068828716E+03  0.20939463112E+03  0.12499779316E+03 0.  0.
          5    1    3    3  501    0  0.31345853367E+02  0.66169008632E+02  0.66326079057E+02  0.98904696500E+02  0.47000000000E+01 0. -1.
         -5    1    3    3    0  501  0.27039123052E+02 -0.20278945577E+02  0.21581353600E+03  0.21849467301E+03  0.47000000000E+01 0. -1.
          5    1    4    4  502    0 -0.30250333105E+01 -0.38488686456E+02 -0.92007377857E+01  0.39965902810E+02  0.47000000000E+01 0.  1.
         -5    1    4    4    0  502 -0.55359943109E+02 -0.74013765990E+01  0.15988902495E+03  0.16942872831E+03  0.47000000000E+01 0.  1.
<mgrwt>
<rscale>  0 0.30028641E+03</rscale>
<asrwt>0</asrwt>
<pdfrwt beam="1">  1       21 0.73817066E-01 0.30028641E+03</pdfrwt>
<pdfrwt beam="2">  1       21 0.72281617E-02 0.30028641E+03</pdfrwt>
<totfact> 0.22897917E+05</totfact>
</mgrwt>
</event>
<event>
 8    1  0.9529436E-006  0.3193366E+03  0.7546771E-02  0.1075955E+00
         21   -1    0    0  504  503  0.00000000000E+00  0.00000000000E+00  0.33706362265E+03  0.33706362265E+03  0.00000000000E+00 0. -1.
         21   -1    0    0  503  504 -0.00000000000E+00 -0.00000000000E+00 -0.75635463141E+02  0.75635463141E+02  0.00000000000E+00 0. -1.
         25    2    1    2    0    0 -0.86531970132E+01 -0.84783932416E+02  0.19673004467E+03  0.24816255033E+03  0.12497498909E+03 0.  0.
         25    2    1    2    0    0  0.86531970132E+01  0.84783932416E+02  0.64698114845E+02  0.16453653546E+03  0.12499292949E+03 0.  0.
          5    1    3    3  501    0  0.45184421349E+02 -0.13526618794E+02  0.22824032448E+02  0.52608248458E+02  0.47000000000E+01 0. -1.
         -5    1    3    3    0  501 -0.53837618363E+02 -0.71257313622E+02  0.17390601222E+03  0.19555430188E+03  0.47000000000E+01 0. -1.
          5    1    4    4  502    0 -0.57709325052E+02  0.40375853415E+02  0.22424133590E+02  0.74064212033E+02  0.47000000000E+01 0.  1.
         -5    1    4    4    0  502  0.66362522065E+02  0.44408079002E+02  0.42273981255E+02  0.90472323429E+02  0.47000000000E+01 0.  1.
<mgrwt>
<rscale>  0 0.31933658E+03</rscale>
<asrwt>0</asrwt>
<pdfrwt beam="1">  1       21 0.51855941E-01 0.31933658E+03</pdfrwt>
<pdfrwt beam="2">  1       21 0.11636225E-01 0.31933658E+03</pdfrwt>
<totfact> 0.21182887E+05</totfact>
</mgrwt>
</event>
<event>
 8    1  0.9529436E-006  0.6161961E+03  0.7546771E-02  0.9872362E-01
         21   -1    0    0  504  503  0.00000000000E+00  0.00000000000E+00  0.32183217068E+03  0.32183217068E+03  0.00000000000E+00 0. -1.
         21   -1    0    0  503  504 -0.00000000000E+00 -0.00000000000E+00 -0.29495007699E+03  0.29495007699E+03  0.00000000000E+00 0. -1.
         25    2    1    2    0    0 -0.26047074662E+03 -0.84191372967E+02 -0.52704005727E+02  0.30550689913E+03  0.12499422416E+03 0.  0.
         25    2    1    2    0    0  0.26047074662E+03  0.84191372967E+02  0.79586099422E+02  0.31127534854E+03  0.12500079305E+03 0.  0.
          5    1    3    3  501    0 -0.21282774974E+03 -0.88968030114E+02 -0.86830144579E+02  0.24652084181E+03  0.47000000000E+01 0. -1.
         -5    1    3    3    0  501 -0.47642996879E+02  0.47766571469E+01  0.34126138853E+02  0.58986057319E+02  0.47000000000E+01 0. -1.
          5    1    4    4  502    0  0.86462526610E+02  0.21697511225E+02 -0.32514907802E+02  0.95004524790E+02  0.47000000000E+01 0. -1.
         -5    1    4    4    0  502  0.17400822001E+03  0.62493861742E+02  0.11210100722E+03  0.21627082375E+03  0.47000000000E+01 0. -1.
<mgrwt>
<rscale>  0 0.61619615E+03</rscale>
<asrwt>0</asrwt>
<pdfrwt beam="1">  1       21 0.49512642E-01 0.61619615E+03</pdfrwt>
<pdfrwt beam="2">  1       21 0.45376935E-01 0.61619615E+03</pdfrwt>
<totfact> 0.15718734E+04</totfact>
</mgrwt>
</event>
<event>
 8    1  0.9529436E-006  0.3688335E+03  0.7546771E-02  0.1055140E+00
         21   -1    0    0  504  503  0.00000000000E+00  0.00000000000E+00  0.13880632835E+02  0.13880632835E+02  0.00000000000E+00 0.  1.
         21   -1    0    0  503  504 -0.00000000000E+00 -0.00000000000E+00 -0.24501425062E+04  0.24501425062E+04  0.00000000000E+00 0.  1.
         25    2    1    2    0    0 -0.91435536891E+02 -0.93354327464E+02 -0.14597906387E+04  0.14709481728E+04  0.12499732184E+03 0.  0.
         25    2    1    2    0    0  0.91435536891E+02  0.93354327464E+02 -0.97647123474E+03  0.99307496628E+03  0.12500531391E+03 0.  0.
          5    1    3    3  501    0 -0.46282379165E+01  0.25847916900E+02 -0.40658107422E+03  0.40745526786E+03  0.47000000000E+01 0. -1.
         -5    1    3    3    0  501 -0.86807298975E+02 -0.11920224436E+03 -0.10532095644E+04  0.10634929049E+04  0.47000000000E+01 0. -1.
          5    1    4    4  502    0 -0.19445529303E+02  0.12776064926E+02 -0.39241503004E+03  0.39313229611E+03  0.47000000000E+01 0. -1.
         -5    1    4    4    0  502  0.11088106619E+03  0.80578262538E+02 -0.58405620470E+03  0.59994267017E+03  0.47000000000E+01 0. -1.
<mgrwt>
<rscale>  0 0.36883345E+03</rscale>
<asrwt>0</asrwt>
<pdfrwt beam="1">  1       21 0.21354827E-02 0.36883345E+03</pdfrwt>
<pdfrwt beam="2">  1       21 0.37694487E+00 0.36883345E+03</pdfrwt>
<totfact> 0.11480745E+04</totfact>
</mgrwt>
</event>
<event>
 8    1  0.9529436E-006  0.2907148E+03  0.7546771E-02  0.1089977E+00
         21   -1    0    0  504  503  0.00000000000E+00  0.00000000000E+00  0.11969456853E+02  0.11969456853E+02  0.00000000000E+00 0.  1.
         21   -1    0    0  503  504 -0.00000000000E+00 -0.00000000000E+00 -0.17652237438E+04  0.17652237438E+04  0.00000000000E+00 0.  1.
         25    2    1    2    0    0 -0.62937594139E+02 -0.36822245782E+02 -0.95969096532E+03  0.97054043031E+03  0.12499983758E+03 0.  0.
         25    2    1    2    0    0  0.62937594139E+02  0.36822245782E+02 -0.79356332167E+03  0.80665277040E+03  0.12501571078E+03 0.  0.
          5    1    3    3  501    0 -0.20066506447E+02  0.71691516592E+01 -0.78502990753E+03  0.78533311857E+03  0.47000000000E+01 0.  1.
         -5    1    3    3    0  501 -0.42871087692E+02 -0.43991397441E+02 -0.17466105779E+03  0.18520731173E+03  0.47000000000E+01 0.  1.
          5    1    4    4  502    0 -0.73971060631E+01 -0.35750676946E+02 -0.33754829504E+03  0.33954936249E+03  0.47000000000E+01 0. -1.
         -5    1    4    4    0  502  0.70334700202E+02  0.72572922727E+02 -0.45601502663E+03  0.46710340791E+03  0.47000000000E+01 0. -1.
<mgrwt>
<rscale>  0 0.29071477E+03</rscale>
<asrwt>0</asrwt>
<pdfrwt beam="1">  1       21 0.18414553E-02 0.29071477E+03</pdfrwt>
<pdfrwt beam="2">  1       21 0.27157282E+00 0.29071477E+03</pdfrwt>
<totfact> 0.65699174E+04</totfact>
</mgrwt>
</event>
<event>
 8    1  0.9529436E-006  0.2927580E+03  0.7546771E-02  0.1088918E+00
         21   -1    0    0  504  503  0.00000000000E+00  0.00000000000E+00  0.15000375861E+03  0.15000375861E+03  0.00000000000E+00 0. -1.
         21   -1    0    0  503  504 -0.00000000000E+00 -0.00000000000E+00 -0.14284182370E+03  0.14284182370E+03  0.00000000000E+00 0. -1.
         25    2    1    2    0    0  0.24861869435E+02  0.10348964482E+02  0.74852472802E+02  0.14816745461E+03  0.12500195320E+03 0.  0.
         25    2    1    2    0    0 -0.24861869435E+02 -0.10348964482E+02 -0.67690537886E+02  0.14467812770E+03  0.12499815237E+03 0.  0.
          5    1    3    3  501    0 -0.22256470213E+02 -0.45904341538E+02  0.47045380014E+02  0.69555135102E+02  0.47000000000E+01 0. -1.
         -5    1    3    3    0  501  0.47118339648E+02  0.56253306020E+02  0.27807092788E+02  0.78612319509E+02  0.47000000000E+01 0. -1.
          5    1    4    4  502    0 -0.73089942348E+02 -0.24120068033E+02 -0.46353299923E+02  0.89970193776E+02  0.47000000000E+01 0. -1.
         -5    1    4    4    0  502  0.48228072913E+02  0.13771103550E+02 -0.21337237963E+02  0.54707933920E+02  0.47000000000E+01 0. -1.
<mgrwt>
<rscale>  0 0.29275799E+03</rscale>
<asrwt>0</asrwt>
<pdfrwt beam="1">  1       21 0.23077501E-01 0.29275799E+03</pdfrwt>
<pdfrwt beam="2">  1       21 0.21975665E-01 0.29275799E+03</pdfrwt>
<totfact> 0.33364871E+05</totfact>
</mgrwt>
</event>
<event>
 8    1  0.9529436E-006  0.3154308E+03  0.7546771E-02  0.1077772E+00
         21   -1    0    0  504  503  0.00000000000E+00  0.00000000000E+00  0.80060320540E+03  0.80060320540E+03  0.00000000000E+00 0.  1.
         21   -1    0    0  503  504 -0.00000000000E+00 -0.00000000000E+00 -0.31069254062E+02  0.31069254062E+02  0.00000000000E+00 0.  1.
         25    2    1    2    0    0 -0.89760886675E+02  0.14371170300E+02  0.46776302655E+03  0.49263172858E+03  0.12498089328E+03 0.  0.
         25    2    1    2    0    0  0.89760886675E+02 -0.14371170300E+02  0.30177092479E+03  0.33904073089E+03  0.12497751333E+03 0.  0.
          5    1    3    3  501    0 -0.10177505307E+03  0.48623349380E+02  0.39988202510E+03  0.41551187171E+03  0.47000000000E+01 0.  1.
         -5    1    3    3    0  501  0.12014166399E+02 -0.34252179080E+02  0.67881001451E+02  0.77119856872E+02  0.47000000000E+01 0.  1.
          5    1    4    4  502    0  0.71319373457E+02 -0.57436048221E+02  0.26141640762E+03  0.27703064964E+03  0.47000000000E+01 0. -1.
         -5    1    4    4    0  502  0.18441513219E+02  0.43064877921E+02  0.40354517169E+02  0.62010081246E+02  0.47000000000E+01 0. -1.
<mgrwt>
<rscale>  0 0.31543078E+03</rscale>
<asrwt>0</asrwt>
<pdfrwt beam="1">  1       21 0.12316971E+00 0.31543078E+03</pdfrwt>
<pdfrwt beam="2">  1       21 0.47798858E-02 0.31543078E+03</pdfrwt>
<totfact> 0.13776346E+05</totfact>
</mgrwt>
</event>
<event>
 8    1  0.9529436E-006  0.4697806E+03  0.7546771E-02  0.1021982E+00
         21   -1    0    0  504  503  0.00000000000E+00  0.00000000000E+00  0.67145214109E+03  0.67145214109E+03  0.00000000000E+00 0. -1.
         21   -1    0    0  503  504 -0.00000000000E+00 -0.00000000000E+00 -0.82170344857E+02  0.82170344857E+02  0.00000000000E+00 0. -1.
         25    2    1    2    0    0  0.29045599498E+02  0.84587075538E+02  0.96901021412E+01  0.15399782157E+03  0.12499124278E+03 0.  0.
         25    2    1    2    0    0 -0.29045599498E+02 -0.84587075538E+02  0.57959169410E+03  0.59962466438E+03  0.12499834425E+03 0.  0.
          5    1    3    3  501    0  0.61974277735E+02  0.38399196911E+02  0.46140792116E+02  0.86408171612E+02  0.47000000000E+01 0.  1.
         -5    1    3    3    0  501 -0.32928678237E+02  0.46187878627E+02 -0.36450689975E+02  0.67589649963E+02  0.47000000000E+01 0.  1.
          5    1    4    4  502    0 -0.24242126229E+01  0.31428998270E+02  0.82084562428E+02  0.88054665567E+02  0.47000000000E+01 0.  1.
         -5    1    4    4    0  502 -0.26621386875E+02 -0.11601607381E+03  0.49750713167E+03  0.51156999881E+03  0.47000000000E+01 0.  1.
<mgrwt>
<rscale>  0 0.46978060E+03</rscale>
<asrwt>0</asrwt>
<pdfrwt beam="1">  1       21 0.10330033E+00 0.46978060E+03</pdfrwt>
<pdfrwt beam="2">  1       21 0.12641592E-01 0.46978060E+03</pdfrwt>
<totfact> 0.36841124E+04</totfact>
</mgrwt>
</event>
<event>
 8    1  0.9529436E-006  0.2732682E+03  0.7546771E-02  0.1099424E+00
         21   -1    0    0  504  503  0.00000000000E+00  0.00000000000E+00  0.79201377416E+02  0.79201377416E+02  0.00000000000E+00 0.  1.
         21   -1    0    0  503  504 -0.00000000000E+00 -0.00000000000E+00 -0.23571403133E+03  0.23571403133E+03  0.00000000000E+00 0.  1.
         25    2    1    2    0    0  0.26028392740E+01 -0.10266248748E+02 -0.15863049728E+02  0.12645251326E+03  0.12500572438E+03 0.  0.
         25    2    1    2    0    0 -0.26028392740E+01  0.10266248748E+02 -0.14064960419E+03  0.18846289548E+03  0.12499512463E+03 0.  0.
          5    1    3    3  501    0  0.33343443185E+02  0.48083793447E+02 -0.13792097617E+02  0.60300483849E+02  0.47000000000E+01 0. -1.
         -5    1    3    3    0  501 -0.30740603911E+02 -0.58350042195E+02 -0.20709521100E+01  0.66152029415E+02  0.47000000000E+01 0. -1.
          5    1    4    4  502    0 -0.35711536860E+01  0.39306743093E+02  0.48260152081E+01  0.40039400770E+02  0.47000000000E+01 0.  1.
         -5    1    4    4    0  502  0.96831441202E+00 -0.29040494345E+02 -0.14547561939E+03  0.14842349471E+03  0.47000000000E+01 0.  1.
<mgrwt>
<rscale>  0 0.27326819E+03</rscale>
<asrwt>0</asrwt>
<pdfrwt beam="1">  1       21 0.12184827E-01 0.27326819E+03</pdfrwt>
<pdfrwt beam="2">  1       21 0.36263697E-01 0.27326819E+03</pdfrwt>
<totfact> 0.41167881E+05</totfact>
</mgrwt>
</event>
<event>
 8    1  0.9529436E-006  0.3311858E+03  0.7546771E-02  0.1070613E+00
         21   -1    0    0  504  503  0.00000000000E+00  0.00000000000E+00  0.70982940199E+02  0.70982940199E+02  0.00000000000E+00 0.  1.
         21   -1    0    0  503  504 -0.00000000000E+00 -0.00000000000E+00 -0.38630415449E+03  0.38630415449E+03  0.00000000000E+00 0.  1.
         25    2    1    2    0    0 -0.63517129227E+01 -0.10008910885E+03 -0.21523253941E+03  0.26834349701E+03  0.12500004961E+03 0.  0.
         25    2    1    2    0    0  0.63517129227E+01  0.10008910885E+03 -0.10008867488E+03  0.18894359767E+03  0.12499506508E+03 0.  0.
          5    1    3    3  501    0  0.44923301203E+01 -0.12142756656E+03 -0.12308748210E+03  0.17302442950E+03  0.47000000000E+01 0. -1.
         -5    1    3    3    0  501 -0.10844043043E+02  0.21338457713E+02 -0.92145057302E+02  0.95319067517E+02  0.47000000000E+01 0. -1.
          5    1    4    4  502    0 -0.18174848203E+02  0.16243279791E+02  0.25694388589E+02  0.35727592285E+02  0.47000000000E+01 0. -1.
         -5    1    4    4    0  502  0.24526561126E+02  0.83845829059E+02 -0.12578306347E+03  0.15321600539E+03  0.47000000000E+01 0. -1.
<mgrwt>
<rscale>  0 0.33118578E+03</rscale>
<asrwt>0</asrwt>
<pdfrwt beam="1">  1       21 0.10920452E-01 0.33118578E+03</pdfrwt>
<pdfrwt beam="2">  1       21 0.59431409E-01 0.33118578E+03</pdfrwt>
<totfact> 0.17678540E+05</totfact>
</mgrwt>
</event>
<event>
 8    1  0.9529436E-006  0.4677963E+03  0.7546771E-02  0.1022544E+00
         21   -1    0    0  504  503  0.00000000000E+00  0.00000000000E+00  0.14840389430E+04  0.14840389430E+04  0.00000000000E+00 0. -1.
         21   -1    0    0  503  504 -0.00000000000E+00 -0.00000000000E+00 -0.36864494585E+02  0.36864494585E+02  0.00000000000E+00 0. -1.
         25    2    1    2    0    0 -0.19533244481E+03 -0.60914787217E+01  0.62651750527E+03  0.66808792422E+03  0.12500167988E+03 0.  0.
         25    2    1    2    0    0  0.19533244481E+03  0.60914787217E+01  0.82065694311E+03  0.85281551333E+03  0.12499844557E+03 0.  0.
          5    1    3    3  501    0  0.16027169758E+02 -0.10628104664E+02  0.40361366619E+02  0.44955051936E+02  0.47000000000E+01 0. -1.
         -5    1    3    3    0  501 -0.21135961456E+03  0.45366259424E+01  0.58615613866E+03  0.62313287229E+03  0.47000000000E+01 0. -1.
          5    1    4    4  502    0  0.65458558508E+02 -0.33043706383E+02  0.13351361189E+03  0.15239646969E+03  0.47000000000E+01 0.  1.
         -5    1    4    4    0  502  0.12987388630E+03  0.39135185105E+02  0.68714333122E+03  0.70041904365E+03  0.47000000000E+01 0.  1.
<mgrwt>
<rscale>  0 0.46779630E+03</rscale>
<asrwt>0</asrwt>
<pdfrwt beam="1">  1       21 0.22831364E+00 0.46779630E+03</pdfrwt>
<pdfrwt beam="2">  1       21 0.56714618E-02 0.46779630E+03</pdfrwt>
<totfact> 0.16827979E+04</totfact>
</mgrwt>
</event>
<event>
 8    1  0.9529436E-006  0.3036911E+03  0.7546771E-02  0.1083410E+00
         21   -1    0    0  504  503  0.00000000000E+00  0.00000000000E+00  0.66536519548E+02  0.66536519548E+02  0.00000000000E+00 0.  1.
         21   -1    0    0  503  504 -0.00000000000E+00 -0.00000000000E+00 -0.34653247821E+03  0.34653247821E+03  0.00000000000E+00 0.  1.
         25    2    1    2    0    0 -0.70111171885E+01  0.84937715321E+02 -0.12235157479E+03  0.19457303521E+03  0.12500074772E+03 0.  0.
         25    2    1    2    0    0  0.70111171885E+01 -0.84937715321E+02 -0.15764438387E+03  0.21849596255E+03  0.12500065054E+03 0.  0.
          5    1    3    3  501    0  0.26834079180E+01  0.61121952930E+02  0.77707748969E+01  0.61851182289E+02  0.47000000000E+01 0.  1.
         -5    1    3    3    0  501 -0.96945251064E+01  0.23815762391E+02 -0.13012234969E+03  0.13272185292E+03  0.47000000000E+01 0.  1.
          5    1    4    4  502    0  0.49723082419E+02 -0.25240273904E+02 -0.12705899440E+03  0.13883635839E+03  0.47000000000E+01 0.  1.
         -5    1    4    4    0  502 -0.42711965231E+02 -0.59697441417E+02 -0.30585389470E+02  0.79659604158E+02  0.47000000000E+01 0.  1.
<mgrwt>
<rscale>  0 0.30369106E+03</rscale>
<asrwt>0</asrwt>
<pdfrwt beam="1">  1       21 0.10236388E-01 0.30369106E+03</pdfrwt>
<pdfrwt beam="2">  1       21 0.53312689E-01 0.30369106E+03</pdfrwt>
<totfact> 0.25224278E+05</totfact>
</mgrwt>
</event>
<event>
 8    1  0.9529436E-006  0.3096415E+03  0.7546771E-02  0.1080518E+00
         21   -1    0    0  504  503  0.00000000000E+00  0.00000000000E+00  0.21768171134E+03  0.21768171134E+03  0.00000000000E+00 0. -1.
         21   -1    0    0  503  504 -0.00000000000E+00 -0.00000000000E+00 -0.11011247292E+03  0.11011247292E+03  0.00000000000E+00 0. -1.
         25    2    1    2    0    0 -0.36728691596E+02  0.44670997701E+02 -0.21032464357E+02  0.13932660811E+03  0.12500017740E+03 0.  0.
         25    2    1    2    0    0  0.36728691596E+02 -0.44670997701E+02  0.12860170277E+03  0.18846757615E+03  0.12504852850E+03 0.  0.
          5    1    3    3  501    0 -0.66798629853E+01  0.11406123386E+02  0.51805082899E+02  0.53671005528E+02  0.47000000000E+01 0. -1.
         -5    1    3    3    0  501 -0.30048828611E+02  0.33264874315E+02 -0.72837547257E+02  0.85655602586E+02  0.47000000000E+01 0. -1.
          5    1    4    4  502    0  0.53630567259E+02 -0.65707486155E+02  0.36636235203E+02  0.92509541190E+02  0.47000000000E+01 0.  1.
         -5    1    4    4    0  502 -0.16901875663E+02  0.21036488453E+02  0.91965467570E+02  0.95958034957E+02  0.47000000000E+01 0.  1.
<mgrwt>
<rscale>  0 0.30964154E+03</rscale>
<asrwt>0</asrwt>
<pdfrwt beam="1">  1       21 0.33489494E-01 0.30964154E+03</pdfrwt>
<pdfrwt beam="2">  1       21 0.16940380E-01 0.30964154E+03</pdfrwt>
<totfact> 0.26219234E+05</totfact>
</mgrwt>
</event>
<event>
 8    1  0.9529436E-006  0.3297761E+03  0.7546771E-02  0.1071236E+00
         21   -1    0    0  504  503  0.00000000000E+00  0.00000000000E+00  0.24538972922E+03  0.24538972922E+03  0.00000000000E+00 0.  1.
         21   -1    0    0  503  504 -0.00000000000E+00 -0.00000000000E+00 -0.11079548114E+03  0.11079548114E+03  0.00000000000E+00 0.  1.
         25    2    1    2    0    0  0.60992266700E+02  0.27353960341E+02  0.15826803023E+03  0.21246622853E+03  0.12499933251E+03 0.  0.
         25    2    1    2    0    0 -0.60992266700E+02 -0.27353960341E+02 -0.23673782155E+02  0.14371898184E+03  0.12500560801E+03 0.  0.
          5    1    3    3  501    0 -0.18052223368E+02  0.39449525993E+02  0.11284968877E+02  0.45073144911E+02  0.47000000000E+01 0. -1.
         -5    1    3    3    0  501  0.79044490068E+02 -0.12095565652E+02  0.14698306135E+03  0.16739308362E+03  0.47000000000E+01 0. -1.
          5    1    4    4  502    0 -0.20610976036E+02 -0.17447392072E+02  0.51126370878E+02  0.58010513034E+02  0.47000000000E+01 0. -1.
         -5    1    4    4    0  502 -0.40381290665E+02 -0.99065682688E+01 -0.74800153033E+02  0.85708468802E+02  0.47000000000E+01 0. -1.
<mgrwt>
<rscale>  0 0.32977612E+03</rscale>
<asrwt>0</asrwt>
<pdfrwt beam="1">  1       21 0.37752266E-01 0.32977612E+03</pdfrwt>
<pdfrwt beam="2">  1       21 0.17045459E-01 0.32977612E+03</pdfrwt>
<totfact> 0.20283520E+05</totfact>
</mgrwt>
</event>
<event>
 8    1  0.9529436E-006  0.3024797E+03  0.7546771E-02  0.1084008E+00
         21   -1    0    0  504  503  0.00000000000E+00  0.00000000000E+00  0.13871656214E+03  0.13871656214E+03  0.00000000000E+00 0. -1.
         21   -1    0    0  503  504 -0.00000000000E+00 -0.00000000000E+00 -0.16489377601E+03  0.16489377601E+03  0.00000000000E+00 0. -1.
         25    2    1    2    0    0  0.68419757567E+02 -0.32772278795E+02  0.25693053154E+02  0.14846421308E+03  0.12500481632E+03 0.  0.
         25    2    1    2    0    0 -0.68419757567E+02  0.32772278795E+02 -0.51870267026E+02  0.15514612507E+03  0.12499804015E+03 0.  0.
          5    1    3    3  501    0 -0.32212514587E+02 -0.30595552259E+02  0.85576400657E+00  0.44682840622E+02  0.47000000000E+01 0. -1.
         -5    1    3    3    0  501  0.10063227215E+03 -0.21767265365E+01  0.24837289147E+02  0.10378137246E+03  0.47000000000E+01 0. -1.
          5    1    4    4  502    0 -0.44113634179E+02  0.65818483814E+02  0.10790894067E+02  0.80103800951E+02  0.47000000000E+01 0. -1.
         -5    1    4    4    0  502 -0.24306123388E+02 -0.33046205019E+02 -0.62661161092E+02  0.75042324123E+02  0.47000000000E+01 0. -1.
<mgrwt>
<rscale>  0 0.30247974E+03</rscale>
<asrwt>0</asrwt>
<pdfrwt beam="1">  1       21 0.21341010E-01 0.30247974E+03</pdfrwt>
<pdfrwt beam="2">  1       21 0.25368273E-01 0.30247974E+03</pdfrwt>
<totfact> 0.29354535E+05</totfact>
</mgrwt>
</event>
<event>
 8    1  0.9529436E-006  0.2516382E+03  0.7546771E-02  0.1112274E+00
         21   -1    0    0  504  503  0.00000000000E+00  0.00000000000E+00  0.14750013875E+03  0.14750013875E+03  0.00000000000E+00 0.  1.
         21   -1    0    0  503  504 -0.00000000000E+00 -0.00000000000E+00 -0.10732499586E+03  0.10732499586E+03  0.00000000000E+00 0.  1.
         25    2    1    2    0    0  0.12093426667E+01 -0.13943237606E+02  0.23259002000E+02  0.12791208422E+03  0.12499857491E+03 0.  0.
         25    2    1    2    0    0 -0.12093426667E+01  0.13943237606E+02  0.16916140888E+02  0.12691305040E+03  0.12499956061E+03 0.  0.
          5    1    3    3  501    0 -0.36809700389E+02 -0.32293500344E+02  0.55811389341E+02  0.74396407086E+02  0.47000000000E+01 0.  1.
         -5    1    3    3    0  501  0.38019043056E+02  0.18350262738E+02 -0.32552387341E+02  0.53515677133E+02  0.47000000000E+01 0.  1.
          5    1    4    4  502    0  0.30733283212E+02  0.56412521440E+01  0.62738849541E+02  0.70246791133E+02  0.47000000000E+01 0.  1.
         -5    1    4    4    0  502 -0.31942625879E+02  0.83019854618E+01 -0.45822708653E+02  0.56666259264E+02  0.47000000000E+01 0.  1.
<mgrwt>
<rscale>  0 0.25163825E+03</rscale>
<asrwt>0</asrwt>
<pdfrwt beam="1">  1       21 0.22692329E-01 0.25163825E+03</pdfrwt>
<pdfrwt beam="2">  1       21 0.16511538E-01 0.25163825E+03</pdfrwt>
<totfact> 0.59302267E+05</totfact>
</mgrwt>
</event>
<event>
 8    1  0.9529436E-006  0.2710883E+03  0.7546771E-02  0.1100658E+00
         21   -1    0    0  504  503  0.00000000000E+00  0.00000000000E+00  0.97815470298E+03  0.97815470298E+03  0.00000000000E+00 0.  1.
         21   -1    0    0  503  504 -0.00000000000E+00 -0.00000000000E+00 -0.18782524352E+02  0.18782524352E+02  0.00000000000E+00 0.  1.
         25    2    1    2    0    0 -0.46409443303E+02 -0.22011797486E+02  0.51781634899E+03  0.53515956468E+03  0.12499453081E+03 0.  0.
         25    2    1    2    0    0  0.46409443303E+02  0.22011797486E+02  0.44155582965E+03  0.46177766266E+03  0.12501481264E+03 0.  0.
          5    1    3    3  501    0  0.32551873999E+02  0.26545277405E+02  0.15497366940E+03  0.16063375878E+03  0.47000000000E+01 0. -1.
         -5    1    3    3    0  501 -0.78961317302E+02 -0.48557074891E+02  0.36284267959E+03  0.37452580590E+03  0.47000000000E+01 0. -1.
          5    1    4    4  502    0  0.72992360329E+02  0.29220033725E+02  0.41763019315E+03  0.42499266260E+03  0.47000000000E+01 0. -1.
         -5    1    4    4    0  502 -0.26582917027E+02 -0.72082362390E+01  0.23925636498E+02  0.36785000057E+02  0.47000000000E+01 0. -1.
<mgrwt>
<rscale>  0 0.27108828E+03</rscale>
<asrwt>0</asrwt>
<pdfrwt beam="1">  1       21 0.15048530E+00 0.27108828E+03</pdfrwt>
<pdfrwt beam="2">  1       21 0.28896199E-02 0.27108828E+03</pdfrwt>
<totfact> 0.19379606E+05</totfact>
</mgrwt>
</event>
<event>
 8    1  0.9529436E-006  0.2626841E+03  0.7546771E-02  0.1105541E+00
         21   -1    0    0  504  503  0.00000000000E+00  0.00000000000E+00  0.23647978641E+03  0.23647978641E+03  0.00000000000E+00 0. -1.
         21   -1    0    0  503  504 -0.00000000000E+00 -0.00000000000E+00 -0.72948040369E+02  0.72948040369E+02  0.00000000000E+00 0. -1.
         25    2    1    2    0    0  0.49210626344E+01  0.35793995603E+02  0.10284491142E+03  0.16585450100E+03  0.12500085087E+03 0.  0.
         25    2    1    2    0    0 -0.49210626344E+01 -0.35793995603E+02  0.60686834620E+02  0.14357332577E+03  0.12499992400E+03 0.  0.
          5    1    3    3  501    0 -0.56574023098E+02  0.18909775227E+02  0.75432268920E+02  0.96282484819E+02  0.47000000000E+01 0. -1.
         -5    1    3    3    0  501  0.61495085732E+02  0.16884220376E+02  0.27412642499E+02  0.69572016182E+02  0.47000000000E+01 0. -1.
          5    1    4    4  502    0  0.19367680461E+02 -0.76872578795E+02  0.51770204932E+02  0.94798441631E+02  0.47000000000E+01 0. -1.
         -5    1    4    4    0  502 -0.24288743095E+02  0.41078583192E+02  0.89166296875E+01  0.48774884143E+02  0.47000000000E+01 0. -1.
<mgrwt>
<rscale>  0 0.26268412E+03</rscale>
<asrwt>0</asrwt>
<pdfrwt beam="1">  1       21 0.36381505E-01 0.26268412E+03</pdfrwt>
<pdfrwt beam="2">  1       21 0.11222776E-01 0.26268412E+03</pdfrwt>
<totfact> 0.47513991E+05</totfact>
</mgrwt>
</event>
<event>
 8    1  0.9529436E-006  0.4049817E+03  0.7546771E-02  0.1042068E+00
         21   -1    0    0  504  503  0.00000000000E+00  0.00000000000E+00  0.12259617268E+03  0.12259617268E+03  0.00000000000E+00 0. -1.
         21   -1    0    0  503  504 -0.00000000000E+00 -0.00000000000E+00 -0.33445202206E+03  0.33445202206E+03  0.00000000000E+00 0. -1.
         25    2    1    2    0    0  0.55134537006E+02 -0.14205122270E+03 -0.53490401304E+02  0.20421778059E+03  0.12500124735E+03 0.  0.
         25    2    1    2    0    0 -0.55134537006E+02  0.14205122270E+03 -0.15836544808E+03  0.25283041415E+03  0.12500094453E+03 0.  0.
          5    1    3    3  501    0  0.10028359377E+02 -0.11736642833E+03 -0.83530723251E+02  0.14448154974E+03  0.47000000000E+01 0.  1.
         -5    1    3    3    0  501  0.45106177629E+02 -0.24684794371E+02  0.30040321947E+02  0.59736230850E+02  0.47000000000E+01 0.  1.
          5    1    4    4  502    0 -0.22578882757E+02  0.11591143735E+03 -0.17197260280E+03  0.20866703949E+03  0.47000000000E+01 0.  1.
         -5    1    4    4    0  502 -0.32555654249E+02  0.26139785347E+02  0.13607154723E+02  0.44163374659E+02  0.47000000000E+01 0.  1.
<mgrwt>
<rscale>  0 0.40498167E+03</rscale>
<asrwt>0</asrwt>
<pdfrwt beam="1">  1       21 0.18860950E-01 0.40498167E+03</pdfrwt>
<pdfrwt beam="2">  1       21 0.51454156E-01 0.40498167E+03</pdfrwt>
<totfact> 0.86740937E+04</totfact>
</mgrwt>
</event>
<event>
 8    1  0.9529436E-006  0.4163403E+03  0.7546771E-02  0.1038264E+00
         21   -1    0    0  504  503  0.00000000000E+00  0.00000000000E+00  0.44875532152E+02  0.44875532152E+02  0.00000000000E+00 0.  1.
         21   -1    0    0  503  504 -0.00000000000E+00 -0.00000000000E+00 -0.96566663336E+03  0.96566663336E+03  0.00000000000E+00 0.  1.
         25    2    1    2    0    0 -0.69245564855E+02 -0.14550560793E+03 -0.56178546086E+03  0.59765740073E+03  0.12499853768E+03 0.  0.
         25    2    1    2    0    0  0.69245564855E+02  0.14550560793E+03 -0.35900564035E+03  0.41288476479E+03  0.12498779540E+03 0.  0.
          5    1    3    3  501    0 -0.69390055139E+02 -0.16612424289E+03 -0.52726705696E+03  0.55717580994E+03  0.47000000000E+01 0.  1.
         -5    1    3    3    0  501  0.14449028376E+00  0.20618634960E+02 -0.34518403901E+02  0.40481590790E+02  0.47000000000E+01 0.  1.
          5    1    4    4  502    0  0.77366303887E+02  0.48815360682E+02 -0.96836024542E+02  0.13329587415E+03  0.47000000000E+01 0. -1.
         -5    1    4    4    0  502 -0.81207390318E+01  0.96690247245E+02 -0.26216961581E+03  0.27958889064E+03  0.47000000000E+01 0. -1.
<mgrwt>
<rscale>  0 0.41634026E+03</rscale>
<asrwt>0</asrwt>
<pdfrwt beam="1">  1       21 0.69039282E-02 0.41634026E+03</pdfrwt>
<pdfrwt beam="2">  1       21 0.14856409E+00 0.41634026E+03</pdfrwt>
<totfact> 0.43433346E+04</totfact>
</mgrwt>
</event>
<event>
 8    1  0.9529436E-006  0.3201170E+03  0.7546771E-02  0.1075595E+00
         21   -1    0    0  504  503  0.00000000000E+00  0.00000000000E+00  0.79645234458E+02  0.79645234458E+02  0.00000000000E+00 0.  1.
         21   -1    0    0  503  504 -0.00000000000E+00 -0.00000000000E+00 -0.32166051179E+03  0.32166051179E+03  0.00000000000E+00 0.  1.
         25    2    1    2    0    0  0.77028709404E+02  0.63670512818E+02 -0.12437445145E+03  0.20268269954E+03  0.12499566490E+03 0.  0.
         25    2    1    2    0    0 -0.77028709404E+02 -0.63670512818E+02 -0.11764082588E+03  0.19862304671E+03  0.12499757796E+03 0.  0.
          5    1    3    3  501    0  0.49805435260E+02  0.99724857398E+02 -0.10531602489E+03  0.15342484696E+03  0.47000000000E+01 0.  1.
         -5    1    3    3    0  501  0.27223274144E+02 -0.36054344580E+02 -0.19058426563E+02  0.49257852585E+02  0.47000000000E+01 0.  1.
          5    1    4    4  502    0 -0.97526043682E+02 -0.78790653651E+02 -0.68185507991E+02  0.14279583257E+03  0.47000000000E+01 0. -1.
         -5    1    4    4    0  502  0.20497334278E+02  0.15120140833E+02 -0.49455317887E+02  0.55827214140E+02  0.47000000000E+01 0. -1.
<mgrwt>
<rscale>  0 0.32011702E+03</rscale>
<asrwt>0</asrwt>
<pdfrwt beam="1">  1       21 0.12253113E-01 0.32011702E+03</pdfrwt>
<pdfrwt beam="2">  1       21 0.49486234E-01 0.32011702E+03</pdfrwt>
<totfact> 0.21296188E+05</totfact>
</mgrwt>
</event>
<event>
 8    1  0.9529436E-006  0.3658202E+03  0.7546771E-02  0.1056303E+00
         21   -1    0    0  504  503  0.00000000000E+00  0.00000000000E+00  0.37952439947E+03  0.37952439947E+03  0.00000000000E+00 0. -1.
         21   -1    0    0  503  504 -0.00000000000E+00 -0.00000000000E+00 -0.88152726164E+02  0.88152726164E+02  0.00000000000E+00 0. -1.
         25    2    1    2    0    0 -0.10018459329E+03  0.26609898194E+02  0.25332576199E+03  0.30090395815E+03  0.12499684365E+03 0.  0.
         25    2    1    2    0    0  0.10018459329E+03 -0.26609898194E+02  0.38045911310E+02  0.16677316749E+03  0.12498303329E+03 0.  0.
          5    1    3    3  501    0 -0.27209101047E+02  0.43060220767E+02  0.18482741530E+02  0.54389516699E+02  0.47000000000E+01 0. -1.
         -5    1    3    3    0  501 -0.72975492244E+02 -0.16450322573E+02  0.23484302046E+03  0.24651444145E+03  0.47000000000E+01 0. -1.
          5    1    4    4  502    0 -0.44063986434E+00 -0.32891414714E+02  0.55166441576E+02  0.64400819883E+02  0.47000000000E+01 0.  1.
         -5    1    4    4    0  502  0.10062523316E+03  0.62815165195E+01 -0.17120530266E+02  0.10237234760E+03  0.47000000000E+01 0.  1.
<mgrwt>
<rscale>  0 0.36582023E+03</rscale>
<asrwt>0</asrwt>
<pdfrwt beam="1">  1       21 0.58388369E-01 0.36582023E+03</pdfrwt>
<pdfrwt beam="2">  1       21 0.13561958E-01 0.36582023E+03</pdfrwt>
<totfact> 0.12306622E+05</totfact>
</mgrwt>
</event>
<event>
 8    1  0.9529436E-006  0.2636444E+03  0.7546771E-02  0.1104973E+00
         21   -1    0    0  504  503  0.00000000000E+00  0.00000000000E+00  0.12193432812E+03  0.12193432812E+03  0.00000000000E+00 0.  1.
         21   -1    0    0  503  504 -0.00000000000E+00 -0.00000000000E+00 -0.14251187644E+03  0.14251187644E+03  0.00000000000E+00 0.  1.
         25    2    1    2    0    0 -0.19204500118E+02 -0.16858898624E+02  0.22953466252E+02  0.12963225026E+03  0.12499849361E+03 0.  0.
         25    2    1    2    0    0  0.19204500118E+02  0.16858898624E+02 -0.43531014565E+02  0.13481395430E+03  0.12500727082E+03 0.  0.
          5    1    3    3  501    0 -0.14883614756E+02 -0.87294262223E+01 -0.51473133557E+02  0.54491268554E+02  0.47000000000E+01 0.  1.
         -5    1    3    3    0  501 -0.43208853619E+01 -0.81294724016E+01  0.74426599809E+02  0.75140981701E+02  0.47000000000E+01 0.  1.
          5    1    4    4  502    0  0.21677191556E+02  0.28040300975E+02  0.38100978029E+02  0.52248766869E+02  0.47000000000E+01 0.  1.
         -5    1    4    4    0  502 -0.24726914376E+01 -0.11181402351E+02 -0.81631992594E+02  0.82565187436E+02  0.47000000000E+01 0.  1.
<mgrwt>
<rscale>  0 0.26364438E+03</rscale>
<asrwt>0</asrwt>
<pdfrwt beam="1">  1       21 0.18759127E-01 0.26364438E+03</pdfrwt>
<pdfrwt beam="2">  1       21 0.21924904E-01 0.26364438E+03</pdfrwt>
<totfact> 0.49845580E+05</totfact>
</mgrwt>
</event>
<event>
 8    1  0.9529436E-006  0.3247686E+03  0.7546771E-02  0.1073475E+00
         21   -1    0    0  504  503  0.00000000000E+00  0.00000000000E+00  0.25680090763E+03  0.25680090763E+03  0.00000000000E+00 0.  1.
         21   -1    0    0  503  504 -0.00000000000E+00 -0.00000000000E+00 -0.10268134263E+03  0.10268134263E+03  0.00000000000E+00 0.  1.
         25    2    1    2    0    0  0.65200796575E+02 -0.61502788090E+02  0.19458193751E+02  0.15503965733E+03  0.12499974890E+03 0.  0.
         25    2    1    2    0    0 -0.65200796575E+02  0.61502788090E+02  0.13466137124E+03  0.20444259293E+03  0.12501740712E+03 0.  0.
          5    1    3    3  501    0  0.79620875811E+02 -0.77280791926E+01 -0.24667695117E+02  0.83843856396E+02  0.47000000000E+01 0.  1.
         -5    1    3    3    0  501 -0.14420079236E+02 -0.53774708898E+02  0.44125888868E+02  0.71195800933E+02  0.47000000000E+01 0.  1.
          5    1    4    4  502    0  0.36081995051E+02  0.30716240838E+02  0.36474132534E+02  0.59982082010E+02  0.47000000000E+01 0. -1.
         -5    1    4    4    0  502 -0.10128279163E+03  0.30786547252E+02  0.98187238709E+02  0.14446051093E+03  0.47000000000E+01 0. -1.
<mgrwt>
<rscale>  0 0.32476861E+03</rscale>
<asrwt>0</asrwt>
<pdfrwt beam="1">  1       21 0.39507832E-01 0.32476861E+03</pdfrwt>
<pdfrwt beam="2">  1       21 0.15797130E-01 0.32476861E+03</pdfrwt>
<totfact> 0.21317313E+05</totfact>
</mgrwt>
</event>
<event>
 8    1  0.9529436E-006  0.2849803E+03  0.7546771E-02  0.1092999E+00
         21   -1    0    0  504  503  0.00000000000E+00  0.00000000000E+00  0.64902980334E+02  0.64902980334E+02  0.00000000000E+00 0.  1.
         21   -1    0    0  503  504 -0.00000000000E+00 -0.00000000000E+00 -0.31282759439E+03  0.31282759439E+03  0.00000000000E+00 0.  1.
         25    2    1    2    0    0 -0.65948559060E+02 -0.14276401166E+02 -0.10913637001E+03  0.17913412667E+03  0.12500104001E+03 0.  0.
         25    2    1    2    0    0  0.65948559060E+02  0.14276401166E+02 -0.13878824405E+03  0.19859644806E+03  0.12500137769E+03 0.  0.
          5    1    3    3  501    0 -0.19700791500E+01 -0.25177389686E+02  0.21298531304E+02  0.33369141418E+02  0.47000000000E+01 0. -1.
         -5    1    3    3    0  501 -0.63978479909E+02  0.10900988520E+02 -0.13043490132E+03  0.14576498525E+03  0.47000000000E+01 0. -1.
          5    1    4    4  502    0 -0.34619902763E+02  0.17420883300E+02 -0.55716375688E+02  0.68032561043E+02  0.47000000000E+01 0. -1.
         -5    1    4    4    0  502  0.10056846182E+03 -0.31444821343E+01 -0.83071868358E+02  0.13056388702E+03  0.47000000000E+01 0. -1.
<mgrwt>
<rscale>  0 0.28498030E+03</rscale>
<asrwt>0</asrwt>
<pdfrwt beam="1">  1       21 0.99850738E-02 0.28498030E+03</pdfrwt>
<pdfrwt beam="2">  1       21 0.48127323E-01 0.28498030E+03</pdfrwt>
<totfact> 0.32851428E+05</totfact>
</mgrwt>
</event>
<event>
 8    1  0.9529436E-006  0.3412234E+03  0.7546771E-02  0.1066276E+00
         21   -1    0    0  504  503  0.00000000000E+00  0.00000000000E+00  0.75512197971E+03  0.75512197971E+03  0.00000000000E+00 0.  1.
         21   -1    0    0  503  504 -0.00000000000E+00 -0.00000000000E+00 -0.38547889363E+02  0.38547889363E+02  0.00000000000E+00 0.  1.
         25    2    1    2    0    0 -0.80321588480E+02  0.65152354266E+01  0.16382069419E+03  0.22125919106E+03  0.12499761564E+03 0.  0.
         25    2    1    2    0    0  0.80321588480E+02 -0.65152354266E+01  0.55275339616E+03  0.57241067801E+03  0.12499464576E+03 0.  0.
          5    1    3    3  501    0  0.21587006408E+02 -0.10932344326E+02  0.92095187168E+02  0.95336920957E+02  0.47000000000E+01 0.  1.
         -5    1    3    3    0  501 -0.10190859489E+03  0.17447579752E+02  0.71725507024E+02  0.12592227011E+03  0.47000000000E+01 0.  1.
          5    1    4    4  502    0  0.11771705926E+02 -0.59427772240E+02  0.26474035567E+03  0.27162433450E+03  0.47000000000E+01 0.  1.
         -5    1    4    4    0  502  0.68549882554E+02  0.52912536813E+02  0.28801304049E+03  0.30078634351E+03  0.47000000000E+01 0.  1.
<mgrwt>
<rscale>  0 0.34122344E+03</rscale>
<asrwt>0</asrwt>
<pdfrwt beam="1">  1       21 0.11617260E+00 0.34122344E+03</pdfrwt>
<pdfrwt beam="2">  1       21 0.59304451E-02 0.34122344E+03</pdfrwt>
<totfact> 0.10935111E+05</totfact>
</mgrwt>
</event>
<event>
 8    1  0.9529436E-006  0.3267953E+03  0.7546771E-02  0.1072564E+00
         21   -1    0    0  504  503  0.00000000000E+00  0.00000000000E+00  0.32319600191E+02  0.32319600191E+02  0.00000000000E+00 0.  1.
         21   -1    0    0  503  504 -0.00000000000E+00 -0.00000000000E+00 -0.82608676702E+03  0.82608676702E+03  0.00000000000E+00 0.  1.
         25    2    1    2    0    0  0.36954661653E+01  0.36578387255E+01 -0.12080387258E+03  0.17391149897E+03  0.12499839035E+03 0.  0.
         25    2    1    2    0    0 -0.36954661653E+01 -0.36578387255E+01 -0.67296329425E+03  0.68449486824E+03  0.12500637177E+03 0.  0.
          5    1    3    3  501    0 -0.25908281177E+02  0.57518680385E+02 -0.66188258046E+02  0.91556611612E+02  0.47000000000E+01 0.  1.
         -5    1    3    3    0  501  0.29603747342E+02 -0.53860841659E+02 -0.54615614529E+02  0.82354887356E+02  0.47000000000E+01 0.  1.
          5    1    4    4  502    0  0.13095487215E+02  0.22794360303E+02 -0.63269047517E+03  0.63325382116E+03  0.47000000000E+01 0. -1.
         -5    1    4    4    0  502 -0.16790953380E+02 -0.26452199029E+02 -0.40272819083E+02  0.51241047079E+02  0.47000000000E+01 0. -1.
<mgrwt>
<rscale>  0 0.32679531E+03</rscale>
<asrwt>0</asrwt>
<pdfrwt beam="1">  1       21 0.49722469E-02 0.32679531E+03</pdfrwt>
<pdfrwt beam="2">  1       21 0.12709025E+00 0.32679531E+03</pdfrwt>
<totfact> 0.11851935E+05</totfact>
</mgrwt>
</event>
<event>
 8    1  0.9529436E-006  0.2716320E+03  0.7546771E-02  0.1100349E+00
         21   -1    0    0  504  503  0.00000000000E+00  0.00000000000E+00  0.17282111927E+03  0.17282111927E+03  0.00000000000E+00 0.  1.
         21   -1    0    0  503  504 -0.00000000000E+00 -0.00000000000E+00 -0.10673457357E+03  0.10673457357E+03  0.00000000000E+00 0.  1.
         25    2    1    2    0    0 -0.11597436972E+02 -0.43701273026E+02  0.61757960301E+02  0.14655528463E+03  0.12498041440E+03 0.  0.
         25    2    1    2    0    0  0.11597436972E+02  0.43701273026E+02  0.43285853917E+01  0.13300040821E+03  0.12500428042E+03 0.  0.
          5    1    3    3  501    0  0.32543091111E+02 -0.34500337776E+02 -0.21088475508E+02  0.52116598939E+02  0.47000000000E+01 0. -1.
         -5    1    3    3    0  501 -0.44140528082E+02 -0.92009352494E+01  0.82846435809E+02  0.94438685691E+02  0.47000000000E+01 0. -1.
          5    1    4    4  502    0 -0.29304821144E+02  0.72011273960E+01 -0.48115105722E+02  0.56989316338E+02  0.47000000000E+01 0.  1.
         -5    1    4    4    0  502  0.40902258116E+02  0.36500145630E+02  0.52443691114E+02  0.76011091872E+02  0.47000000000E+01 0.  1.
<mgrwt>
<rscale>  0 0.27163202E+03</rscale>
<asrwt>0</asrwt>
<pdfrwt beam="1">  1       21 0.26587865E-01 0.27163202E+03</pdfrwt>
<pdfrwt beam="2">  1       21 0.16420704E-01 0.27163202E+03</pdfrwt>
<totfact> 0.44050487E+05</totfact>
</mgrwt>
</event>
<event>
 8    1  0.9529436E-006  0.2750198E+03  0.7546771E-02  0.1098441E+00
         21   -1    0    0  504  503  0.00000000000E+00  0.00000000000E+00  0.62270089451E+02  0.62270089451E+02  0.00000000000E+00 0. -1.
         21   -1    0    0  503  504 -0.00000000000E+00 -0.00000000000E+00 -0.30366069423E+03  0.30366069423E+03  0.00000000000E+00 0. -1.
         25    2    1    2    0    0 -0.24471168241E+02 -0.48315516354E+02 -0.14565892426E+03  0.19943393378E+03  0.12499657808E+03 0.  0.
         25    2    1    2    0    0  0.24471168241E+02  0.48315516354E+02 -0.95731680515E+02  0.16649684990E+03  0.12499367654E+03 0.  0.
          5    1    3    3  501    0 -0.49949823410E+02 -0.59079732286E+02 -0.34589503934E+02  0.84875929497E+02  0.47000000000E+01 0.  1.
         -5    1    3    3    0  501  0.25478655169E+02  0.10764215931E+02 -0.11106942033E+03  0.11455800429E+03  0.47000000000E+01 0.  1.
          5    1    4    4  502    0  0.43988863403E+02  0.58261397918E+02 -0.53161424731E+01  0.73346860612E+02  0.47000000000E+01 0.  1.
         -5    1    4    4    0  502 -0.19517695162E+02 -0.99458815636E+01 -0.90415538042E+02  0.93149989286E+02  0.47000000000E+01 0.  1.
<mgrwt>
<rscale>  0 0.27501984E+03</rscale>
<asrwt>0</asrwt>
<pdfrwt beam="1">  1       21 0.95800139E-02 0.27501984E+03</pdfrwt>
<pdfrwt beam="2">  1       21 0.46717029E-01 0.27501984E+03</pdfrwt>
<totfact> 0.37702019E+05</totfact>
</mgrwt>
</event>
<event>
 8    1  0.9529436E-006  0.3170592E+03  0.7546771E-02  0.1077011E+00
         21   -1    0    0  504  503  0.00000000000E+00  0.00000000000E+00  0.18989543130E+03  0.18989543130E+03  0.00000000000E+00 0.  1.
         21   -1    0    0  503  504 -0.00000000000E+00 -0.00000000000E+00 -0.13234462492E+03  0.13234462492E+03  0.00000000000E+00 0.  1.
         25    2    1    2    0    0  0.47943979640E+01 -0.84449969528E+02 -0.20504604163E+02  0.15231627994E+03  0.12500010695E+03 0.  0.
         25    2    1    2    0    0 -0.47943979640E+01  0.84449969528E+02  0.78055410535E+02  0.16992377629E+03  0.12500663594E+03 0.  0.
          5    1    3    3  501    0  0.42492542457E+02 -0.58869812043E+02 -0.58064467695E+02  0.93085140291E+02  0.47000000000E+01 0. -1.
         -5    1    3    3    0  501 -0.37698144493E+02 -0.25580157485E+02  0.37559863532E+02  0.59231139645E+02  0.47000000000E+01 0. -1.
          5    1    4    4  502    0  0.10110681894E+02  0.66809789202E+02 -0.18757931896E+02  0.70283168900E+02  0.47000000000E+01 0. -1.
         -5    1    4    4    0  502 -0.14905079858E+02  0.17640180326E+02  0.96813342431E+02  0.99640607386E+02  0.47000000000E+01 0. -1.
<mgrwt>
<rscale>  0 0.31705924E+03</rscale>
<asrwt>0</asrwt>
<pdfrwt beam="1">  1       21 0.29214682E-01 0.31705924E+03</pdfrwt>
<pdfrwt beam="2">  1       21 0.20360711E-01 0.31705924E+03</pdfrwt>
<totfact> 0.24303960E+05</totfact>
</mgrwt>
</event>
<event>
 8    1  0.9529436E-006  0.2937824E+03  0.7546771E-02  0.1088391E+00
         21   -1    0    0  504  503  0.00000000000E+00  0.00000000000E+00  0.67659753595E+02  0.67659753595E+02  0.00000000000E+00 0. -1.
         21   -1    0    0  503  504 -0.00000000000E+00 -0.00000000000E+00 -0.31890487935E+03  0.31890487935E+03  0.00000000000E+00 0. -1.
         25    2    1    2    0    0  0.73755410545E+01  0.76675522560E+02 -0.13108624756E+03  0.19683223810E+03  0.12500316512E+03 0.  0.
         25    2    1    2    0    0 -0.73755410545E+01 -0.76675522560E+02 -0.12015887819E+03  0.18973239485E+03  0.12500676494E+03 0.  0.
          5    1    3    3  501    0 -0.41878525624E+02  0.91602852077E+01 -0.22393105285E+01  0.43183633997E+02  0.47000000000E+01 0.  1.
         -5    1    3    3    0  501  0.49254066679E+02  0.67515237353E+02 -0.12884693703E+03  0.15364860410E+03  0.47000000000E+01 0.  1.
          5    1    4    4  502    0  0.16047027006E+02  0.10424031062E+02  0.16652346657E+02  0.25798413682E+02  0.47000000000E+01 0.  1.
         -5    1    4    4    0  502 -0.23422568061E+02 -0.87099553622E+02 -0.13681122485E+03  0.16393398116E+03  0.47000000000E+01 0.  1.
<mgrwt>
<rscale>  0 0.29378241E+03</rscale>
<asrwt>0</asrwt>
<pdfrwt beam="1">  1       21 0.10409193E-01 0.29378241E+03</pdfrwt>
<pdfrwt beam="2">  1       21 0.49062288E-01 0.29378241E+03</pdfrwt>
<totfact> 0.29242323E+05</totfact>
</mgrwt>
</event>
<event>
 8    1  0.9529436E-006  0.5318544E+03  0.7546771E-02  0.1005783E+00
         21   -1    0    0  504  503  0.00000000000E+00  0.00000000000E+00  0.86714614804E+03  0.86714614804E+03  0.00000000000E+00 0.  1.
         21   -1    0    0  503  504 -0.00000000000E+00 -0.00000000000E+00 -0.81551730071E+02  0.81551730071E+02  0.00000000000E+00 0.  1.
         25    2    1    2    0    0 -0.19901922686E+03  0.99872002068E+02  0.26039709283E+03  0.36470963975E+03  0.12499362349E+03 0.  0.
         25    2    1    2    0    0  0.19901922686E+03 -0.99872002068E+02  0.52519732514E+03  0.58398823836E+03  0.12500785076E+03 0.  0.
          5    1    3    3  501    0 -0.18177694607E+03  0.12372966760E+03  0.19964701261E+03  0.29704024712E+03  0.47000000000E+01 0.  1.
         -5    1    3    3    0  501 -0.17242280796E+02 -0.23857665533E+02  0.60750080224E+02  0.67669392631E+02  0.47000000000E+01 0.  1.
          5    1    4    4  502    0  0.26432388231E+02  0.22143443622E+01  0.62858068584E+01  0.27661811879E+02  0.47000000000E+01 0. -1.
         -5    1    4    4    0  502  0.17258683863E+03 -0.10208634643E+03  0.51891151828E+03  0.55632642648E+03  0.47000000000E+01 0. -1.
<mgrwt>
<rscale>  0 0.53185437E+03</rscale>
<asrwt>0</asrwt>
<pdfrwt beam="1">  1       21 0.13340709E+00 0.53185437E+03</pdfrwt>
<pdfrwt beam="2">  1       21 0.12546421E-01 0.53185437E+03</pdfrwt>
<totfact> 0.19254136E+04</totfact>
</mgrwt>
</event>
<event>
 8    1  0.9529436E-006  0.3066299E+03  0.7546771E-02  0.1081973E+00
         21   -1    0    0  504  503  0.00000000000E+00  0.00000000000E+00  0.25028003872E+04  0.25028003872E+04  0.00000000000E+00 0.  1.
         21   -1    0    0  503  504 -0.00000000000E+00 -0.00000000000E+00 -0.93916677341E+01  0.93916677341E+01  0.00000000000E+00 0.  1.
         25    2    1    2    0    0  0.84403206776E+02 -0.27100860171E+02  0.12057762704E+04  0.12154729911E+04  0.12497927756E+03 0.  0.
         25    2    1    2    0    0 -0.84403206776E+02  0.27100860171E+02  0.12876324490E+04  0.12967190638E+04  0.12499859508E+03 0.  0.
          5    1    3    3  501    0  0.32223800726E+02 -0.97493876117E+01  0.10437867311E+04  0.10443401045E+04  0.47000000000E+01 0.  1.
         -5    1    3    3    0  501  0.52179406050E+02 -0.17351472560E+02  0.16198953935E+03  0.17113288660E+03  0.47000000000E+01 0.  1.
          5    1    4    4  502    0  0.17526527002E+02  0.39523509863E+02  0.58411894115E+03  0.58573570353E+03  0.47000000000E+01 0.  1.
         -5    1    4    4    0  502 -0.10192973378E+03 -0.12422649692E+02  0.70351350784E+03  0.71098336026E+03  0.47000000000E+01 0.  1.
<mgrwt>
<rscale>  0 0.30662987E+03</rscale>
<asrwt>0</asrwt>
<pdfrwt beam="1">  1       21 0.38504568E+00 0.30662987E+03</pdfrwt>
<pdfrwt beam="2">  1       21 0.14448740E-02 0.30662987E+03</pdfrwt>
<totfact> 0.20201543E+04</totfact>
</mgrwt>
</event>
<event>
 8    1  0.9529436E-006  0.3661308E+03  0.7546771E-02  0.1056182E+00
         21   -1    0    0  504  503  0.00000000000E+00  0.00000000000E+00  0.61020957814E+03  0.61020957814E+03  0.00000000000E+00 0.  1.
         21   -1    0    0  503  504 -0.00000000000E+00 -0.00000000000E+00 -0.54920387336E+02  0.54920387336E+02  0.00000000000E+00 0.  1.
         25    2    1    2    0    0  0.97365833307E+01  0.70136330111E+02  0.71507344160E+02  0.16047378841E+03  0.12499852256E+03 0.  0.
         25    2    1    2    0    0 -0.97365833307E+01 -0.70136330111E+02  0.48378184665E+03  0.50465617707E+03  0.12497630195E+03 0.  0.
          5    1    3    3  501    0 -0.47983450927E+02  0.81779308357E+00  0.53590899977E+01  0.48516906269E+02  0.47000000000E+01 0.  1.
         -5    1    3    3    0  501  0.57720034257E+02  0.69318537027E+02  0.66148254162E+02  0.11195688214E+03  0.47000000000E+01 0.  1.
          5    1    4    4  502    0 -0.65884128961E+02 -0.26626876561E+02  0.20888933795E+03  0.22069561507E+03  0.47000000000E+01 0. -1.
         -5    1    4    4    0  502  0.56147545630E+02 -0.43509453550E+02  0.27489250870E+03  0.28396056200E+03  0.47000000000E+01 0. -1.
<mgrwt>
<rscale>  0 0.36613083E+03</rscale>
<asrwt>0</asrwt>
<pdfrwt beam="1">  1       21 0.93878392E-01 0.36613083E+03</pdfrwt>
<pdfrwt beam="2">  1       21 0.84492908E-02 0.36613083E+03</pdfrwt>
<totfact> 0.98264420E+04</totfact>
</mgrwt>
</event>
<event>
 8    1  0.9529436E-006  0.2570948E+03  0.7546771E-02  0.1108901E+00
         21   -1    0    0  504  503  0.00000000000E+00  0.00000000000E+00  0.16326629100E+02  0.16326629100E+02  0.00000000000E+00 0. -1.
         21   -1    0    0  503  504 -0.00000000000E+00 -0.00000000000E+00 -0.10121156672E+04  0.10121156672E+04  0.00000000000E+00 0. -1.
         25    2    1    2    0    0  0.17272738154E+01  0.21015223155E+02 -0.58322445562E+03  0.59683899606E+03  0.12498559319E+03 0.  0.
         25    2    1    2    0    0 -0.17272738154E+01 -0.21015223155E+02 -0.41256458245E+03  0.43160330021E+03  0.12500900360E+03 0.  0.
          5    1    3    3  501    0 -0.50903456226E+02  0.13156827441E+02 -0.12751182531E+03  0.13800586784E+03  0.47000000000E+01 0. -1.
         -5    1    3    3    0  501  0.52630730042E+02  0.78583957141E+01 -0.45571263031E+03  0.45883312822E+03  0.47000000000E+01 0. -1.
          5    1    4    4  502    0  0.34039151841E+02 -0.18864872423E+02 -0.35731171371E+02  0.53041058409E+02  0.47000000000E+01 0.  1.
         -5    1    4    4    0  502 -0.35766425657E+02 -0.21503507322E+01 -0.37683341107E+03  0.37856224180E+03  0.47000000000E+01 0.  1.
<mgrwt>
<rscale>  0 0.25709482E+03</rscale>
<asrwt>0</asrwt>
<pdfrwt beam="1">  1       21 0.25117884E-02 0.25709482E+03</pdfrwt>
<pdfrwt beam="2">  1       21 0.15571014E+00 0.25709482E+03</pdfrwt>
<totfact> 0.22412745E+05</totfact>
</mgrwt>
</event>
<event>
 8    1  0.9529436E-006  0.3442874E+03  0.7546771E-02  0.1064984E+00
         21   -1    0    0  504  503  0.00000000000E+00  0.00000000000E+00  0.13112778063E+03  0.13112778063E+03  0.00000000000E+00 0. -1.
         21   -1    0    0  503  504 -0.00000000000E+00 -0.00000000000E+00 -0.22598918381E+03  0.22598918381E+03  0.00000000000E+00 0. -1.
         25    2    1    2    0    0 -0.41633350276E+02  0.53262378694E+02 -0.14820473086E+03  0.20532634837E+03  0.12499620094E+03 0.  0.
         25    2    1    2    0    0  0.41633350276E+02 -0.53262378694E+02  0.53343327675E+02  0.15179061607E+03  0.12499865471E+03 0.  0.
          5    1    3    3  501    0 -0.41291954565E+02  0.24423011710E+01 -0.14856444584E+03  0.15428698880E+03  0.47000000000E+01 0.  1.
         -5    1    3    3    0  501 -0.34139571102E+00  0.50820077523E+02  0.35971498172E+00  0.51039359570E+02  0.47000000000E+01 0.  1.
          5    1    4    4  502    0  0.22175423186E+01 -0.88028948829E+02  0.42632210641E+02  0.97946968866E+02  0.47000000000E+01 0.  1.
         -5    1    4    4    0  502  0.39415807957E+02  0.34766570135E+02  0.10711117034E+02  0.53843647202E+02  0.47000000000E+01 0.  1.
<mgrwt>
<rscale>  0 0.34428744E+03</rscale>
<asrwt>0</asrwt>
<pdfrwt beam="1">  1       21 0.20173505E-01 0.34428744E+03</pdfrwt>
<pdfrwt beam="2">  1       21 0.34767566E-01 0.34428744E+03</pdfrwt>
<totfact> 0.17404906E+05</totfact>
</mgrwt>
</event>
<event>
 8    1  0.9529436E-006  0.5179508E+03  0.7546771E-02  0.1009197E+00
         21   -1    0    0  504  503  0.00000000000E+00  0.00000000000E+00  0.25389292858E+02  0.25389292858E+02  0.00000000000E+00 0.  1.
         21   -1    0    0  503  504 -0.00000000000E+00 -0.00000000000E+00 -0.26415957751E+04  0.26415957751E+04  0.00000000000E+00 0.  1.
         25    2    1    2    0    0 -0.35244176265E+02 -0.11168300876E+03 -0.23082619519E+04  0.23146089196E+04  0.12500386199E+03 0.  0.
         25    2    1    2    0    0  0.35244176265E+02  0.11168300876E+03 -0.30794453034E+03  0.35237614839E+03  0.12499547906E+03 0.  0.
          5    1    3    3  501    0 -0.76798152745E+02 -0.41528070073E+02 -0.13766370697E+04  0.13794108338E+04  0.47000000000E+01 0.  1.
         -5    1    3    3    0  501  0.41553976480E+02 -0.70154938690E+02 -0.93162488227E+03  0.93519808579E+03  0.47000000000E+01 0.  1.
          5    1    4    4  502    0  0.58296871021E+02  0.12583471968E+03 -0.28340524723E+03  0.31555273094E+03  0.47000000000E+01 0. -1.
         -5    1    4    4    0  502 -0.23052694756E+02 -0.14151710915E+02 -0.24539283109E+02  0.36823417452E+02  0.47000000000E+01 0. -1.
<mgrwt>
<rscale>  0 0.51795077E+03</rscale>
<asrwt>0</asrwt>
<pdfrwt beam="1">  1       21 0.39060446E-02 0.51795077E+03</pdfrwt>
<pdfrwt beam="2">  1       21 0.40639940E+00 0.51795077E+03</pdfrwt>
<totfact> 0.24949691E+03</totfact>
</mgrwt>
</event>
<event>
 8    1  0.9529436E-006  0.2811454E+03  0.7546771E-02  0.1095065E+00
         21   -1    0    0  504  503  0.00000000000E+00  0.00000000000E+00  0.65811970789E+02  0.65811970789E+02  0.00000000000E+00 0.  1.
         21   -1    0    0  503  504 -0.00000000000E+00 -0.00000000000E+00 -0.30025976375E+03  0.30025976375E+03  0.00000000000E+00 0.  1.
         25    2    1    2    0    0  0.31121849911E+02  0.14864721464E+02 -0.46553723179E+02  0.13778021547E+03  0.12500643642E+03 0.  0.
         25    2    1    2    0    0 -0.31121849911E+02 -0.14864721464E+02 -0.18789406978E+03  0.22829151908E+03  0.12499322676E+03 0.  0.
          5    1    3    3  501    0  0.53818025643E+02  0.56594920319E+02 -0.44481681304E+02  0.90000415897E+02  0.47000000000E+01 0. -1.
         -5    1    3    3    0  501 -0.22696175732E+02 -0.41730198855E+02 -0.20720418748E+01  0.47779799569E+02  0.47000000000E+01 0. -1.
          5    1    4    4  502    0 -0.49508057914E+02 -0.61548679242E+02 -0.11994555380E+03  0.14369521075E+03  0.47000000000E+01 0.  1.
         -5    1    4    4    0  502  0.18386208003E+02  0.46683957778E+02 -0.67948515980E+02  0.84596308327E+02  0.47000000000E+01 0.  1.
<mgrwt>
<rscale>  0 0.28114542E+03</rscale>
<asrwt>0</asrwt>
<pdfrwt beam="1">  1       21 0.10124919E-01 0.28114542E+03</pdfrwt>
<pdfrwt beam="2">  1       21 0.46193810E-01 0.28114542E+03</pdfrwt>
<totfact> 0.34936597E+05</totfact>
</mgrwt>
</event>
<event>
 8    1  0.9529436E-006  0.3382094E+03  0.7546771E-02  0.1067561E+00
         21   -1    0    0  504  503  0.00000000000E+00  0.00000000000E+00  0.49470084531E+03  0.49470084531E+03  0.00000000000E+00 0.  1.
         21   -1    0    0  503  504 -0.00000000000E+00 -0.00000000000E+00 -0.57805438821E+02  0.57805438821E+02  0.00000000000E+00 0.  1.
         25    2    1    2    0    0 -0.89334597251E+02  0.91180418143E+00  0.10307770538E+03  0.18501831516E+03  0.12500104777E+03 0.  0.
         25    2    1    2    0    0  0.89334597251E+02 -0.91180418143E+00  0.33381770111E+03  0.36748796898E+03  0.12502658963E+03 0.  0.
          5    1    3    3  501    0 -0.33161220036E+02 -0.42263909685E+02 -0.66359175075E+01  0.54332586698E+02  0.47000000000E+01 0.  1.
         -5    1    3    3    0  501 -0.56173377215E+02  0.43175713867E+02  0.10971362289E+03  0.13068572846E+03  0.47000000000E+01 0.  1.
          5    1    4    4  502    0  0.71570377173E+02 -0.54551308671E+02  0.14861816906E+03  0.17380337839E+03  0.47000000000E+01 0. -1.
         -5    1    4    4    0  502  0.17764220078E+02  0.53639504490E+02  0.18519953205E+03  0.19368459058E+03  0.47000000000E+01 0. -1.
<mgrwt>
<rscale>  0 0.33820940E+03</rscale>
<asrwt>0</asrwt>
<pdfrwt beam="1">  1       21 0.76107820E-01 0.33820940E+03</pdfrwt>
<pdfrwt beam="2">  1       21 0.88931447E-02 0.33820940E+03</pdfrwt>
<totfact> 0.14707980E+05</totfact>
</mgrwt>
</event>
<event>
 8    1  0.9529436E-006  0.3089179E+03  0.7546771E-02  0.1080866E+00
         21   -1    0    0  504  503  0.00000000000E+00  0.00000000000E+00  0.24684358756E+03  0.24684358756E+03  0.00000000000E+00 0.  1.
         21   -1    0    0  503  504 -0.00000000000E+00 -0.00000000000E+00 -0.96650559671E+02  0.96650559671E+02  0.00000000000E+00 0.  1.
         25    2    1    2    0    0  0.76520629429E+02  0.42517732793E+02  0.48570742548E+02  0.16014821338E+03  0.12500067555E+03 0.  0.
         25    2    1    2    0    0 -0.76520629429E+02 -0.42517732793E+02  0.10162228534E+03  0.18334593385E+03  0.12500191299E+03 0.  0.
          5    1    3    3  501    0 -0.18528714075E+02  0.53295740076E+02  0.22133092833E+02  0.60792375787E+02  0.47000000000E+01 0. -1.
         -5    1    3    3    0  501  0.95049343504E+02 -0.10778007282E+02  0.26437649715E+02  0.99355837594E+02  0.47000000000E+01 0. -1.
          5    1    4    4  502    0 -0.57292061742E+02  0.37528185598E+02  0.59023866316E+02  0.90535362416E+02  0.47000000000E+01 0.  1.
         -5    1    4    4    0  502 -0.19228567687E+02 -0.80045918391E+02  0.42598419024E+02  0.92810571434E+02  0.47000000000E+01 0.  1.
<mgrwt>
<rscale>  0 0.30891792E+03</rscale>
<asrwt>0</asrwt>
<pdfrwt beam="1">  1       21 0.37975936E-01 0.30891792E+03</pdfrwt>
<pdfrwt beam="2">  1       21 0.14869317E-01 0.30891792E+03</pdfrwt>
<totfact> 0.25914826E+05</totfact>
</mgrwt>
</event>
<event>
 8    1  0.9529436E-006  0.3425808E+03  0.7546771E-02  0.1065702E+00
         21   -1    0    0  504  503  0.00000000000E+00  0.00000000000E+00  0.61002927322E+02  0.61002927322E+02  0.00000000000E+00 0.  1.
         21   -1    0    0  503  504 -0.00000000000E+00 -0.00000000000E+00 -0.48096706020E+03  0.48096706020E+03  0.00000000000E+00 0.  1.
         25    2    1    2    0    0 -0.10722141419E+03  0.77560038727E+01 -0.13650181820E+03  0.21404875025E+03  0.12501013501E+03 0.  0.
         25    2    1    2    0    0  0.10722141419E+03 -0.77560038727E+01 -0.28346231468E+03  0.32792123727E+03  0.12499946701E+03 0.  0.
          5    1    3    3  501    0 -0.13269851846E+03  0.22685038695E+02 -0.10683936584E+03  0.17193093926E+03  0.47000000000E+01 0. -1.
         -5    1    3    3    0  501  0.25477104267E+02 -0.14929034822E+02 -0.29662452354E+02  0.42117810985E+02  0.47000000000E+01 0. -1.
          5    1    4    4  502    0  0.37670492011E+02  0.50438012254E+02 -0.17739290400E+03  0.18829070991E+03  0.47000000000E+01 0. -1.
         -5    1    4    4    0  502  0.69550922183E+02 -0.58194016127E+02 -0.10606941068E+03  0.13963052736E+03  0.47000000000E+01 0. -1.
<mgrwt>
<rscale>  0 0.34258079E+03</rscale>
<asrwt>0</asrwt>
<pdfrwt beam="1">  1       21 0.93850654E-02 0.34258079E+03</pdfrwt>
<pdfrwt beam="2">  1       21 0.73994935E-01 0.34258079E+03</pdfrwt>
<totfact> 0.14231538E+05</totfact>
</mgrwt>
</event>
<event>
 8    1  0.9529436E-006  0.3058279E+03  0.7546771E-02  0.1082363E+00
         21   -1    0    0  504  503  0.00000000000E+00  0.00000000000E+00  0.57809978197E+02  0.57809978197E+02  0.00000000000E+00 0.  1.
         21   -1    0    0  503  504 -0.00000000000E+00 -0.00000000000E+00 -0.40447478055E+03  0.40447478055E+03  0.00000000000E+00 0.  1.
         25    2    1    2    0    0  0.52816479945E+02 -0.70290694394E+02 -0.18099090308E+03  0.23688340303E+03  0.12500270942E+03 0.  0.
         25    2    1    2    0    0 -0.52816479945E+02  0.70290694394E+02 -0.16567389928E+03  0.22540135572E+03  0.12501027152E+03 0.  0.
          5    1    3    3  501    0  0.85172762835E+02 -0.55986060946E+02 -0.79647380930E+02  0.12943969190E+03  0.47000000000E+01 0.  1.
         -5    1    3    3    0  501 -0.32356282890E+02 -0.14304633447E+02 -0.10134352215E+03  0.10744371114E+03  0.47000000000E+01 0.  1.
          5    1    4    4  502    0 -0.63882569515E+02  0.37422005959E+02 -0.21786073768E+02  0.77318252877E+02  0.47000000000E+01 0. -1.
         -5    1    4    4    0  502  0.11066089569E+02  0.32868688435E+02 -0.14388782551E+03  0.14808310284E+03  0.47000000000E+01 0. -1.
<mgrwt>
<rscale>  0 0.30582791E+03</rscale>
<asrwt>0</asrwt>
<pdfrwt beam="1">  1       21 0.88938430E-02 0.30582791E+03</pdfrwt>
<pdfrwt beam="2">  1       21 0.62226888E-01 0.30582791E+03</pdfrwt>
<totfact> 0.23197000E+05</totfact>
</mgrwt>
</event>
<event>
 8    1  0.9529436E-006  0.3340654E+03  0.7546771E-02  0.1069352E+00
         21   -1    0    0  504  503  0.00000000000E+00  0.00000000000E+00  0.10030444302E+03  0.10030444302E+03  0.00000000000E+00 0.  1.
         21   -1    0    0  503  504 -0.00000000000E+00 -0.00000000000E+00 -0.27815244214E+03  0.27815244214E+03  0.00000000000E+00 0.  1.
         25    2    1    2    0    0 -0.26458779581E+02 -0.10630444934E+03 -0.10772198276E+03  0.19806478982E+03  0.12499972973E+03 0.  0.
         25    2    1    2    0    0  0.26458779581E+02  0.10630444934E+03 -0.70126016355E+02  0.18039209534E+03  0.12499178743E+03 0.  0.
          5    1    3    3  501    0 -0.72209563542E+02 -0.53325311327E+02 -0.33486501964E+02  0.95923123953E+02  0.47000000000E+01 0. -1.
         -5    1    3    3    0  501  0.45750783961E+02 -0.52979138012E+02 -0.74235480799E+02  0.10214166587E+03  0.47000000000E+01 0. -1.
          5    1    4    4  502    0 -0.24448271918E+02  0.39665392134E+02 -0.83117737340E+02  0.95402880425E+02  0.47000000000E+01 0. -1.
         -5    1    4    4    0  502  0.50907051499E+02  0.66639057204E+02  0.12991720985E+02  0.84989214913E+02  0.47000000000E+01 0. -1.
<mgrwt>
<rscale>  0 0.33406542E+03</rscale>
<asrwt>0</asrwt>
<pdfrwt beam="1">  1       21 0.15431453E-01 0.33406542E+03</pdfrwt>
<pdfrwt beam="2">  1       21 0.42792684E-01 0.33406542E+03</pdfrwt>
<totfact> 0.18856259E+05</totfact>
</mgrwt>
</event>
<event>
 8    1  0.9529436E-006  0.2728091E+03  0.7546771E-02  0.1099683E+00
         21   -1    0    0  504  503  0.00000000000E+00  0.00000000000E+00  0.64669227285E+02  0.64669227285E+02  0.00000000000E+00 0. -1.
         21   -1    0    0  503  504 -0.00000000000E+00 -0.00000000000E+00 -0.28771347412E+03  0.28771347412E+03  0.00000000000E+00 0. -1.
         25    2    1    2    0    0  0.11828074218E+02  0.49267961902E+02 -0.85357796967E+02  0.15964051219E+03  0.12502761383E+03 0.  0.
         25    2    1    2    0    0 -0.11828074218E+02 -0.49267961902E+02 -0.13768644986E+03  0.19274218921E+03  0.12499903046E+03 0.  0.
          5    1    3    3  501    0  0.18340424009E+02 -0.27719337362E+02 -0.74194084532E+02  0.81434544244E+02  0.47000000000E+01 0.  1.
         -5    1    3    3    0  501 -0.65123497914E+01  0.76987299264E+02 -0.11163712435E+02  0.78205967951E+02  0.47000000000E+01 0.  1.
          5    1    4    4  502    0 -0.13897599113E+02 -0.15976114419E+02  0.21196497903E+02  0.30327561992E+02  0.47000000000E+01 0. -1.
         -5    1    4    4    0  502  0.20695248950E+01 -0.33291847483E+02 -0.15888294777E+03  0.16241462722E+03  0.47000000000E+01 0. -1.
<mgrwt>
<rscale>  0 0.27280915E+03</rscale>
<asrwt>0</asrwt>
<pdfrwt beam="1">  1       21 0.99491120E-02 0.27280915E+03</pdfrwt>
<pdfrwt beam="2">  1       21 0.44263611E-01 0.27280915E+03</pdfrwt>
<totfact> 0.39442155E+05</totfact>
</mgrwt>
</event>
<event>
 8    1  0.9529436E-006  0.3883601E+03  0.7546771E-02  0.1047886E+00
         21   -1    0    0  504  503  0.00000000000E+00  0.00000000000E+00  0.73504545071E+03  0.73504545071E+03  0.00000000000E+00 0. -1.
         21   -1    0    0  503  504 -0.00000000000E+00 -0.00000000000E+00 -0.51297361320E+02  0.51297361320E+02  0.00000000000E+00 0. -1.
         25    2    1    2    0    0  0.11995955862E+03  0.79009413271E+02  0.41905830654E+03  0.46027710374E+03  0.12494944920E+03 0.  0.
         25    2    1    2    0    0 -0.11995955862E+03 -0.79009413271E+02  0.26468978284E+03  0.32606570829E+03  0.12500152755E+03 0.  0.
          5    1    3    3  501    0  0.12286243471E+03  0.38191142957E+02  0.38767164215E+03  0.40849128925E+03  0.47000000000E+01 0.  1.
         -5    1    3    3    0  501 -0.29028760917E+01  0.40818270314E+02  0.31386664390E+02  0.51785814492E+02  0.47000000000E+01 0.  1.
          5    1    4    4  502    0 -0.43112543518E+02 -0.68066716077E+02  0.22442344310E+03  0.23849474011E+03  0.47000000000E+01 0.  1.
         -5    1    4    4    0  502 -0.76847015098E+02 -0.10942697194E+02  0.40266339742E+02  0.87570968177E+02  0.47000000000E+01 0.  1.
<mgrwt>
<rscale>  0 0.38836010E+03</rscale>
<asrwt>0</asrwt>
<pdfrwt beam="1">  1       21 0.11308391E+00 0.38836010E+03</pdfrwt>
<pdfrwt beam="2">  1       21 0.78919023E-02 0.38836010E+03</pdfrwt>
<totfact> 0.70083714E+04</totfact>
</mgrwt>
</event>
<event>
 8    1  0.9529436E-006  0.3107419E+03  0.7546771E-02  0.1079991E+00
         21   -1    0    0  504  503  0.00000000000E+00  0.00000000000E+00  0.35975243348E+02  0.35975243348E+02  0.00000000000E+00 0. -1.
         21   -1    0    0  503  504 -0.00000000000E+00 -0.00000000000E+00 -0.67102083155E+03  0.67102083155E+03  0.00000000000E+00 0. -1.
         25    2    1    2    0    0 -0.21400056037E+02  0.26790761663E+02 -0.12260454373E+03  0.17841792629E+03  0.12500149988E+03 0.  0.
         25    2    1    2    0    0  0.21400056037E+02 -0.26790761663E+02 -0.51244104447E+03  0.52857814860E+03  0.12499331106E+03 0.  0.
          5    1    3    3  501    0  0.85563831077E+01  0.68292009258E+01 -0.13833919170E+03  0.13885125724E+03  0.47000000000E+01 0.  1.
         -5    1    3    3    0  501 -0.29956439144E+02  0.19961560738E+02  0.15734647972E+02  0.39566669055E+02  0.47000000000E+01 0.  1.
          5    1    4    4  502    0 -0.30615124109E+02  0.21335942659E+02 -0.61577208548E+02  0.72155047543E+02  0.47000000000E+01 0.  1.
         -5    1    4    4    0  502  0.52015180145E+02 -0.48126704323E+02 -0.45086383592E+03  0.45642310106E+03  0.47000000000E+01 0.  1.
<mgrwt>
<rscale>  0 0.31074194E+03</rscale>
<asrwt>0</asrwt>
<pdfrwt beam="1">  1       21 0.55346532E-02 0.31074194E+03</pdfrwt>
<pdfrwt beam="2">  1       21 0.10323397E+00 0.31074194E+03</pdfrwt>
<totfact> 0.16598035E+05</totfact>
</mgrwt>
</event>
<event>
 8    1  0.9529436E-006  0.7280672E+03  0.7546771E-02  0.9670402E-01
         21   -1    0    0  504  503  0.00000000000E+00  0.00000000000E+00  0.27995142880E+03  0.27995142880E+03  0.00000000000E+00 0. -1.
         21   -1    0    0  503  504 -0.00000000000E+00 -0.00000000000E+00 -0.47336942860E+03  0.47336942860E+03  0.00000000000E+00 0. -1.
         25    2    1    2    0    0  0.12104547163E+03 -0.29419443390E+03 -0.22635491354E+03  0.40995517814E+03  0.12499732023E+03 0.  0.
         25    2    1    2    0    0 -0.12104547163E+03  0.29419443390E+03  0.32936913746E+02  0.34336567926E+03  0.12495110351E+03 0.  0.
          5    1    3    3  501    0  0.19352098792E+02 -0.12837284226E+03 -0.29601778628E+02  0.13323830401E+03  0.47000000000E+01 0.  1.
         -5    1    3    3    0  501  0.10169337284E+03 -0.16582159163E+03 -0.19675313491E+03  0.27671687413E+03  0.47000000000E+01 0.  1.
          5    1    4    4  502    0 -0.73480844129E+02  0.28200527900E+03  0.37349636093E+02  0.29384264012E+03  0.47000000000E+01 0.  1.
         -5    1    4    4    0  502 -0.47564627504E+02  0.12189154895E+02 -0.44127223467E+01  0.49523039135E+02  0.47000000000E+01 0.  1.
<mgrwt>
<rscale>  0 0.72806716E+03</rscale>
<asrwt>0</asrwt>
<pdfrwt beam="1">  1       21 0.43069451E-01 0.72806716E+03</pdfrwt>
<pdfrwt beam="2">  1       21 0.72826065E-01 0.72806716E+03</pdfrwt>
<totfact> 0.73152623E+03</totfact>
</mgrwt>
</event>
<event>
 8    1  0.9529436E-006  0.2927173E+03  0.7546771E-02  0.1088939E+00
         21   -1    0    0  504  503  0.00000000000E+00  0.00000000000E+00  0.31111294258E+03  0.31111294258E+03  0.00000000000E+00 0. -1.
         21   -1    0    0  503  504 -0.00000000000E+00 -0.00000000000E+00 -0.68852360875E+02  0.68852360875E+02  0.00000000000E+00 0. -1.
         25    2    1    2    0    0  0.11059412116E+02  0.12571680541E+02  0.24753554269E+02  0.12852611726E+03  0.12500346644E+03 0.  0.
         25    2    1    2    0    0 -0.11059412116E+02 -0.12571680541E+02  0.21750702743E+03  0.25143918619E+03  0.12502799536E+03 0.  0.
          5    1    3    3  501    0  0.24718014598E+02  0.63431245435E+02 -0.39734724902E+01  0.68354821533E+02  0.47000000000E+01 0.  1.
         -5    1    3    3    0  501 -0.13658602482E+02 -0.50859564895E+02  0.28727026759E+02  0.60171295727E+02  0.47000000000E+01 0.  1.
          5    1    4    4  502    0  0.44699908068E+02 -0.35440263869E+02  0.60928723564E+02  0.83597209520E+02  0.47000000000E+01 0.  1.
         -5    1    4    4    0  502 -0.55759320185E+02  0.22868583329E+02  0.15657830387E+03  0.16784197667E+03  0.47000000000E+01 0.  1.
<mgrwt>
<rscale>  0 0.29271734E+03</rscale>
<asrwt>0</asrwt>
<pdfrwt beam="1">  1       21 0.47863529E-01 0.29271734E+03</pdfrwt>
<pdfrwt beam="2">  1       21 0.10592671E-01 0.29271734E+03</pdfrwt>
<totfact> 0.29857661E+05</totfact>
</mgrwt>
</event>
<event>
 8    1  0.9529436E-006  0.2943203E+03  0.7546771E-02  0.1088115E+00
         21   -1    0    0  504  503  0.00000000000E+00  0.00000000000E+00  0.20596335751E+03  0.20596335751E+03  0.00000000000E+00 0.  1.
         21   -1    0    0  503  504 -0.00000000000E+00 -0.00000000000E+00 -0.10514547468E+03  0.10514547468E+03  0.00000000000E+00 0.  1.
         25    2    1    2    0    0  0.13854855629E+02 -0.45747273856E+02 -0.14288816699E+02  0.13457796857E+03  0.12498915654E+03 0.  0.
         25    2    1    2    0    0 -0.13854855629E+02  0.45747273856E+02  0.11510669953E+03  0.17653086363E+03  0.12501529285E+03 0.  0.
          5    1    3    3  501    0  0.61521939478E+02 -0.55416093904E+02 -0.20197620775E+02  0.85357638122E+02  0.47000000000E+01 0.  1.
         -5    1    3    3    0  501 -0.47667083849E+02  0.96688200475E+01  0.59088040769E+01  0.49220330448E+02  0.47000000000E+01 0.  1.
          5    1    4    4  502    0 -0.35954738639E+02  0.46868872632E+02  0.36540049425E-01  0.59258128451E+02  0.47000000000E+01 0.  1.
         -5    1    4    4    0  502  0.22099883010E+02 -0.11215987755E+01  0.11507015948E+03  0.11727273517E+03  0.47000000000E+01 0.  1.
<mgrwt>
<rscale>  0 0.29432034E+03</rscale>
<asrwt>0</asrwt>
<pdfrwt beam="1">  1       21 0.31686670E-01 0.29432034E+03</pdfrwt>
<pdfrwt beam="2">  1       21 0.16176227E-01 0.29432034E+03</pdfrwt>
<totfact> 0.31980523E+05</totfact>
</mgrwt>
</event>
<event>
 8    1  0.9529436E-006  0.3803300E+03  0.7546771E-02  0.1050812E+00
         21   -1    0    0  504  503  0.00000000000E+00  0.00000000000E+00  0.11464834114E+03  0.11464834114E+03  0.00000000000E+00 0.  1.
         21   -1    0    0  503  504 -0.00000000000E+00 -0.00000000000E+00 -0.31542296119E+03  0.31542296119E+03  0.00000000000E+00 0.  1.
         25    2    1    2    0    0  0.12780861841E+03 -0.57183849756E+02 -0.13491631385E+03  0.23115400815E+03  0.12499891252E+03 0.  0.
         25    2    1    2    0    0 -0.12780861841E+03  0.57183849756E+02 -0.65858306205E+02  0.19891729418E+03  0.12500295122E+03 0.  0.
          5    1    3    3  501    0  0.98791757946E+02 -0.83588809055E+02 -0.52457293209E+02  0.13971670640E+03  0.47000000000E+01 0. -1.
         -5    1    3    3    0  501  0.29016860461E+02  0.26404959299E+02 -0.82459020636E+02  0.91437301748E+02  0.47000000000E+01 0. -1.
          5    1    4    4  502    0 -0.65326509562E+02 -0.31430301233E+02 -0.13398233146E+01  0.72658804103E+02  0.47000000000E+01 0. -1.
         -5    1    4    4    0  502 -0.62482108846E+02  0.88614150989E+02 -0.64518482890E+02  0.12625849007E+03  0.47000000000E+01 0. -1.
<mgrwt>
<rscale>  0 0.38032996E+03</rscale>
<asrwt>0</asrwt>
<pdfrwt beam="1">  1       21 0.17638207E-01 0.38032996E+03</pdfrwt>
<pdfrwt beam="2">  1       21 0.48526608E-01 0.38032996E+03</pdfrwt>
<totfact> 0.11199676E+05</totfact>
</mgrwt>
</event>
<event>
 8    1  0.9529436E-006  0.2771177E+03  0.7546771E-02  0.1097274E+00
         21   -1    0    0  504  503  0.00000000000E+00  0.00000000000E+00  0.65475262903E+02  0.65475262903E+02  0.00000000000E+00 0.  1.
         21   -1    0    0  503  504 -0.00000000000E+00 -0.00000000000E+00 -0.29321850086E+03  0.29321850086E+03  0.00000000000E+00 0.  1.
         25    2    1    2    0    0 -0.49364227693E+01 -0.44104988427E+02 -0.16570276728E+03  0.21225288839E+03  0.12499705305E+03 0.  0.
         25    2    1    2    0    0  0.49364227693E+01  0.44104988427E+02 -0.62040470679E+02  0.14644087538E+03  0.12500516671E+03 0.  0.
          5    1    3    3  501    0 -0.18235944320E+02 -0.26570669853E+01 -0.16736194882E+03  0.16843907380E+03  0.47000000000E+01 0.  1.
         -5    1    3    3    0  501  0.13299521551E+02 -0.41447921442E+02  0.16591815423E+01  0.43813814588E+02  0.47000000000E+01 0.  1.
          5    1    4    4  502    0  0.49571840851E+02 -0.12077318458E+00  0.99406248934E+01  0.50776845263E+02  0.47000000000E+01 0. -1.
         -5    1    4    4    0  502 -0.44635418082E+02  0.44225761612E+02 -0.71981095573E+02  0.95664030112E+02  0.47000000000E+01 0. -1.
<mgrwt>
<rscale>  0 0.27711773E+03</rscale>
<asrwt>0</asrwt>
<pdfrwt beam="1">  1       21 0.10073117E-01 0.27711773E+03</pdfrwt>
<pdfrwt beam="2">  1       21 0.45110539E-01 0.27711773E+03</pdfrwt>
<totfact> 0.37067144E+05</totfact>
</mgrwt>
</event>
<event>
 8    1  0.9529436E-006  0.4075000E+03  0.7546771E-02  0.1041213E+00
         21   -1    0    0  504  503  0.00000000000E+00  0.00000000000E+00  0.13994675250E+03  0.13994675250E+03  0.00000000000E+00 0. -1.
         21   -1    0    0  503  504 -0.00000000000E+00 -0.00000000000E+00 -0.29664181912E+03  0.29664181912E+03  0.00000000000E+00 0. -1.
         25    2    1    2    0    0 -0.64309252030E+02 -0.13228725955E+03 -0.84350186855E+01  0.19319708341E+03  0.12497345543E+03 0.  0.
         25    2    1    2    0    0  0.64309252030E+02  0.13228725955E+03 -0.14826004793E+03  0.24339148821E+03  0.12499110282E+03 0.  0.
          5    1    3    3  501    0 -0.62389760517E+02 -0.56052249496E+01 -0.19905535057E+02  0.65895531639E+02  0.47000000000E+01 0. -1.
         -5    1    3    3    0  501 -0.19194915135E+01 -0.12668203460E+03  0.11470516372E+02  0.12730155177E+03  0.47000000000E+01 0. -1.
          5    1    4    4  502    0  0.78888274848E+02  0.10687246252E+03 -0.52112029455E+02  0.14276847259E+03  0.47000000000E+01 0. -1.
         -5    1    4    4    0  502 -0.14579022818E+02  0.25414797031E+02 -0.96148018474E+02  0.10062301561E+03  0.47000000000E+01 0. -1.
<mgrwt>
<rscale>  0 0.40749998E+03</rscale>
<asrwt>0</asrwt>
<pdfrwt beam="1">  1       21 0.21530270E-01 0.40749998E+03</pdfrwt>
<pdfrwt beam="2">  1       21 0.45637203E-01 0.40749998E+03</pdfrwt>
<totfact> 0.86854209E+04</totfact>
</mgrwt>
</event>
<event>
 8    1  0.9529436E-006  0.2900072E+03  0.7546771E-02  0.1090345E+00
         21   -1    0    0  504  503  0.00000000000E+00  0.00000000000E+00  0.14575758932E+03  0.14575758932E+03  0.00000000000E+00 0.  1.
         21   -1    0    0  503  504 -0.00000000000E+00 -0.00000000000E+00 -0.14425348729E+03  0.14425348729E+03  0.00000000000E+00 0.  1.
         25    2    1    2    0    0  0.11218313245E+02 -0.66685429831E+02  0.29522001119E+02  0.14515140145E+03  0.12499833474E+03 0.  0.
         25    2    1    2    0    0 -0.11218313245E+02  0.66685429831E+02 -0.28017899092E+02  0.14485967516E+03  0.12500610271E+03 0.  0.
          5    1    3    3  501    0  0.62569769683E+02 -0.48932750071E+02  0.40860710765E+02  0.89448743938E+02  0.47000000000E+01 0.  1.
         -5    1    3    3    0  501 -0.51351456438E+02 -0.17752679760E+02 -0.11338709646E+02  0.55702657508E+02  0.47000000000E+01 0.  1.
          5    1    4    4  502    0 -0.37017629879E+02 -0.14295016891E+02 -0.42701134753E+02  0.58481871883E+02  0.47000000000E+01 0.  1.
         -5    1    4    4    0  502  0.25799316634E+02  0.80980446722E+02  0.14683235661E+02  0.86377803280E+02  0.47000000000E+01 0.  1.
<mgrwt>
<rscale>  0 0.29000718E+03</rscale>
<asrwt>0</asrwt>
<pdfrwt beam="1">  1       21 0.22424244E-01 0.29000718E+03</pdfrwt>
<pdfrwt beam="2">  1       21 0.22192844E-01 0.29000718E+03</pdfrwt>
<totfact> 0.34609505E+05</totfact>
</mgrwt>
</event>
<event>
 8    1  0.9529436E-006  0.3393643E+03  0.7546771E-02  0.1067067E+00
         21   -1    0    0  504  503  0.00000000000E+00  0.00000000000E+00  0.59615174051E+03  0.59615174051E+03  0.00000000000E+00 0. -1.
         21   -1    0    0  503  504 -0.00000000000E+00 -0.00000000000E+00 -0.48296489539E+02  0.48296489539E+02  0.00000000000E+00 0. -1.
         25    2    1    2    0    0  0.94527128978E+02 -0.14083133231E+01  0.39741124871E+03  0.42719821163E+03  0.12500099982E+03 0.  0.
         25    2    1    2    0    0 -0.94527128978E+02  0.14083133231E+01  0.15044400226E+03  0.21725001843E+03  0.12500724471E+03 0.  0.
          5    1    3    3  501    0  0.42420481601E+02 -0.51112136194E+02  0.29170085710E+03  0.29920465865E+03  0.47000000000E+01 0. -1.
         -5    1    3    3    0  501  0.52106647377E+02  0.49703822870E+02  0.10571039161E+03  0.12799355298E+03  0.47000000000E+01 0. -1.
          5    1    4    4  502    0  0.16587479890E+02 -0.29268344809E+02  0.66172539152E+02  0.74381956379E+02  0.47000000000E+01 0. -1.
         -5    1    4    4    0  502 -0.11111460887E+03  0.30676658132E+02  0.84271463111E+02  0.14286806205E+03  0.47000000000E+01 0. -1.
<mgrwt>
<rscale>  0 0.33936433E+03</rscale>
<asrwt>0</asrwt>
<pdfrwt beam="1">  1       21 0.91715647E-01 0.33936433E+03</pdfrwt>
<pdfrwt beam="2">  1       21 0.74302296E-02 0.33936433E+03</pdfrwt>
<totfact> 0.13108771E+05</totfact>
</mgrwt>
</event>
<event>
 8    1  0.9529436E-006  0.3052322E+03  0.7546771E-02  0.1082654E+00
         21   -1    0    0  504  503  0.00000000000E+00  0.00000000000E+00  0.31519325858E+02  0.31519325858E+02  0.00000000000E+00 0.  1.
         21   -1    0    0  503  504 -0.00000000000E+00 -0.00000000000E+00 -0.73896482211E+03  0.73896482211E+03  0.00000000000E+00 0.  1.
         25    2    1    2    0    0  0.55644041280E+02  0.60504427127E+02 -0.42966554923E+03  0.45496550733E+03  0.12499633446E+03 0.  0.
         25    2    1    2    0    0 -0.55644041280E+02 -0.60504427127E+02 -0.27777994702E+03  0.31551864064E+03  0.12503307000E+03 0.  0.
          5    1    3    3  501    0  0.87647467422E+02  0.50698195746E+02 -0.21549318973E+03  0.23814237426E+03  0.47000000000E+01 0. -1.
         -5    1    3    3    0  501 -0.32003426142E+02  0.98062313815E+01 -0.21417235950E+03  0.21682313307E+03  0.47000000000E+01 0. -1.
          5    1    4    4  502    0  0.28359200981E+01 -0.68331894415E+02 -0.64311510570E+02  0.93996545836E+02  0.47000000000E+01 0. -1.
         -5    1    4    4    0  502 -0.58479961379E+02  0.78274672882E+01 -0.21346843645E+03  0.22152209481E+03  0.47000000000E+01 0. -1.
<mgrwt>
<rscale>  0 0.30523219E+03</rscale>
<asrwt>0</asrwt>
<pdfrwt beam="1">  1       21 0.48491270E-02 0.30523219E+03</pdfrwt>
<pdfrwt beam="2">  1       21 0.11368690E+00 0.30523219E+03</pdfrwt>
<totfact> 0.16468231E+05</totfact>
</mgrwt>
</event>
<event>
 8    1  0.9529436E-006  0.2712120E+03  0.7546771E-02  0.1100588E+00
         21   -1    0    0  504  503  0.00000000000E+00  0.00000000000E+00  0.44680783394E+02  0.44680783394E+02  0.00000000000E+00 0. -1.
         21   -1    0    0  503  504 -0.00000000000E+00 -0.00000000000E+00 -0.41156378022E+03  0.41156378022E+03  0.00000000000E+00 0. -1.
         25    2    1    2    0    0  0.46890623066E+02 -0.20940265782E+02 -0.16452804761E+03  0.21291232796E+03  0.12499982275E+03 0.  0.
         25    2    1    2    0    0 -0.46890623066E+02  0.20940265782E+02 -0.20235494922E+03  0.24333223566E+03  0.12500330464E+03 0.  0.
          5    1    3    3  501    0  0.81112270020E+02 -0.13245186003E+02 -0.15618643215E+03  0.17655290110E+03  0.47000000000E+01 0.  1.
         -5    1    3    3    0  501 -0.34221646954E+02 -0.76950797790E+01 -0.83416154553E+01  0.36359426858E+02  0.47000000000E+01 0.  1.
          5    1    4    4  502    0  0.27770300038E+02  0.44484489633E+02 -0.53393335894E+02  0.74986650146E+02  0.47000000000E+01 0. -1.
         -5    1    4    4    0  502 -0.74660923104E+02 -0.23544223852E+02 -0.14896161333E+03  0.16834558551E+03  0.47000000000E+01 0. -1.
<mgrwt>
<rscale>  0 0.27121204E+03</rscale>
<asrwt>0</asrwt>
<pdfrwt beam="1">  1       21 0.68739669E-02 0.27121204E+03</pdfrwt>
<pdfrwt beam="2">  1       21 0.63317503E-01 0.27121204E+03</pdfrwt>
<totfact> 0.35348029E+05</totfact>
</mgrwt>
</event>
<event>
 8    1  0.9529436E-006  0.3027264E+03  0.7546771E-02  0.1083886E+00
         21   -1    0    0  504  503  0.00000000000E+00  0.00000000000E+00  0.79527796801E+03  0.79527796801E+03  0.00000000000E+00 0.  1.
         21   -1    0    0  503  504 -0.00000000000E+00 -0.00000000000E+00 -0.28808560491E+02  0.28808560491E+02  0.00000000000E+00 0.  1.
         25    2    1    2    0    0 -0.30360667295E+02 -0.63938766104E+02  0.51311468206E+03  0.53284109021E+03  0.12499205793E+03 0.  0.
         25    2    1    2    0    0  0.30360667295E+02  0.63938766104E+02  0.25335472546E+03  0.29124543829E+03  0.12500140992E+03 0.  0.
          5    1    3    3  501    0  0.17862392520E+02 -0.28679284772E+02  0.28260516886E+02  0.44298005105E+02  0.47000000000E+01 0. -1.
         -5    1    3    3    0  501 -0.48223059816E+02 -0.35259481332E+02  0.48485416517E+03  0.48854308511E+03  0.47000000000E+01 0. -1.
          5    1    4    4  502    0 -0.35325710459E+02  0.65315576578E+02  0.16535839077E+03  0.18132710157E+03  0.47000000000E+01 0. -1.
         -5    1    4    4    0  502  0.65686377754E+02 -0.13768104740E+01  0.87996334689E+02  0.10991833672E+03  0.47000000000E+01 0. -1.
<mgrwt>
<rscale>  0 0.30272637E+03</rscale>
<asrwt>0</asrwt>
<pdfrwt beam="1">  1       21 0.12235044E+00 0.30272637E+03</pdfrwt>
<pdfrwt beam="2">  1       21 0.44320868E-02 0.30272637E+03</pdfrwt>
<totfact> 0.15993678E+05</totfact>
</mgrwt>
</event>
<event>
 8    1  0.9529436E-006  0.3818524E+03  0.7546771E-02  0.1050251E+00
         21   -1    0    0  504  503  0.00000000000E+00  0.00000000000E+00  0.29518206171E+03  0.29518206171E+03  0.00000000000E+00 0.  1.
         21   -1    0    0  503  504 -0.00000000000E+00 -0.00000000000E+00 -0.12349265511E+03  0.12349265511E+03  0.00000000000E+00 0.  1.
         25    2    1    2    0    0 -0.13114594175E+03  0.23654773827E+02  0.25096828616E+02  0.18442586369E+03  0.12499696808E+03 0.  0.
         25    2    1    2    0    0  0.13114594175E+03 -0.23654773827E+02  0.14659257798E+03  0.23424885312E+03  0.12499733960E+03 0.  0.
          5    1    3    3  501    0 -0.37469864330E+02  0.15402568957E+02 -0.49617309784E+02  0.64227698803E+02  0.47000000000E+01 0.  1.
         -5    1    3    3    0  501 -0.93676077418E+02  0.82522048700E+01  0.74714138400E+02  0.12019816489E+03  0.47000000000E+01 0.  1.
          5    1    4    4  502    0  0.82612692074E+02 -0.75118861439E+02  0.86815206378E+02  0.14151561855E+03  0.47000000000E+01 0. -1.
         -5    1    4    4    0  502  0.48533249675E+02  0.51464087612E+02  0.59777371606E+02  0.92733234570E+02  0.47000000000E+01 0. -1.
<mgrwt>
<rscale>  0 0.38185241E+03</rscale>
<asrwt>0</asrwt>
<pdfrwt beam="1">  1       21 0.45412625E-01 0.38185241E+03</pdfrwt>
<pdfrwt beam="2">  1       21 0.18998870E-01 0.38185241E+03</pdfrwt>
<totfact> 0.11190768E+05</totfact>
</mgrwt>
</event>
<event>
 8    1  0.9529436E-006  0.3271303E+03  0.7546771E-02  0.1072414E+00
         21   -1    0    0  504  503  0.00000000000E+00  0.00000000000E+00  0.56157507696E+03  0.56157507696E+03  0.00000000000E+00 0. -1.
         21   -1    0    0  503  504 -0.00000000000E+00 -0.00000000000E+00 -0.47640208365E+02  0.47640208365E+02  0.00000000000E+00 0. -1.
         25    2    1    2    0    0  0.64837580002E+02 -0.11009677359E+02  0.10335004773E+03  0.17501435303E+03  0.12499466639E+03 0.  0.
         25    2    1    2    0    0 -0.64837580002E+02  0.11009677359E+02  0.41058482086E+03  0.43420093229E+03  0.12500171881E+03 0.  0.
          5    1    3    3  501    0 -0.10988117206E+02  0.37916144599E+02  0.66395515138E+02  0.77387513020E+02  0.47000000000E+01 0. -1.
         -5    1    3    3    0  501  0.75825697208E+02 -0.48925821958E+02  0.36954532595E+02  0.97626840012E+02  0.47000000000E+01 0. -1.
          5    1    4    4  502    0 -0.95398002870E+02  0.22196369814E+02  0.36533456871E+03  0.37826564062E+03  0.47000000000E+01 0.  1.
         -5    1    4    4    0  502  0.30560422868E+02 -0.11186692454E+02  0.45250252155E+02  0.55935291669E+02  0.47000000000E+01 0.  1.
<mgrwt>
<rscale>  0 0.32713027E+03</rscale>
<asrwt>0</asrwt>
<pdfrwt beam="1">  1       21 0.86396161E-01 0.32713027E+03</pdfrwt>
<pdfrwt beam="2">  1       21 0.73292632E-02 0.32713027E+03</pdfrwt>
<totfact> 0.15491668E+05</totfact>
</mgrwt>
</event>
<event>
 8    1  0.9529436E-006  0.1019788E+04  0.7546771E-02  0.9287104E-01
         21   -1    0    0  504  503  0.00000000000E+00  0.00000000000E+00  0.19133569084E+03  0.19133569084E+03  0.00000000000E+00 0.  1.
         21   -1    0    0  503  504 -0.00000000000E+00 -0.00000000000E+00 -0.13588257164E+04  0.13588257164E+04  0.00000000000E+00 0.  1.
         25    2    1    2    0    0 -0.32574449348E+03  0.16204861065E+03 -0.75053845136E+02  0.39196953533E+03  0.12505122834E+03 0.  0.
         25    2    1    2    0    0  0.32574449348E+03 -0.16204861065E+03 -0.10924361804E+04  0.11581918719E+04  0.12498950594E+03 0.  0.
          5    1    3    3  501    0 -0.10709812063E+03  0.10372031301E+03 -0.71941123727E+02  0.16560653989E+03  0.47000000000E+01 0. -1.
         -5    1    3    3    0  501 -0.21864637285E+03  0.58328297643E+02 -0.31127214091E+01  0.22636299543E+03  0.47000000000E+01 0. -1.
          5    1    4    4  502    0  0.20746602391E+02 -0.35753707571E+02 -0.51785540697E+02  0.66427263538E+02  0.47000000000E+01 0.  1.
         -5    1    4    4    0  502  0.30499789109E+03 -0.12629490308E+03 -0.10406506397E+04  0.10917646083E+04  0.47000000000E+01 0.  1.
<mgrwt>
<rscale>  0 0.10197879E+04</rscale>
<asrwt>0</asrwt>
<pdfrwt beam="1">  1       21 0.29436261E-01 0.10197879E+04</pdfrwt>
<pdfrwt beam="2">  1       21 0.20905010E+00 0.10197879E+04</pdfrwt>
<totfact> 0.91924569E+02</totfact>
</mgrwt>
</event>
<event>
 8    1  0.9529436E-006  0.3338157E+03  0.7546771E-02  0.1069461E+00
         21   -1    0    0  504  503  0.00000000000E+00  0.00000000000E+00  0.20870346264E+02  0.20870346264E+02  0.00000000000E+00 0.  1.
         21   -1    0    0  503  504 -0.00000000000E+00 -0.00000000000E+00 -0.13348238256E+04  0.13348238256E+04  0.00000000000E+00 0.  1.
         25    2    1    2    0    0 -0.71036814208E+02  0.74788519002E+02 -0.49490326098E+03  0.52076263409E+03  0.12499972714E+03 0.  0.
         25    2    1    2    0    0  0.71036814208E+02 -0.74788519002E+02 -0.81905021835E+03  0.83493153778E+03  0.12501144364E+03 0.  0.
          5    1    3    3  501    0 -0.15282017510E+02  0.54206624203E+02 -0.62476413523E+02  0.84245417759E+02  0.47000000000E+01 0.  1.
         -5    1    3    3    0  501 -0.55754796697E+02  0.20581894799E+02 -0.43242684746E+03  0.43651721633E+03  0.47000000000E+01 0.  1.
          5    1    4    4  502    0  0.61910054071E+02 -0.71611474351E+02 -0.27684286018E+03  0.29261769817E+03  0.47000000000E+01 0.  1.
         -5    1    4    4    0  502  0.91267601363E+01 -0.31770446518E+01 -0.54220735818E+03  0.54231383960E+03  0.47000000000E+01 0.  1.
<mgrwt>
<rscale>  0 0.33381573E+03</rscale>
<asrwt>0</asrwt>
<pdfrwt beam="1">  1       21 0.32108218E-02 0.33381573E+03</pdfrwt>
<pdfrwt beam="2">  1       21 0.20535756E+00 0.33381573E+03</pdfrwt>
<totfact> 0.65437889E+04</totfact>
</mgrwt>
</event>
<event>
 8    1  0.9529436E-006  0.2695112E+03  0.7546771E-02  0.1101560E+00
         21   -1    0    0  504  503  0.00000000000E+00  0.00000000000E+00  0.12206543157E+03  0.12206543157E+03  0.00000000000E+00 0. -1.
         21   -1    0    0  503  504 -0.00000000000E+00 -0.00000000000E+00 -0.14876507407E+03  0.14876507407E+03  0.00000000000E+00 0. -1.
         25    2    1    2    0    0  0.31131313038E+02  0.14960422854E+02 -0.50165390758E+02  0.13904162343E+03  0.12499213461E+03 0.  0.
         25    2    1    2    0    0 -0.31131313038E+02 -0.14960422854E+02  0.23465748262E+02  0.13178888220E+03  0.12499878090E+03 0.  0.
          5    1    3    3  501    0 -0.12167650055E+02 -0.46224841325E+02 -0.41434110970E+02  0.63432351487E+02  0.47000000000E+01 0.  1.
         -5    1    3    3    0  501  0.43298963093E+02  0.61185264179E+02 -0.87312797882E+01  0.75609271946E+02  0.47000000000E+01 0.  1.
          5    1    4    4  502    0  0.57727293023E+00 -0.11463171511E+02 -0.50022705947E+02  0.51537352041E+02  0.47000000000E+01 0.  1.
         -5    1    4    4    0  502 -0.31708585968E+02 -0.34972513431E+01  0.73488454209E+02  0.80251530160E+02  0.47000000000E+01 0.  1.
<mgrwt>
<rscale>  0 0.26951121E+03</rscale>
<asrwt>0</asrwt>
<pdfrwt beam="1">  1       21 0.18779297E-01 0.26951121E+03</pdfrwt>
<pdfrwt beam="2">  1       21 0.22886934E-01 0.26951121E+03</pdfrwt>
<totfact> 0.45796339E+05</totfact>
</mgrwt>
</event>
<event>
 8    1  0.9529436E-006  0.3923566E+03  0.7546771E-02  0.1046459E+00
         21   -1    0    0  504  503  0.00000000000E+00  0.00000000000E+00  0.10279035423E+03  0.10279035423E+03  0.00000000000E+00 0.  1.
         21   -1    0    0  503  504 -0.00000000000E+00 -0.00000000000E+00 -0.37441174557E+03  0.37441174557E+03  0.00000000000E+00 0.  1.
         25    2    1    2    0    0 -0.13025542399E+03  0.57603560919E+02 -0.19752490702E+03  0.27372520302E+03  0.12499900866E+03 0.  0.
         25    2    1    2    0    0  0.13025542399E+03 -0.57603560919E+02 -0.74096484320E+02  0.20347689679E+03  0.12501165078E+03 0.  0.
          5    1    3    3  501    0  0.21836277132E+02  0.25653824115E+02 -0.35291568882E+02  0.49015574309E+02  0.47000000000E+01 0.  1.
         -5    1    3    3    0  501 -0.15209170112E+03  0.31949736804E+02 -0.16223333814E+03  0.22470962871E+03  0.47000000000E+01 0.  1.
          5    1    4    4  502    0  0.49265949972E+02 -0.89188525735E+02 -0.32980504083E+02  0.10719855689E+03  0.47000000000E+01 0.  1.
         -5    1    4    4    0  502  0.80989474014E+02  0.31584964816E+02 -0.41115980238E+02  0.96278339902E+02  0.47000000000E+01 0.  1.
<mgrwt>
<rscale>  0 0.39235655E+03</rscale>
<asrwt>0</asrwt>
<pdfrwt beam="1">  1       21 0.15813901E-01 0.39235655E+03</pdfrwt>
<pdfrwt beam="2">  1       21 0.57601807E-01 0.39235655E+03</pdfrwt>
<totfact> 0.94914319E+04</totfact>
</mgrwt>
</event>
<event>
 8    1  0.9529436E-006  0.2757948E+03  0.7546771E-02  0.1098008E+00
         21   -1    0    0  504  503  0.00000000000E+00  0.00000000000E+00  0.19360971470E+03  0.19360971470E+03  0.00000000000E+00 0. -1.
         21   -1    0    0  503  504 -0.00000000000E+00 -0.00000000000E+00 -0.98216647340E+02  0.98216647340E+02  0.00000000000E+00 0. -1.
         25    2    1    2    0    0 -0.57415730213E+02  0.40595729135E+01  0.56985750969E+02  0.14895156456E+03  0.12500458617E+03 0.  0.
         25    2    1    2    0    0  0.57415730213E+02 -0.40595729135E+01  0.38407316387E+02  0.14287479748E+03  0.12500015837E+03 0.  0.
          5    1    3    3  501    0 -0.17346412410E+02 -0.37761319921E+01  0.92701465997E+02  0.94502957595E+02  0.47000000000E+01 0. -1.
         -5    1    3    3    0  501 -0.40069317803E+02  0.78357049056E+01 -0.35715715028E+02  0.54448606966E+02  0.47000000000E+01 0. -1.
          5    1    4    4  502    0 -0.33945642057E+02  0.14023586480E+02  0.32779995778E+02  0.49452863574E+02  0.47000000000E+01 0. -1.
         -5    1    4    4    0  502  0.91361372270E+02 -0.18083159394E+02  0.56273206091E+01  0.93421933902E+02  0.47000000000E+01 0. -1.
<mgrwt>
<rscale>  0 0.27579483E+03</rscale>
<asrwt>0</asrwt>
<pdfrwt beam="1">  1       21 0.29786110E-01 0.27579483E+03</pdfrwt>
<pdfrwt beam="2">  1       21 0.15110254E-01 0.27579483E+03</pdfrwt>
<totfact> 0.41110938E+05</totfact>
</mgrwt>
</event>
<event>
 8    1  0.9529436E-006  0.3636528E+03  0.7546771E-02  0.1057147E+00
         21   -1    0    0  504  503  0.00000000000E+00  0.00000000000E+00  0.24776588951E+03  0.24776588951E+03  0.00000000000E+00 0.  1.
         21   -1    0    0  503  504 -0.00000000000E+00 -0.00000000000E+00 -0.13343583491E+03  0.13343583491E+03  0.00000000000E+00 0.  1.
         25    2    1    2    0    0 -0.38169453598E+02 -0.25408734675E+02  0.18696635729E+03  0.22953040668E+03  0.12500111137E+03 0.  0.
         25    2    1    2    0    0  0.38169453598E+02  0.25408734675E+02 -0.72636302689E+02  0.15167131774E+03  0.12500258066E+03 0.  0.
          5    1    3    3  501    0  0.33566199601E+01  0.20984418004E+02 -0.92275032611E+01  0.23639998159E+02  0.47000000000E+01 0.  1.
         -5    1    3    3    0  501 -0.41526073559E+02 -0.46393152679E+02  0.19619386055E+03  0.20589040852E+03  0.47000000000E+01 0.  1.
          5    1    4    4  502    0  0.59122712812E+02  0.30810996300E+02  0.86780702367E+01  0.67395931378E+02  0.47000000000E+01 0.  1.
         -5    1    4    4    0  502 -0.20953259214E+02 -0.54022616255E+01 -0.81314372926E+02  0.84275386363E+02  0.47000000000E+01 0.  1.
<mgrwt>
<rscale>  0 0.36365285E+03</rscale>
<asrwt>0</asrwt>
<pdfrwt beam="1">  1       21 0.38117829E-01 0.36365285E+03</pdfrwt>
<pdfrwt beam="2">  1       21 0.20528590E-01 0.36365285E+03</pdfrwt>
<totfact> 0.13922786E+05</totfact>
</mgrwt>
</event>
<event>
 8    1  0.9529436E-006  0.4502019E+03  0.7546771E-02  0.1027662E+00
         21   -1    0    0  504  503  0.00000000000E+00  0.00000000000E+00  0.16211576586E+03  0.16211576586E+03  0.00000000000E+00 0. -1.
         21   -1    0    0  503  504 -0.00000000000E+00 -0.00000000000E+00 -0.31255706155E+03  0.31255706155E+03  0.00000000000E+00 0. -1.
         25    2    1    2    0    0 -0.29590557569E+02 -0.58576189643E+02  0.10963707962E+03  0.17874932835E+03  0.12499704823E+03 0.  0.
         25    2    1    2    0    0  0.29590557569E+02  0.58576189643E+02 -0.26007837531E+03  0.29592349906E+03  0.12499273941E+03 0.  0.
          5    1    3    3  501    0 -0.75241715132E+02 -0.54690399048E+02  0.58766632238E+02  0.11012702896E+03  0.47000000000E+01 0. -1.
         -5    1    3    3    0  501  0.45651157564E+02 -0.38857905943E+01  0.50870447383E+02  0.68622299381E+02  0.47000000000E+01 0. -1.
          5    1    4    4  502    0 -0.48486198625E+02  0.30041816544E+02 -0.91911715097E+02  0.10827407617E+03  0.47000000000E+01 0. -1.
         -5    1    4    4    0  502  0.78076756194E+02  0.28534373099E+02 -0.16816666021E+03  0.18764942289E+03  0.47000000000E+01 0. -1.
<mgrwt>
<rscale>  0 0.45020185E+03</rscale>
<asrwt>0</asrwt>
<pdfrwt beam="1">  1       21 0.24940887E-01 0.45020185E+03</pdfrwt>
<pdfrwt beam="2">  1       21 0.48085702E-01 0.45020185E+03</pdfrwt>
<totfact> 0.58067867E+04</totfact>
</mgrwt>
</event>
<event>
 8    1  0.9529436E-006  0.2913434E+03  0.7546771E-02  0.1089650E+00
         21   -1    0    0  504  503  0.00000000000E+00  0.00000000000E+00  0.30083382680E+03  0.30083382680E+03  0.00000000000E+00 0.  1.
         21   -1    0    0  503  504 -0.00000000000E+00 -0.00000000000E+00 -0.70538079042E+02  0.70538079042E+02  0.00000000000E+00 0.  1.
         25    2    1    2    0    0 -0.38281625935E+02 -0.25354275184E+01  0.19701888787E+03  0.23646106058E+03  0.12500191885E+03 0.  0.
         25    2    1    2    0    0  0.38281625935E+02  0.25354275184E+01  0.33276859891E+02  0.13491084526E+03  0.12498670125E+03 0.  0.
          5    1    3    3  501    0 -0.20878608031E+02  0.35436253987E+02  0.18923865506E+03  0.19371371387E+03  0.47000000000E+01 0. -1.
         -5    1    3    3    0  501 -0.17403017904E+02 -0.37971681505E+02  0.77802328035E+01  0.42747346713E+02  0.47000000000E+01 0. -1.
          5    1    4    4  502    0 -0.33355173198E+02  0.15835511801E+02  0.47683351211E+02  0.60490685198E+02  0.47000000000E+01 0. -1.
         -5    1    4    4    0  502  0.71636799133E+02 -0.13300084283E+02 -0.14406491320E+02  0.74420160065E+02  0.47000000000E+01 0. -1.
<mgrwt>
<rscale>  0 0.29134337E+03</rscale>
<asrwt>0</asrwt>
<pdfrwt beam="1">  1       21 0.46282126E-01 0.29134337E+03</pdfrwt>
<pdfrwt beam="2">  1       21 0.10852012E-01 0.29134337E+03</pdfrwt>
<totfact> 0.30677506E+05</totfact>
</mgrwt>
</event>
<event>
 8    1  0.9529436E-006  0.2588276E+03  0.7546771E-02  0.1107850E+00
         21   -1    0    0  504  503  0.00000000000E+00  0.00000000000E+00  0.76798220052E+02  0.76798220052E+02  0.00000000000E+00 0.  1.
         21   -1    0    0  503  504 -0.00000000000E+00 -0.00000000000E+00 -0.21807707392E+03  0.21807707392E+03  0.00000000000E+00 0.  1.
         25    2    1    2    0    0 -0.33435377750E+02  0.42565841138E+00 -0.73264016031E+02  0.14869564919E+03  0.12499869749E+03 0.  0.
         25    2    1    2    0    0  0.33435377750E+02 -0.42565841138E+00 -0.68014837842E+02  0.14617964478E+03  0.12499745882E+03 0.  0.
          5    1    3    3  501    0 -0.32905691017E+02  0.12261477239E+02 -0.10695712240E+03  0.11267228744E+03  0.47000000000E+01 0. -1.
         -5    1    3    3    0  501 -0.52968673308E+00 -0.11835818827E+02  0.33693106367E+02  0.36023361753E+02  0.47000000000E+01 0. -1.
          5    1    4    4  502    0  0.11928958979E+01 -0.10252670125E+02  0.35471667435E+02  0.37240695965E+02  0.47000000000E+01 0. -1.
         -5    1    4    4    0  502  0.32242481852E+02  0.98270117137E+01 -0.10348650528E+03  0.10893894882E+03  0.47000000000E+01 0. -1.
<mgrwt>
<rscale>  0 0.25882760E+03</rscale>
<asrwt>0</asrwt>
<pdfrwt beam="1">  1       21 0.11815111E-01 0.25882760E+03</pdfrwt>
<pdfrwt beam="2">  1       21 0.33550319E-01 0.25882760E+03</pdfrwt>
<totfact> 0.50971334E+05</totfact>
</mgrwt>
</event>
<event>
 8    1  0.9529436E-006  0.3362712E+03  0.7546771E-02  0.1068395E+00
         21   -1    0    0  504  503  0.00000000000E+00  0.00000000000E+00  0.12329370633E+04  0.12329370633E+04  0.00000000000E+00 0. -1.
         21   -1    0    0  503  504 -0.00000000000E+00 -0.00000000000E+00 -0.22928649208E+02  0.22928649208E+02  0.00000000000E+00 0. -1.
         25    2    1    2    0    0 -0.30020608700E+02  0.10459103745E+03  0.49900810158E+03  0.52580880546E+03  0.12500116957E+03 0.  0.
         25    2    1    2    0    0  0.30020608700E+02 -0.10459103745E+03  0.71100031251E+03  0.73005690705E+03  0.12498448334E+03 0.  0.
          5    1    3    3  501    0  0.39526234128E+02  0.81938076384E+02  0.30925020793E+03  0.32238789160E+03  0.47000000000E+01 0. -1.
         -5    1    3    3    0  501 -0.69546842828E+02  0.22652961070E+02  0.18975789365E+03  0.20342091385E+03  0.47000000000E+01 0. -1.
          5    1    4    4  502    0 -0.14127546486E+02  0.16029331525E+02  0.26510625178E+03  0.26600740924E+03  0.47000000000E+01 0.  1.
         -5    1    4    4    0  502  0.44148155186E+02 -0.12062036898E+03  0.44589406073E+03  0.46404949781E+03  0.47000000000E+01 0.  1.
<mgrwt>
<rscale>  0 0.33627121E+03</rscale>
<asrwt>0</asrwt>
<pdfrwt beam="1">  1       21 0.18968257E+00 0.33627121E+03</pdfrwt>
<pdfrwt beam="2">  1       21 0.35274855E-02 0.33627121E+03</pdfrwt>
<totfact> 0.70896741E+04</totfact>
</mgrwt>
</event>
<event>
 8    1  0.9529436E-006  0.2865731E+03  0.7546771E-02  0.1092152E+00
         21   -1    0    0  504  503  0.00000000000E+00  0.00000000000E+00  0.30176985786E+02  0.30176985786E+02  0.00000000000E+00 0.  1.
         21   -1    0    0  503  504 -0.00000000000E+00 -0.00000000000E+00 -0.68035394475E+03  0.68035394475E+03  0.00000000000E+00 0.  1.
         25    2    1    2    0    0 -0.25703904135E+02 -0.27753639945E+02 -0.47129096969E+03  0.48904793027E+03  0.12498697840E+03 0.  0.
         25    2    1    2    0    0  0.25703904135E+02  0.27753639945E+02 -0.17888598927E+03  0.22148300026E+03  0.12499426799E+03 0.  0.
          5    1    3    3  501    0  0.16892517430E+02  0.41993377833E+02 -0.22347899434E+03  0.22806523592E+03  0.47000000000E+01 0.  1.
         -5    1    3    3    0  501 -0.42596421565E+02 -0.69747017778E+02 -0.24781197536E+03  0.26098269435E+03  0.47000000000E+01 0.  1.
          5    1    4    4  502    0 -0.23540673838E+02  0.64468765688E+02 -0.10040614577E+03  0.12171223925E+03  0.47000000000E+01 0.  1.
         -5    1    4    4    0  502  0.49244577973E+02 -0.36715125743E+02 -0.78479843496E+02  0.99770761014E+02  0.47000000000E+01 0.  1.
<mgrwt>
<rscale>  0 0.28657307E+03</rscale>
<asrwt>0</asrwt>
<pdfrwt beam="1">  1       21 0.46426130E-02 0.28657307E+03</pdfrwt>
<pdfrwt beam="2">  1       21 0.10466984E+00 0.28657307E+03</pdfrwt>
<totfact> 0.21821045E+05</totfact>
</mgrwt>
</event>
<event>
 8    1  0.9529436E-006  0.3797150E+03  0.7546771E-02  0.1051039E+00
         21   -1    0    0  504  503  0.00000000000E+00  0.00000000000E+00  0.12656319476E+04  0.12656319476E+04  0.00000000000E+00 0. -1.
         21   -1    0    0  503  504 -0.00000000000E+00 -0.00000000000E+00 -0.28480524208E+02  0.28480524208E+02  0.00000000000E+00 0. -1.
         25    2    1    2    0    0  0.39549483061E+02  0.79425282239E+02  0.10002537090E+04  0.10119319523E+04  0.12500502626E+03 0.  0.
         25    2    1    2    0    0 -0.39549483061E+02 -0.79425282239E+02  0.23689771434E+03  0.28218051948E+03  0.12503112192E+03 0.  0.
          5    1    3    3  501    0  0.54550047514E+02  0.84116300573E+02  0.98305110936E+03  0.98816133972E+03  0.47000000000E+01 0. -1.
         -5    1    3    3    0  501 -0.15000564453E+02 -0.46910183338E+01  0.17202599662E+02  0.23770612572E+02  0.47000000000E+01 0. -1.
          5    1    4    4  502    0  0.30541740912E+02  0.14208809047E+02  0.35000727078E+02  0.48803986399E+02  0.47000000000E+01 0. -1.
         -5    1    4    4    0  502 -0.70091223973E+02 -0.93634091286E+02  0.20189698726E+03  0.23337653308E+03  0.47000000000E+01 0. -1.
<mgrwt>
<rscale>  0 0.37971495E+03</rscale>
<asrwt>0</asrwt>
<pdfrwt beam="1">  1       21 0.19471256E+00 0.37971495E+03</pdfrwt>
<pdfrwt beam="2">  1       21 0.43816201E-02 0.37971495E+03</pdfrwt>
<totfact> 0.44708220E+04</totfact>
</mgrwt>
</event>
<event>
 8    1  0.9529436E-006  0.2953963E+03  0.7546771E-02  0.1087565E+00
         21   -1    0    0  504  503  0.00000000000E+00  0.00000000000E+00  0.97267469107E+02  0.97267469107E+02  0.00000000000E+00 0.  1.
         21   -1    0    0  503  504 -0.00000000000E+00 -0.00000000000E+00 -0.22427591005E+03  0.22427591005E+03  0.00000000000E+00 0.  1.
         25    2    1    2    0    0 -0.57242823531E+02 -0.38356680560E+02 -0.10483214081E+03  0.17709340305E+03  0.12499727945E+03 0.  0.
         25    2    1    2    0    0  0.57242823531E+02  0.38356680560E+02 -0.22176300138E+02  0.14444997610E+03  0.12500412601E+03 0.  0.
          5    1    3    3  501    0 -0.43792723453E+02  0.41820030197E+01  0.16898352079E+02  0.47359646110E+02  0.47000000000E+01 0. -1.
         -5    1    3    3    0  501 -0.13450100078E+02 -0.42538683580E+02 -0.12173049288E+03  0.12973375694E+03  0.47000000000E+01 0. -1.
          5    1    4    4  502    0  0.92407475363E+02  0.42363067882E+01 -0.22115837808E+02  0.95227559457E+02  0.47000000000E+01 0. -1.
         -5    1    4    4    0  502 -0.35164651832E+02  0.34120373772E+02 -0.60462329818E-01  0.49222416646E+02  0.47000000000E+01 0. -1.
<mgrwt>
<rscale>  0 0.29539634E+03</rscale>
<asrwt>0</asrwt>
<pdfrwt beam="1">  1       21 0.14964226E-01 0.29539634E+03</pdfrwt>
<pdfrwt beam="2">  1       21 0.34503986E-01 0.29539634E+03</pdfrwt>
<totfact> 0.31153518E+05</totfact>
</mgrwt>
</event>
<event>
 8    1  0.9529436E-006  0.3482849E+03  0.7546771E-02  0.1063321E+00
         21   -1    0    0  504  503  0.00000000000E+00  0.00000000000E+00  0.10384911115E+03  0.10384911115E+03  0.00000000000E+00 0. -1.
         21   -1    0    0  503  504 -0.00000000000E+00 -0.00000000000E+00 -0.29201592979E+03  0.29201592979E+03  0.00000000000E+00 0. -1.
         25    2    1    2    0    0 -0.11812207932E+03 -0.56957188829E+00 -0.63009447096E+02  0.18316101472E+03  0.12499846741E+03 0.  0.
         25    2    1    2    0    0  0.11812207932E+03  0.56957188829E+00 -0.12515737154E+03  0.21270402623E+03  0.12500194033E+03 0.  0.
          5    1    3    3  501    0 -0.93480027167E+01  0.42243819001E+02  0.10790199080E+02  0.44837972688E+02  0.47000000000E+01 0.  1.
         -5    1    3    3    0  501 -0.10877407660E+03 -0.42813390890E+02 -0.73799646176E+02  0.13832304203E+03  0.47000000000E+01 0.  1.
          5    1    4    4  502    0  0.35595201141E+02 -0.51872797304E+02 -0.14065885527E+02  0.64635474625E+02  0.47000000000E+01 0.  1.
         -5    1    4    4    0  502  0.82526878181E+02  0.52442369192E+02 -0.11109148602E+03  0.14806855161E+03  0.47000000000E+01 0.  1.
<mgrwt>
<rscale>  0 0.34828491E+03</rscale>
<asrwt>0</asrwt>
<pdfrwt beam="1">  1       21 0.15976786E-01 0.34828491E+03</pdfrwt>
<pdfrwt beam="2">  1       21 0.44925528E-01 0.34828491E+03</pdfrwt>
<totfact> 0.15937881E+05</totfact>
</mgrwt>
</event>
<event>
 8    1  0.9529436E-006  0.3086381E+03  0.7546771E-02  0.1081000E+00
         21   -1    0    0  504  503  0.00000000000E+00  0.00000000000E+00  0.10636637729E+03  0.10636637729E+03  0.00000000000E+00 0. -1.
         21   -1    0    0  503  504 -0.00000000000E+00 -0.00000000000E+00 -0.22389004249E+03  0.22389004249E+03  0.00000000000E+00 0. -1.
         25    2    1    2    0    0 -0.56279116303E+02  0.53269451339E+02 -0.87401608456E+01  0.14732130281E+03  0.12498880938E+03 0.  0.
         25    2    1    2    0    0  0.56279116303E+02 -0.53269451339E+02 -0.10878350435E+03  0.18293511698E+03  0.12500573117E+03 0.  0.
          5    1    3    3  501    0 -0.12961087652E+02  0.26957101042E+02  0.56782551413E+02  0.64350782704E+02  0.47000000000E+01 0. -1.
         -5    1    3    3    0  501 -0.43318028651E+02  0.26312350297E+02 -0.65522712259E+02  0.82970520103E+02  0.47000000000E+01 0. -1.
          5    1    4    4  502    0  0.55438632100E+02  0.20734806499E+02 -0.11284798993E+02  0.60438487886E+02  0.47000000000E+01 0. -1.
         -5    1    4    4    0  502  0.84048420362E+00 -0.74004257838E+02 -0.97498705359E+02  0.12249662909E+03  0.47000000000E+01 0. -1.
<mgrwt>
<rscale>  0 0.30863812E+03</rscale>
<asrwt>0</asrwt>
<pdfrwt beam="1">  1       21 0.16364058E-01 0.30863812E+03</pdfrwt>
<pdfrwt beam="2">  1       21 0.34444621E-01 0.30863812E+03</pdfrwt>
<totfact> 0.26435578E+05</totfact>
</mgrwt>
</event>
<event>
 8    1  0.9529436E-006  0.2679879E+03  0.7546771E-02  0.1102437E+00
         21   -1    0    0  504  503  0.00000000000E+00  0.00000000000E+00  0.60471423351E+03  0.60471423351E+03  0.00000000000E+00 0. -1.
         21   -1    0    0  503  504 -0.00000000000E+00 -0.00000000000E+00 -0.29690680550E+02  0.29690680550E+02  0.00000000000E+00 0. -1.
         25    2    1    2    0    0  0.44878449346E+02 -0.17064877025E+02  0.27634522806E+03  0.30708370249E+03  0.12501371934E+03 0.  0.
         25    2    1    2    0    0 -0.44878449346E+02  0.17064877025E+02  0.29867832490E+03  0.32732121157E+03  0.12500059413E+03 0.  0.
          5    1    3    3  501    0 -0.12555833709E+01  0.44141842711E+02  0.44565629426E+02  0.62914736697E+02  0.47000000000E+01 0.  1.
         -5    1    3    3    0  501  0.46134032717E+02 -0.61206719736E+02  0.23177959863E+03  0.24416896579E+03  0.47000000000E+01 0.  1.
          5    1    4    4  502    0  0.43176585860E+02  0.89478605077E+01  0.11932079989E+03  0.12729424599E+03  0.47000000000E+01 0.  1.
         -5    1    4    4    0  502 -0.88055035206E+02  0.81170165173E+01  0.17935752501E+03  0.20002696558E+03  0.47000000000E+01 0.  1.
<mgrwt>
<rscale>  0 0.26798789E+03</rscale>
<asrwt>0</asrwt>
<pdfrwt beam="1">  1       21 0.93032950E-01 0.26798789E+03</pdfrwt>
<pdfrwt beam="2">  1       21 0.45677975E-02 0.26798789E+03</pdfrwt>
<totfact> 0.29868452E+05</totfact>
</mgrwt>
</event>
<event>
 8    1  0.9529436E-006  0.5828457E+03  0.7546771E-02  0.9941649E-01
         21   -1    0    0  504  503  0.00000000000E+00  0.00000000000E+00  0.22817607793E+03  0.22817607793E+03  0.00000000000E+00 0.  1.
         21   -1    0    0  503  504 -0.00000000000E+00 -0.00000000000E+00 -0.37220062019E+03  0.37220062019E+03  0.00000000000E+00 0.  1.
         25    2    1    2    0    0  0.20734709360E+03  0.15834402171E+03 -0.10823662885E+03  0.30887772552E+03  0.12499854024E+03 0.  0.
         25    2    1    2    0    0 -0.20734709360E+03 -0.15834402171E+03 -0.35787913404E+02  0.29149897260E+03  0.12500091940E+03 0.  0.
          5    1    3    3  501    0  0.19905081880E+03  0.12859928795E+03 -0.49186598382E+02  0.24207522960E+03  0.47000000000E+01 0.  1.
         -5    1    3    3    0  501  0.82962747948E+01  0.29744733754E+02 -0.59050030471E+02  0.66802495913E+02  0.47000000000E+01 0.  1.
          5    1    4    4  502    0  0.49925753534E+00 -0.39071200090E+02 -0.33689596120E+02  0.51806243073E+02  0.47000000000E+01 0.  1.
         -5    1    4    4    0  502 -0.20784635113E+03 -0.11927282162E+03 -0.20983172832E+01  0.23969272953E+03  0.47000000000E+01 0.  1.
<mgrwt>
<rscale>  0 0.58284570E+03</rscale>
<asrwt>0</asrwt>
<pdfrwt beam="1">  1       21 0.35104013E-01 0.58284570E+03</pdfrwt>
<pdfrwt beam="2">  1       21 0.57261633E-01 0.58284570E+03</pdfrwt>
<totfact> 0.19669803E+04</totfact>
</mgrwt>
</event>
<event>
 8    1  0.9529436E-006  0.3307929E+03  0.7546771E-02  0.1070787E+00
         21   -1    0    0  504  503  0.00000000000E+00  0.00000000000E+00  0.15272276036E+03  0.15272276036E+03  0.00000000000E+00 0. -1.
         21   -1    0    0  503  504 -0.00000000000E+00 -0.00000000000E+00 -0.17912186898E+03  0.17912186898E+03  0.00000000000E+00 0. -1.
         25    2    1    2    0    0  0.52127289316E+02 -0.24941662869E+02  0.78695754692E+02  0.15860843977E+03  0.12499709805E+03 0.  0.
         25    2    1    2    0    0 -0.52127289316E+02  0.24941662869E+02 -0.10509486331E+03  0.17323618957E+03  0.12500602484E+03 0.  0.
          5    1    3    3  501    0  0.60629028157E+02 -0.55792447353E+00  0.10506934428E+03  0.12139953641E+03  0.47000000000E+01 0.  1.
         -5    1    3    3    0  501 -0.85017388413E+01 -0.24383738396E+02 -0.26373589584E+02  0.37208903357E+02  0.47000000000E+01 0.  1.
          5    1    4    4  502    0  0.15195477498E+01  0.41308629969E+02 -0.10914599298E+03  0.11680603460E+03  0.47000000000E+01 0.  1.
         -5    1    4    4    0  502 -0.53646837065E+02 -0.16366967100E+02  0.40511296692E+01  0.56430154977E+02  0.47000000000E+01 0.  1.
<mgrwt>
<rscale>  0 0.33079290E+03</rscale>
<asrwt>0</asrwt>
<pdfrwt beam="1">  1       21 0.23495809E-01 0.33079290E+03</pdfrwt>
<pdfrwt beam="2">  1       21 0.27557210E-01 0.33079290E+03</pdfrwt>
<totfact> 0.20684083E+05</totfact>
</mgrwt>
</event>
<event>
 8    1  0.9529436E-006  0.3303746E+03  0.7546771E-02  0.1070971E+00
         21   -1    0    0  504  503  0.00000000000E+00  0.00000000000E+00  0.47295391183E+03  0.47295391183E+03  0.00000000000E+00 0.  1.
         21   -1    0    0  503  504 -0.00000000000E+00 -0.00000000000E+00 -0.57694494460E+02  0.57694494460E+02  0.00000000000E+00 0.  1.
         25    2    1    2    0    0  0.83918961715E+02  0.25417156151E+01  0.31671291164E+03  0.35068838229E+03  0.12500568236E+03 0.  0.
         25    2    1    2    0    0 -0.83918961715E+02 -0.25417156151E+01  0.98546505731E+02  0.17996002400E+03  0.12500137596E+03 0.  0.
          5    1    3    3  501    0 -0.69679437973E+01  0.25831444813E+00 -0.91033267297E+01  0.12392720632E+02  0.47000000000E+01 0. -1.
         -5    1    3    3    0  501  0.90886905512E+02  0.22834011669E+01  0.32581623837E+03  0.33829566166E+03  0.47000000000E+01 0. -1.
          5    1    4    4  502    0  0.23808828099E+02 -0.20432336272E+02 -0.15307181422E+01  0.31761198955E+02  0.47000000000E+01 0. -1.
         -5    1    4    4    0  502 -0.10772778981E+03  0.17890620657E+02  0.10007722387E+03  0.14819882504E+03  0.47000000000E+01 0. -1.
<mgrwt>
<rscale>  0 0.33037456E+03</rscale>
<asrwt>0</asrwt>
<pdfrwt beam="1">  1       21 0.72762138E-01 0.33037456E+03</pdfrwt>
<pdfrwt beam="2">  1       21 0.88760764E-02 0.33037456E+03</pdfrwt>
<totfact> 0.16366743E+05</totfact>
</mgrwt>
</event>
<event>
 8    1  0.9529436E-006  0.3341622E+03  0.7546771E-02  0.1069310E+00
         21   -1    0    0  504  503  0.00000000000E+00  0.00000000000E+00  0.30229098429E+03  0.30229098429E+03  0.00000000000E+00 0. -1.
         21   -1    0    0  503  504 -0.00000000000E+00 -0.00000000000E+00 -0.92348437312E+02  0.92348437312E+02  0.00000000000E+00 0. -1.
         25    2    1    2    0    0 -0.54339152121E+02  0.46462009954E+02  0.20504782556E+03  0.25056079180E+03  0.12499855117E+03 0.  0.
         25    2    1    2    0    0  0.54339152121E+02 -0.46462009954E+02  0.48947214130E+01  0.14407862980E+03  0.12499292559E+03 0.  0.
          5    1    3    3  501    0 -0.89961748932E+01  0.71066532687E+02  0.17840967072E+03  0.19231090410E+03  0.47000000000E+01 0. -1.
         -5    1    3    3    0  501 -0.45342977228E+02 -0.24604522733E+02  0.26638154847E+02  0.58249887695E+02  0.47000000000E+01 0. -1.
          5    1    4    4  502    0 -0.18679373053E+02 -0.58998251449E+02  0.25405469578E+02  0.67061468342E+02  0.47000000000E+01 0. -1.
         -5    1    4    4    0  502  0.73018525174E+02  0.12536241495E+02 -0.20510748165E+02  0.77017161462E+02  0.47000000000E+01 0. -1.
<mgrwt>
<rscale>  0 0.33416224E+03</rscale>
<asrwt>0</asrwt>
<pdfrwt beam="1">  1       21 0.46506305E-01 0.33416224E+03</pdfrwt>
<pdfrwt beam="2">  1       21 0.14207452E-01 0.33416224E+03</pdfrwt>
<totfact> 0.18468352E+05</totfact>
</mgrwt>
</event>
<event>
 8    1  0.9529436E-006  0.2583754E+03  0.7546771E-02  0.1108123E+00
         21   -1    0    0  504  503  0.00000000000E+00  0.00000000000E+00  0.84614973841E+01  0.84614973841E+01  0.00000000000E+00 0.  1.
         21   -1    0    0  503  504 -0.00000000000E+00 -0.00000000000E+00 -0.19724003906E+04  0.19724003906E+04  0.00000000000E+00 0.  1.
         25    2    1    2    0    0 -0.22993958414E+02  0.55504280003E+01 -0.81024348160E+03  0.82017094994E+03  0.12500543296E+03 0.  0.
         25    2    1    2    0    0  0.22993958414E+02 -0.55504280003E+01 -0.11536954116E+04  0.11606909380E+04  0.12502328387E+03 0.  0.
          5    1    3    3  501    0 -0.19995196335E+02  0.62986179244E+02 -0.52376602797E+03  0.52793939871E+03  0.47000000000E+01 0. -1.
         -5    1    3    3    0  501 -0.29987620794E+01 -0.57435751243E+02 -0.28647745363E+03  0.29223155123E+03  0.47000000000E+01 0. -1.
          5    1    4    4  502    0  0.42385901174E+01 -0.64700714955E+02 -0.59225090597E+03  0.59580816861E+03  0.47000000000E+01 0. -1.
         -5    1    4    4    0  502  0.18755368297E+02  0.59150286954E+02 -0.56144450562E+03  0.56488276941E+03  0.47000000000E+01 0. -1.
<mgrwt>
<rscale>  0 0.25837539E+03</rscale>
<asrwt>0</asrwt>
<pdfrwt beam="1">  1       21 0.13017680E-02 0.25837539E+03</pdfrwt>
<pdfrwt beam="2">  1       21 0.30344640E+00 0.25837539E+03</pdfrwt>
<totfact> 0.76436644E+04</totfact>
</mgrwt>
</event>
<event>
 8    1  0.9529436E-006  0.3384092E+03  0.7546771E-02  0.1067475E+00
         21   -1    0    0  504  503  0.00000000000E+00  0.00000000000E+00  0.77308183374E+03  0.77308183374E+03  0.00000000000E+00 0. -1.
         21   -1    0    0  503  504 -0.00000000000E+00 -0.00000000000E+00 -0.37033847071E+02  0.37033847071E+02  0.00000000000E+00 0. -1.
         25    2    1    2    0    0 -0.29240617164E+02  0.11014752009E+03  0.37531454077E+03  0.41169409093E+03  0.12507409851E+03 0.  0.
         25    2    1    2    0    0  0.29240617164E+02 -0.11014752009E+03  0.36073344590E+03  0.39842158988E+03  0.12499461757E+03 0.  0.
          5    1    3    3  501    0  0.46453151270E+01  0.85307053947E+02  0.35429345545E+03  0.36447882652E+03  0.47000000000E+01 0.  1.
         -5    1    3    3    0  501 -0.33885932291E+02  0.24840466140E+02  0.21021085321E+02  0.47215264410E+02  0.47000000000E+01 0.  1.
          5    1    4    4  502    0  0.27081754790E+02 -0.90557905895E+02  0.10293410952E+03  0.13982731016E+03  0.47000000000E+01 0.  1.
         -5    1    4    4    0  502  0.21588623739E+01 -0.19589614193E+02  0.25779933638E+03  0.25859427973E+03  0.47000000000E+01 0.  1.
<mgrwt>
<rscale>  0 0.33840919E+03</rscale>
<asrwt>0</asrwt>
<pdfrwt beam="1">  1       21 0.11893565E+00 0.33840919E+03</pdfrwt>
<pdfrwt beam="2">  1       21 0.56975155E-02 0.33840919E+03</pdfrwt>
<totfact> 0.11060157E+05</totfact>
</mgrwt>
</event>
<event>
 8    1  0.9529436E-006  0.5250702E+03  0.7546771E-02  0.1007435E+00
         21   -1    0    0  504  503  0.00000000000E+00  0.00000000000E+00  0.58667097266E+03  0.58667097266E+03  0.00000000000E+00 0. -1.
         21   -1    0    0  503  504 -0.00000000000E+00 -0.00000000000E+00 -0.11748438760E+03  0.11748438760E+03  0.00000000000E+00 0. -1.
         25    2    1    2    0    0 -0.70363520071E+02  0.11334525627E+03  0.48728140417E+03  0.52044665208E+03  0.12499351477E+03 0.  0.
         25    2    1    2    0    0  0.70363520071E+02 -0.11334525627E+03 -0.18094819113E+02  0.18370870818E+03  0.12499317943E+03 0.  0.
          5    1    3    3  501    0 -0.68011058802E+02  0.40241811159E+02  0.10663399993E+03  0.13280740727E+03  0.47000000000E+01 0. -1.
         -5    1    3    3    0  501 -0.23524612691E+01  0.73103445114E+02  0.38064740424E+03  0.38763924481E+03  0.47000000000E+01 0. -1.
          5    1    4    4  502    0  0.74244679076E+02 -0.25677838578E+02 -0.46428889818E+02  0.91374808207E+02  0.47000000000E+01 0. -1.
         -5    1    4    4    0  502 -0.38811590055E+01 -0.87667417696E+02  0.28334070704E+02  0.92333899968E+02  0.47000000000E+01 0. -1.
<mgrwt>
<rscale>  0 0.52507020E+03</rscale>
<asrwt>0</asrwt>
<pdfrwt beam="1">  1       21 0.90257071E-01 0.52507020E+03</pdfrwt>
<pdfrwt beam="2">  1       21 0.18074521E-01 0.52507020E+03</pdfrwt>
<totfact> 0.25922248E+04</totfact>
</mgrwt>
</event>
<event>
 8    1  0.9529436E-006  0.2730674E+03  0.7546771E-02  0.1099537E+00
         21   -1    0    0  504  503  0.00000000000E+00  0.00000000000E+00  0.30525402161E+03  0.30525402161E+03  0.00000000000E+00 0.  1.
         21   -1    0    0  503  504 -0.00000000000E+00 -0.00000000000E+00 -0.61068653152E+02  0.61068653152E+02  0.00000000000E+00 0.  1.
         25    2    1    2    0    0 -0.39687985370E+02  0.56413632781E+01  0.71713562026E+02  0.14957488233E+03  0.12499139683E+03 0.  0.
         25    2    1    2    0    0  0.39687985370E+02 -0.56413632781E+01  0.17247180644E+03  0.21674779244E+03  0.12500448132E+03 0.  0.
          5    1    3    3  501    0 -0.24977648079E+02  0.47221460941E+02  0.87388879453E+02  0.10253124172E+03  0.47000000000E+01 0.  1.
         -5    1    3    3    0  501 -0.14710337290E+02 -0.41580097662E+02 -0.15675317428E+02  0.47043640604E+02  0.47000000000E+01 0.  1.
          5    1    4    4  502    0  0.28809868664E+02  0.10675032516E+02  0.18846456892E+03  0.19101033634E+03  0.47000000000E+01 0.  1.
         -5    1    4    4    0  502  0.10878116706E+02 -0.16316395794E+02 -0.15992762480E+02  0.25737456100E+02  0.47000000000E+01 0.  1.
<mgrwt>
<rscale>  0 0.27306741E+03</rscale>
<asrwt>0</asrwt>
<pdfrwt beam="1">  1       21 0.46962156E-01 0.27306741E+03</pdfrwt>
<pdfrwt beam="2">  1       21 0.93951776E-02 0.27306741E+03</pdfrwt>
<totfact> 0.38619483E+05</totfact>
</mgrwt>
</event>
<event>
 8    1  0.9529436E-006  0.4284999E+03  0.7546771E-02  0.1034335E+00
         21   -1    0    0  504  503  0.00000000000E+00  0.00000000000E+00  0.11416282738E+04  0.11416282738E+04  0.00000000000E+00 0.  1.
         21   -1    0    0  503  504 -0.00000000000E+00 -0.00000000000E+00 -0.40208395637E+02  0.40208395637E+02  0.00000000000E+00 0.  1.
         25    2    1    2    0    0  0.72130688292E+02 -0.13384667664E+03  0.78412124392E+03  0.80844831180E+03  0.12499911458E+03 0.  0.
         25    2    1    2    0    0 -0.72130688292E+02  0.13384667664E+03  0.31729863422E+03  0.37338835761E+03  0.12499069278E+03 0.  0.
          5    1    3    3  501    0  0.72520678384E+02 -0.14514819028E+03  0.77800743447E+03  0.79476090997E+03  0.47000000000E+01 0.  1.
         -5    1    3    3    0  501 -0.38999009218E+00  0.11301513637E+02  0.61138094512E+01  0.13687401826E+02  0.47000000000E+01 0.  1.
          5    1    4    4  502    0  0.30102221914E+02  0.68963508109E+02  0.13106895428E+03  0.15120605144E+03  0.47000000000E+01 0. -1.
         -5    1    4    4    0  502 -0.10223291021E+03  0.64883168532E+02  0.18622967994E+03  0.22218230618E+03  0.47000000000E+01 0. -1.
<mgrwt>
<rscale>  0 0.42849990E+03</rscale>
<asrwt>0</asrwt>
<pdfrwt beam="1">  1       21 0.17563509E+00 0.42849990E+03</pdfrwt>
<pdfrwt beam="2">  1       21 0.61859079E-02 0.42849990E+03</pdfrwt>
<totfact> 0.32887619E+04</totfact>
</mgrwt>
</event>
<event>
 8    1  0.9529436E-006  0.2917076E+03  0.7546771E-02  0.1089461E+00
         21   -1    0    0  504  503  0.00000000000E+00  0.00000000000E+00  0.28508532330E+03  0.28508532330E+03  0.00000000000E+00 0.  1.
         21   -1    0    0  503  504 -0.00000000000E+00 -0.00000000000E+00 -0.74620938388E+02  0.74620938388E+02  0.00000000000E+00 0.  1.
         25    2    1    2    0    0  0.99206513063E+01  0.31254860863E+02  0.18862058474E+03  0.22864317072E+03  0.12499875552E+03 0.  0.
         25    2    1    2    0    0 -0.99206513063E+01 -0.31254860863E+02  0.21843800169E+02  0.13106309096E+03  0.12500038623E+03 0.  0.
          5    1    3    3  501    0 -0.37884623631E+02  0.49709986080E+02  0.48129641644E+02  0.79024552061E+02  0.47000000000E+01 0. -1.
         -5    1    3    3    0  501  0.47805274937E+02 -0.18455125217E+02  0.14049094310E+03  0.14961861866E+03  0.47000000000E+01 0. -1.
          5    1    4    4  502    0 -0.48443346928E+02  0.42812484666E+01  0.51229979955E+02  0.70793275077E+02  0.47000000000E+01 0. -1.
         -5    1    4    4    0  502  0.38522695622E+02 -0.35536109330E+02 -0.29386179786E+02  0.60269815884E+02  0.47000000000E+01 0. -1.
<mgrwt>
<rscale>  0 0.29170762E+03</rscale>
<asrwt>0</asrwt>
<pdfrwt beam="1">  1       21 0.43859280E-01 0.29170762E+03</pdfrwt>
<pdfrwt beam="2">  1       21 0.11480145E-01 0.29170762E+03</pdfrwt>
<totfact> 0.30998172E+05</totfact>
</mgrwt>
</event>
<event>
 8    1  0.9529436E-006  0.6189483E+03  0.7546771E-02  0.9866856E-01
         21   -1    0    0  504  503  0.00000000000E+00  0.00000000000E+00  0.19492076037E+03  0.19492076037E+03  0.00000000000E+00 0.  1.
         21   -1    0    0  503  504 -0.00000000000E+00 -0.00000000000E+00 -0.49134963565E+03  0.49134963565E+03  0.00000000000E+00 0.  1.
         25    2    1    2    0    0  0.37089938173E+02  0.15329007125E+03  0.11246675005E+03  0.23053577271E+03  0.12499785267E+03 0.  0.
         25    2    1    2    0    0 -0.37089938173E+02 -0.15329007125E+03 -0.40889562534E+03  0.45573462331E+03  0.12499962002E+03 0.  0.
          5    1    3    3  501    0  0.22855801719E+02 -0.13813592330E+02 -0.23761380801E+01  0.27220195397E+02  0.47000000000E+01 0.  1.
         -5    1    3    3    0  501  0.14234136454E+02  0.16710366358E+03  0.11484288813E+03  0.20331557731E+03  0.47000000000E+01 0.  1.
          5    1    4    4  502    0 -0.25103926435E+01 -0.97776168793E+02 -0.10001202923E+03  0.13996777217E+03  0.47000000000E+01 0.  1.
         -5    1    4    4    0  502 -0.34579545530E+02 -0.55513902459E+02 -0.30888359611E+03  0.31576685114E+03  0.47000000000E+01 0.  1.
<mgrwt>
<rscale>  0 0.61894828E+03</rscale>
<asrwt>0</asrwt>
<pdfrwt beam="1">  1       21 0.29987809E-01 0.61894828E+03</pdfrwt>
<pdfrwt beam="2">  1       21 0.75592252E-01 0.61894828E+03</pdfrwt>
<totfact> 0.14395828E+04</totfact>
</mgrwt>
</event>
<event>
 8    1  0.9529436E-006  0.3327821E+03  0.7546771E-02  0.1069912E+00
         21   -1    0    0  504  503  0.00000000000E+00  0.00000000000E+00  0.20634295761E+02  0.20634295761E+02  0.00000000000E+00 0.  1.
         21   -1    0    0  503  504 -0.00000000000E+00 -0.00000000000E+00 -0.13417455085E+04  0.13417455085E+04  0.00000000000E+00 0.  1.
         25    2    1    2    0    0 -0.18042589586E+02 -0.84123730236E+02 -0.38114116993E+03  0.41023948342E+03  0.12500202121E+03 0.  0.
         25    2    1    2    0    0  0.18042589586E+02  0.84123730236E+02 -0.93997004283E+03  0.95214032087E+03  0.12500068872E+03 0.  0.
          5    1    3    3  501    0 -0.29071551782E+02 -0.11237441884E+03 -0.25177672405E+03  0.27728464419E+03  0.47000000000E+01 0. -1.
         -5    1    3    3    0  501  0.11028962196E+02  0.28250688604E+02 -0.12936444589E+03  0.13295483923E+03  0.47000000000E+01 0. -1.
          5    1    4    4  502    0 -0.20613322485E+02  0.69814022751E+02 -0.23758042127E+03  0.24852656479E+03  0.47000000000E+01 0.  1.
         -5    1    4    4    0  502  0.38655912071E+02  0.14309707485E+02 -0.70238962156E+03  0.70361375608E+03  0.47000000000E+01 0.  1.
<mgrwt>
<rscale>  0 0.33278205E+03</rscale>
<asrwt>0</asrwt>
<pdfrwt beam="1">  1       21 0.31745066E-02 0.33278205E+03</pdfrwt>
<pdfrwt beam="2">  1       21 0.20642242E+00 0.33278205E+03</pdfrwt>
<totfact> 0.65672990E+04</totfact>
</mgrwt>
</event>
<event>
 8    1  0.9529436E-006  0.4702763E+03  0.7546771E-02  0.1021842E+00
         21   -1    0    0  504  503  0.00000000000E+00  0.00000000000E+00  0.48754174255E+03  0.48754174255E+03  0.00000000000E+00 0.  1.
         21   -1    0    0  503  504 -0.00000000000E+00 -0.00000000000E+00 -0.11340557320E+03  0.11340557320E+03  0.00000000000E+00 0.  1.
         25    2    1    2    0    0 -0.17659522992E+03 -0.25454273919E+02  0.73986632723E+02  0.23007126078E+03  0.12499987168E+03 0.  0.
         25    2    1    2    0    0  0.17659522992E+03  0.25454273919E+02  0.30014953663E+03  0.37087605497E+03  0.12500203406E+03 0.  0.
          5    1    3    3  501    0 -0.14724740136E+02 -0.41207843099E+02 -0.12577856331E+02  0.45773319465E+02  0.47000000000E+01 0. -1.
         -5    1    3    3    0  501 -0.16187048979E+03  0.15753569180E+02  0.86564489054E+02  0.18429794131E+03  0.47000000000E+01 0. -1.
          5    1    4    4  502    0  0.12789931654E+03 -0.41585698050E+02  0.19480370723E+03  0.23676608668E+03  0.47000000000E+01 0.  1.
         -5    1    4    4    0  502  0.48695913384E+02  0.67039971969E+02  0.10534582940E+03  0.13410996829E+03  0.47000000000E+01 0.  1.
<mgrwt>
<rscale>  0 0.47027631E+03</rscale>
<asrwt>0</asrwt>
<pdfrwt beam="1">  1       21 0.75006421E-01 0.47027631E+03</pdfrwt>
<pdfrwt beam="2">  1       21 0.17447011E-01 0.47027631E+03</pdfrwt>
<totfact> 0.43158281E+04</totfact>
</mgrwt>
</event>
<event>
 8    1  0.9529436E-006  0.3630688E+03  0.7546771E-02  0.1057375E+00
         21   -1    0    0  504  503  0.00000000000E+00  0.00000000000E+00  0.17239747861E+04  0.17239747861E+04  0.00000000000E+00 0. -1.
         21   -1    0    0  503  504 -0.00000000000E+00 -0.00000000000E+00 -0.19115557821E+02  0.19115557821E+02  0.00000000000E+00 0. -1.
         25    2    1    2    0    0  0.98056922442E+01  0.11819979112E+03  0.11266880990E+04  0.11397865391E+04  0.12497975851E+03 0.  0.
         25    2    1    2    0    0 -0.98056922442E+01 -0.11819979112E+03  0.57817112930E+03  0.60330380485E+03  0.12500513579E+03 0.  0.
          5    1    3    3  501    0 -0.30229504937E+02  0.63496829286E+02  0.90926134474E+03  0.91198900944E+03  0.47000000000E+01 0.  1.
         -5    1    3    3    0  501  0.40035197181E+02  0.54702961832E+02  0.21742675425E+03  0.22779752964E+03  0.47000000000E+01 0.  1.
          5    1    4    4  502    0  0.13179071581E+02 -0.10518462858E+03  0.56210385582E+03  0.57203175502E+03  0.47000000000E+01 0. -1.
         -5    1    4    4    0  502 -0.22984763826E+02 -0.13015162536E+02  0.16067273478E+02  0.31272049837E+02  0.47000000000E+01 0. -1.
<mgrwt>
<rscale>  0 0.36306881E+03</rscale>
<asrwt>0</asrwt>
<pdfrwt beam="1">  1       21 0.26522677E+00 0.36306881E+03</pdfrwt>
<pdfrwt beam="2">  1       21 0.29408564E-02 0.36306881E+03</pdfrwt>
<totfact> 0.31874992E+04</totfact>
</mgrwt>
</event>
<event>
 8    1  0.9529436E-006  0.3728016E+03  0.7546771E-02  0.1053627E+00
         21   -1    0    0  504  503  0.00000000000E+00  0.00000000000E+00  0.16772200548E+03  0.16772200548E+03  0.00000000000E+00 0. -1.
         21   -1    0    0  503  504 -0.00000000000E+00 -0.00000000000E+00 -0.20715979457E+03  0.20715979457E+03  0.00000000000E+00 0. -1.
         25    2    1    2    0    0  0.41726969991E+01 -0.11258641191E+03 -0.10032786019E+03  0.19591893979E+03  0.12500175955E+03 0.  0.
         25    2    1    2    0    0 -0.41726969991E+01  0.11258641191E+03  0.60890071095E+02  0.17896286026E+03  0.12500797195E+03 0.  0.
          5    1    3    3  501    0 -0.29715448904E+02  0.15604058271E+02 -0.97291798842E+01  0.35259629597E+02  0.47000000000E+01 0.  1.
         -5    1    3    3    0  501  0.33888145904E+02 -0.12819047018E+03 -0.90598680305E+02  0.16065931019E+03  0.47000000000E+01 0.  1.
          5    1    4    4  502    0 -0.58973239536E+02  0.86368098049E+02  0.22911849214E+02  0.10716498578E+03  0.47000000000E+01 0. -1.
         -5    1    4    4    0  502  0.54800542537E+02  0.26218313857E+02  0.37978221881E+02  0.71797874489E+02  0.47000000000E+01 0. -1.
<mgrwt>
<rscale>  0 0.37280159E+03</rscale>
<asrwt>0</asrwt>
<pdfrwt beam="1">  1       21 0.25803386E-01 0.37280159E+03</pdfrwt>
<pdfrwt beam="2">  1       21 0.31870737E-01 0.37280159E+03</pdfrwt>
<totfact> 0.12841801E+05</totfact>
</mgrwt>
</event>
<event>
 8    1  0.9529436E-006  0.2710235E+03  0.7546771E-02  0.1100695E+00
         21   -1    0    0  504  503  0.00000000000E+00  0.00000000000E+00  0.40112093614E+02  0.40112093614E+02  0.00000000000E+00 0. -1.
         21   -1    0    0  503  504 -0.00000000000E+00 -0.00000000000E+00 -0.45780309864E+03  0.45780309864E+03  0.00000000000E+00 0. -1.
         25    2    1    2    0    0  0.20432152578E+02 -0.88651714513E+01 -0.12178993347E+03  0.17592356841E+03  0.12498099817E+03 0.  0.
         25    2    1    2    0    0 -0.20432152578E+02  0.88651714513E+01 -0.29590107155E+03  0.32199162384E+03  0.12500039021E+03 0.  0.
          5    1    3    3  501    0  0.24654131237E+02  0.53700795448E+02 -0.35306077901E+02  0.68994280600E+02  0.47000000000E+01 0. -1.
         -5    1    3    3    0  501 -0.42219786587E+01 -0.62565966900E+02 -0.86483855572E+02  0.10692928781E+03  0.47000000000E+01 0. -1.
          5    1    4    4  502    0  0.56402778116E+01 -0.54415040637E+02 -0.16953343962E+03  0.17820349752E+03  0.47000000000E+01 0.  1.
         -5    1    4    4    0  502 -0.26072430390E+02  0.63280212088E+02 -0.12636763194E+03  0.14378812632E+03  0.47000000000E+01 0.  1.
<mgrwt>
<rscale>  0 0.27102355E+03</rscale>
<asrwt>0</asrwt>
<pdfrwt beam="1">  1       21 0.61710912E-02 0.27102355E+03</pdfrwt>
<pdfrwt beam="2">  1       21 0.70431248E-01 0.27102355E+03</pdfrwt>
<totfact> 0.33694525E+05</totfact>
</mgrwt>
</event>
<event>
 8    1  0.9529436E-006  0.3654377E+03  0.7546771E-02  0.1056451E+00
         21   -1    0    0  504  503  0.00000000000E+00  0.00000000000E+00  0.93745471215E+03  0.93745471215E+03  0.00000000000E+00 0.  1.
         21   -1    0    0  503  504 -0.00000000000E+00 -0.00000000000E+00 -0.35613652587E+02  0.35613652587E+02  0.00000000000E+00 0.  1.
         25    2    1    2    0    0 -0.10553666109E+03  0.27644135269E+02  0.24711234935E+03  0.29764670476E+03  0.12500745019E+03 0.  0.
         25    2    1    2    0    0  0.10553666109E+03 -0.27644135269E+02  0.65472871021E+03  0.67542165998E+03  0.12499019860E+03 0.  0.
          5    1    3    3  501    0 -0.65353583680E+02  0.38540309977E+01  0.24163984604E+03  0.25039538664E+03  0.47000000000E+01 0.  1.
         -5    1    3    3    0  501 -0.40183077406E+02  0.23790104272E+02  0.54725033051E+01  0.47251318114E+02  0.47000000000E+01 0.  1.
          5    1    4    4  502    0  0.22893105692E+02 -0.54324206125E+02  0.43671423565E+03  0.44070015575E+03  0.47000000000E+01 0. -1.
         -5    1    4    4    0  502  0.82643555395E+02  0.26680070855E+02  0.21801447456E+03  0.23472150422E+03  0.47000000000E+01 0. -1.
<mgrwt>
<rscale>  0 0.36543775E+03</rscale>
<asrwt>0</asrwt>
<pdfrwt beam="1">  1       21 0.14422378E+00 0.36543775E+03</pdfrwt>
<pdfrwt beam="2">  1       21 0.54790242E-02 0.36543775E+03</pdfrwt>
<totfact> 0.71344149E+04</totfact>
</mgrwt>
</event>
<event>
 8    1  0.9529436E-006  0.3174188E+03  0.7546771E-02  0.1076843E+00
         21   -1    0    0  504  503  0.00000000000E+00  0.00000000000E+00  0.18898608652E+02  0.18898608652E+02  0.00000000000E+00 0. -1.
         21   -1    0    0  503  504 -0.00000000000E+00 -0.00000000000E+00 -0.13328319140E+04  0.13328319140E+04  0.00000000000E+00 0. -1.
         25    2    1    2    0    0 -0.76596614058E+02 -0.32955659753E+02 -0.43929073730E+03  0.46427705461E+03  0.12499485896E+03 0.  0.
         25    2    1    2    0    0  0.76596614058E+02  0.32955659753E+02 -0.87464256807E+03  0.88745346806E+03  0.12498367614E+03 0.  0.
          5    1    3    3  501    0 -0.10804768112E+03 -0.40162162091E+02 -0.37243227773E+03  0.38989125683E+03  0.47000000000E+01 0. -1.
         -5    1    3    3    0  501  0.31451067061E+02  0.72065023386E+01 -0.66858459570E+02  0.74385797780E+02  0.47000000000E+01 0. -1.
          5    1    4    4  502    0  0.84266023420E+02  0.71219683837E+02 -0.61152439263E+03  0.62141546396E+03  0.47000000000E+01 0.  1.
         -5    1    4    4    0  502 -0.76694093621E+01 -0.38264024084E+02 -0.26311817544E+03  0.26603800410E+03  0.47000000000E+01 0.  1.
<mgrwt>
<rscale>  0 0.31741877E+03</rscale>
<asrwt>0</asrwt>
<pdfrwt beam="1">  1       21 0.29074776E-02 0.31741877E+03</pdfrwt>
<pdfrwt beam="2">  1       21 0.20505111E+00 0.31741877E+03</pdfrwt>
<totfact> 0.78121561E+04</totfact>
</mgrwt>
</event>
<event>
 8    1  0.9529436E-006  0.2578925E+03  0.7546771E-02  0.1108416E+00
         21   -1    0    0  504  503  0.00000000000E+00  0.00000000000E+00  0.28251011624E+03  0.28251011624E+03  0.00000000000E+00 0. -1.
         21   -1    0    0  503  504 -0.00000000000E+00 -0.00000000000E+00 -0.58855009290E+02  0.58855009290E+02  0.00000000000E+00 0. -1.
         25    2    1    2    0    0  0.26919734493E+02 -0.91823473109E+01  0.13023337960E+03  0.18274172640E+03  0.12499927119E+03 0.  0.
         25    2    1    2    0    0 -0.26919734493E+02  0.91823473109E+01  0.93421727353E+02  0.15862339913E+03  0.12499910401E+03 0.  0.
          5    1    3    3  501    0  0.85780954990E+01 -0.32133602094E+02  0.14548141163E+03  0.14930868440E+03  0.47000000000E+01 0. -1.
         -5    1    3    3    0  501  0.18341638994E+02  0.22951254783E+02 -0.15248032028E+02  0.33433042007E+02  0.47000000000E+01 0. -1.
          5    1    4    4  502    0  0.44751637533E+02  0.15448034697E+02  0.10462125049E+02  0.48712389579E+02  0.47000000000E+01 0.  1.
         -5    1    4    4    0  502 -0.71671372026E+02 -0.62656873864E+01  0.82959602304E+02  0.10991100955E+03  0.47000000000E+01 0.  1.
<mgrwt>
<rscale>  0 0.25789250E+03</rscale>
<asrwt>0</asrwt>
<pdfrwt beam="1">  1       21 0.43463094E-01 0.25789250E+03</pdfrwt>
<pdfrwt beam="2">  1       21 0.90546170E-02 0.25789250E+03</pdfrwt>
<totfact> 0.48535611E+05</totfact>
</mgrwt>
</event>
<event>
 8    1  0.9529436E-006  0.2867834E+03  0.7546771E-02  0.1092041E+00
         21   -1    0    0  504  503  0.00000000000E+00  0.00000000000E+00  0.26989498996E+03  0.26989498996E+03  0.00000000000E+00 0. -1.
         21   -1    0    0  503  504 -0.00000000000E+00 -0.00000000000E+00 -0.76182137991E+02  0.76182137991E+02  0.00000000000E+00 0. -1.
         25    2    1    2    0    0  0.46649855013E+02  0.43638854595E+02  0.61570561711E+02  0.15329206164E+03  0.12500785371E+03 0.  0.
         25    2    1    2    0    0 -0.46649855013E+02 -0.43638854595E+02  0.13214229026E+03  0.19278506631E+03  0.12499575318E+03 0.  0.
          5    1    3    3  501    0  0.27511054370E+02 -0.32457456231E+01  0.90513971177E+02  0.94774795993E+02  0.47000000000E+01 0. -1.
         -5    1    3    3    0  501  0.19138800643E+02  0.46884600218E+02 -0.28943409466E+02  0.58517265650E+02  0.47000000000E+01 0. -1.
          5    1    4    4  502    0  0.32137417404E+02  0.20667650290E+02  0.33622064753E+02  0.51112607097E+02  0.47000000000E+01 0.  1.
         -5    1    4    4    0  502 -0.78787272417E+02 -0.64306504885E+02  0.98520225505E+02  0.14167245921E+03  0.47000000000E+01 0.  1.
<mgrwt>
<rscale>  0 0.28678338E+03</rscale>
<asrwt>0</asrwt>
<pdfrwt beam="1">  1       21 0.41522306E-01 0.28678338E+03</pdfrwt>
<pdfrwt beam="2">  1       21 0.11720329E-01 0.28678338E+03</pdfrwt>
<totfact> 0.33459309E+05</totfact>
</mgrwt>
</event>
<event>
 8    1  0.9529436E-006  0.3967258E+03  0.7546771E-02  0.1044919E+00
         21   -1    0    0  504  503  0.00000000000E+00  0.00000000000E+00  0.79332261152E+03  0.79332261152E+03  0.00000000000E+00 0.  1.
         21   -1    0    0  503  504 -0.00000000000E+00 -0.00000000000E+00 -0.49598792294E+02  0.49598792294E+02  0.00000000000E+00 0.  1.
         25    2    1    2    0    0  0.14631313728E+03  0.47948065693E+02  0.36330257629E+03  0.41390812380E+03  0.12499848745E+03 0.  0.
         25    2    1    2    0    0 -0.14631313728E+03 -0.47948065693E+02  0.38042124293E+03  0.42901328001E+03  0.12500208482E+03 0.  0.
          5    1    3    3  501    0  0.68550583598E+02  0.45513088010E+02  0.30670076759E+03  0.31758160295E+03  0.47000000000E+01 0.  1.
         -5    1    3    3    0  501  0.77762553677E+02  0.24349776826E+01  0.56601808698E+02  0.96326520848E+02  0.47000000000E+01 0.  1.
          5    1    4    4  502    0 -0.14385600188E+03 -0.14462770502E+02  0.20841601483E+03  0.25369873127E+03  0.47000000000E+01 0. -1.
         -5    1    4    4    0  502 -0.24571353978E+01 -0.33485295190E+02  0.17200522810E+03  0.17531454874E+03  0.47000000000E+01 0. -1.
<mgrwt>
<rscale>  0 0.39672582E+03</rscale>
<asrwt>0</asrwt>
<pdfrwt beam="1">  1       21 0.12204962E+00 0.39672582E+03</pdfrwt>
<pdfrwt beam="2">  1       21 0.76305841E-02 0.39672582E+03</pdfrwt>
<totfact> 0.61270226E+04</totfact>
</mgrwt>
</event>
<event>
 8    1  0.9529436E-006  0.4160476E+03  0.7546771E-02  0.1038360E+00
         21   -1    0    0  504  503  0.00000000000E+00  0.00000000000E+00  0.76092201347E+02  0.76092201347E+02  0.00000000000E+00 0. -1.
         21   -1    0    0  503  504 -0.00000000000E+00 -0.00000000000E+00 -0.56870340653E+03  0.56870340653E+03  0.00000000000E+00 0. -1.
         25    2    1    2    0    0 -0.25500860313E+02  0.13713494770E+03 -0.38659085598E+03  0.42957374347E+03  0.12499929359E+03 0.  0.
         25    2    1    2    0    0  0.25500860313E+02 -0.13713494770E+03 -0.10602034921E+03  0.21522186440E+03  0.12499539477E+03 0.  0.
          5    1    3    3  501    0 -0.55655186736E+02  0.95473583540E+02 -0.14417215339E+03  0.18171517487E+03  0.47000000000E+01 0. -1.
         -5    1    3    3    0  501  0.30154326424E+02  0.41661364163E+02 -0.24241870259E+03  0.24785856860E+03  0.47000000000E+01 0. -1.
          5    1    4    4  502    0  0.37322690198E+02 -0.37081942651E+02  0.17600557833E+02  0.55676954931E+02  0.47000000000E+01 0.  1.
         -5    1    4    4    0  502 -0.11821829885E+02 -0.10005300505E+03 -0.12362090704E+03  0.15954490947E+03  0.47000000000E+01 0.  1.
<mgrwt>
<rscale>  0 0.41604757E+03</rscale>
<asrwt>0</asrwt>
<pdfrwt beam="1">  1       21 0.11706492E-01 0.41604757E+03</pdfrwt>
<pdfrwt beam="2">  1       21 0.87492833E-01 0.41604757E+03</pdfrwt>
<totfact> 0.63917989E+04</totfact>
</mgrwt>
</event>
<event>
 8    1  0.9529436E-006  0.3064302E+03  0.7546771E-02  0.1082070E+00
         21   -1    0    0  504  503  0.00000000000E+00  0.00000000000E+00  0.10832789684E+03  0.10832789684E+03  0.00000000000E+00 0. -1.
         21   -1    0    0  503  504 -0.00000000000E+00 -0.00000000000E+00 -0.21670195126E+03  0.21670195126E+03  0.00000000000E+00 0. -1.
         25    2    1    2    0    0  0.55235913678E+02  0.28306378284E+02 -0.12130751071E+03  0.18491534002E+03  0.12500365438E+03 0.  0.
         25    2    1    2    0    0 -0.55235913678E+02 -0.28306378284E+02  0.12933456286E+02  0.14011450807E+03  0.12495016555E+03 0.  0.
          5    1    3    3  501    0  0.41260974619E+02  0.43039863110E+02  0.20168408508E+01  0.59841920842E+02  0.47000000000E+01 0.  1.
         -5    1    3    3    0  501  0.13974939060E+02 -0.14733484826E+02 -0.12332435156E+03  0.12507341918E+03  0.47000000000E+01 0.  1.
          5    1    4    4  502    0 -0.69973447342E+02 -0.53176625531E+02 -0.25650231780E+02  0.91673667027E+02  0.47000000000E+01 0. -1.
         -5    1    4    4    0  502  0.14737533664E+02  0.24870247247E+02  0.38583688066E+02  0.48440841048E+02  0.47000000000E+01 0. -1.
<mgrwt>
<rscale>  0 0.30643020E+03</rscale>
<asrwt>0</asrwt>
<pdfrwt beam="1">  1       21 0.16665830E-01 0.30643020E+03</pdfrwt>
<pdfrwt beam="2">  1       21 0.33338761E-01 0.30643020E+03</pdfrwt>
<totfact> 0.27288945E+05</totfact>
</mgrwt>
</event>
<event>
 8    1  0.9529436E-006  0.4535249E+03  0.7546771E-02  0.1026676E+00
         21   -1    0    0  504  503  0.00000000000E+00  0.00000000000E+00  0.33749607134E+03  0.33749607134E+03  0.00000000000E+00 0. -1.
         21   -1    0    0  503  504 -0.00000000000E+00 -0.00000000000E+00 -0.15236091679E+03  0.15236091679E+03  0.00000000000E+00 0. -1.
         25    2    1    2    0    0 -0.99931422583E+02 -0.22724752781E+02 -0.79212610943E+02  0.18000628910E+03  0.12499969109E+03 0.  0.
         25    2    1    2    0    0  0.99931422583E+02  0.22724752781E+02  0.26434776549E+03  0.30985069903E+03  0.12500004384E+03 0.  0.
          5    1    3    3  501    0 -0.11965013634E+03 -0.38185551573E+02 -0.87563970398E+02  0.15317907947E+03  0.47000000000E+01 0.  1.
         -5    1    3    3    0  501  0.19718713759E+02  0.15460798792E+02  0.83513594547E+01  0.26827209626E+02  0.47000000000E+01 0.  1.
          5    1    4    4  502    0  0.44518218126E+02 -0.39348708392E+02  0.18655307608E+03  0.19584262251E+03  0.47000000000E+01 0. -1.
         -5    1    4    4    0  502  0.55413204457E+02  0.62073461173E+02  0.77794689411E+02  0.11400807652E+03  0.47000000000E+01 0. -1.
<mgrwt>
<rscale>  0 0.45352491E+03</rscale>
<asrwt>0</asrwt>
<pdfrwt beam="1">  1       21 0.51922472E-01 0.45352491E+03</pdfrwt>
<pdfrwt beam="2">  1       21 0.23440141E-01 0.45352491E+03</pdfrwt>
<totfact> 0.55587723E+04</totfact>
</mgrwt>
</event>
<event>
 8    1  0.9529436E-006  0.2850297E+03  0.7546771E-02  0.1092973E+00
         21   -1    0    0  504  503  0.00000000000E+00  0.00000000000E+00  0.49274157310E+02  0.49274157310E+02  0.00000000000E+00 0.  1.
         21   -1    0    0  503  504 -0.00000000000E+00 -0.00000000000E+00 -0.41219342271E+03  0.41219342271E+03  0.00000000000E+00 0.  1.
         25    2    1    2    0    0  0.62049706687E+02  0.27284956995E+02 -0.19688514117E+03  0.24286455731E+03  0.12499919761E+03 0.  0.
         25    2    1    2    0    0 -0.62049706687E+02 -0.27284956995E+02 -0.16603412422E+03  0.21860302271E+03  0.12500126460E+03 0.  0.
          5    1    3    3  501    0 -0.26242964825E-01  0.50519781824E+02 -0.15783862296E+03  0.16579315408E+03  0.47000000000E+01 0.  1.
         -5    1    3    3    0  501  0.62075949652E+02 -0.23234824829E+02 -0.39046518217E+02  0.77071403224E+02  0.47000000000E+01 0.  1.
          5    1    4    4  502    0  0.26042622592E+01  0.38509128454E+02 -0.15224267405E+02  0.41756478230E+02  0.47000000000E+01 0.  1.
         -5    1    4    4    0  502 -0.64653968946E+02 -0.65794085449E+02 -0.15080985682E+03  0.17684654448E+03  0.47000000000E+01 0.  1.
<mgrwt>
<rscale>  0 0.28502971E+03</rscale>
<asrwt>0</asrwt>
<pdfrwt beam="1">  1       21 0.75806400E-02 0.28502971E+03</pdfrwt>
<pdfrwt beam="2">  1       21 0.63414369E-01 0.28502971E+03</pdfrwt>
<totfact> 0.29615979E+05</totfact>
</mgrwt>
</event>
<event>
 8    1  0.9529436E-006  0.3006372E+03  0.7546771E-02  0.1084923E+00
         21   -1    0    0  504  503  0.00000000000E+00  0.00000000000E+00  0.36991362240E+03  0.36991362240E+03  0.00000000000E+00 0.  1.
         21   -1    0    0  503  504 -0.00000000000E+00 -0.00000000000E+00 -0.61083660341E+02  0.61083660341E+02  0.00000000000E+00 0.  1.
         25    2    1    2    0    0  0.41481112326E+02 -0.37403597861E+01  0.50695217051E+02  0.14118199148E+03  0.12501070640E+03 0.  0.
         25    2    1    2    0    0 -0.41481112326E+02  0.37403597861E+01  0.25813474501E+03  0.28981529126E+03  0.12499873398E+03 0.  0.
          5    1    3    3  501    0 -0.12699515293E+02  0.51038049423E+02  0.32059280855E+02  0.61774166660E+02  0.47000000000E+01 0. -1.
         -5    1    3    3    0  501  0.54180627619E+02 -0.54778409209E+02  0.18635936196E+02  0.79407824820E+02  0.47000000000E+01 0. -1.
          5    1    4    4  502    0 -0.32821565084E+02 -0.26619611181E+02  0.15758246461E+02  0.45346126246E+02  0.47000000000E+01 0. -1.
         -5    1    4    4    0  502 -0.86595472415E+01  0.30359970967E+02  0.24237649855E+03  0.24446916502E+03  0.47000000000E+01 0. -1.
<mgrwt>
<rscale>  0 0.30063718E+03</rscale>
<asrwt>0</asrwt>
<pdfrwt beam="1">  1       21 0.56909787E-01 0.30063718E+03</pdfrwt>
<pdfrwt beam="2">  1       21 0.93974864E-02 0.30063718E+03</pdfrwt>
<totfact> 0.25562406E+05</totfact>
</mgrwt>
</event>
<event>
 8    1  0.9529436E-006  0.3709051E+03  0.7546771E-02  0.1054347E+00
         21   -1    0    0  504  503  0.00000000000E+00  0.00000000000E+00  0.32641316109E+02  0.32641316109E+02  0.00000000000E+00 0. -1.
         21   -1    0    0  503  504 -0.00000000000E+00 -0.00000000000E+00 -0.10536537997E+04  0.10536537997E+04  0.00000000000E+00 0. -1.
         25    2    1    2    0    0  0.10124573061E+03 -0.80419427023E+02 -0.64297298453E+03  0.66765044566E+03  0.12499950618E+03 0.  0.
         25    2    1    2    0    0 -0.10124573061E+03  0.80419427023E+02 -0.37803949908E+03  0.41864467017E+03  0.12502605642E+03 0.  0.
          5    1    3    3  501    0  0.11986784379E+03 -0.69824326751E+02 -0.62201294273E+03  0.63731148390E+03  0.47000000000E+01 0.  1.
         -5    1    3    3    0  501 -0.18622113172E+02 -0.10595100271E+02 -0.20960041798E+02  0.30338961764E+02  0.47000000000E+01 0.  1.
          5    1    4    4  502    0  0.27123900390E+02  0.66628955880E+01 -0.35237853406E+02  0.45209473152E+02  0.47000000000E+01 0.  1.
         -5    1    4    4    0  502 -0.12836963101E+03  0.73756531435E+02 -0.34280164567E+03  0.37343519701E+03  0.47000000000E+01 0.  1.
<mgrwt>
<rscale>  0 0.37090509E+03</rscale>
<asrwt>0</asrwt>
<pdfrwt beam="1">  1       21 0.50217417E-02 0.37090509E+03</pdfrwt>
<pdfrwt beam="2">  1       21 0.16210056E+00 0.37090509E+03</pdfrwt>
<totfact> 0.60243843E+04</totfact>
</mgrwt>
</event>
<event>
 8    1  0.9529436E-006  0.2688467E+03  0.7546771E-02  0.1101941E+00
         21   -1    0    0  504  503  0.00000000000E+00  0.00000000000E+00  0.21133872968E+02  0.21133872968E+02  0.00000000000E+00 0. -1.
         21   -1    0    0  503  504 -0.00000000000E+00 -0.00000000000E+00 -0.85500859639E+03  0.85500859639E+03  0.00000000000E+00 0. -1.
         25    2    1    2    0    0 -0.45606370335E+02  0.59185979125E+01 -0.47610225773E+03  0.49438204153E+03  0.12500108941E+03 0.  0.
         25    2    1    2    0    0  0.45606370335E+02 -0.59185979125E+01 -0.35777246569E+03  0.38176042782E+03  0.12499966493E+03 0.  0.
          5    1    3    3  501    0 -0.63434132898E+02 -0.36727973777E+02 -0.17610816991E+03  0.19081145349E+03  0.47000000000E+01 0.  1.
         -5    1    3    3    0  501  0.17827762562E+02  0.42646571689E+02 -0.29999408782E+03  0.30357058804E+03  0.47000000000E+01 0.  1.
          5    1    4    4  502    0  0.61900689129E+02  0.43880799510E+02 -0.16049964738E+03  0.17759348718E+03  0.47000000000E+01 0.  1.
         -5    1    4    4    0  502 -0.16294318794E+02 -0.49799397422E+02 -0.19727281831E+03  0.20416694065E+03  0.47000000000E+01 0.  1.
<mgrwt>
<rscale>  0 0.26884674E+03</rscale>
<asrwt>0</asrwt>
<pdfrwt beam="1">  1       21 0.32513653E-02 0.26884674E+03</pdfrwt>
<pdfrwt beam="2">  1       21 0.13153978E+00 0.26884674E+03</pdfrwt>
<totfact> 0.22647722E+05</totfact>
</mgrwt>
</event>
<event>
 8    1  0.9529436E-006  0.3679559E+03  0.7546771E-02  0.1055477E+00
         21   -1    0    0  504  503  0.00000000000E+00  0.00000000000E+00  0.27887704482E+03  0.27887704482E+03  0.00000000000E+00 0. -1.
         21   -1    0    0  503  504 -0.00000000000E+00 -0.00000000000E+00 -0.12137206331E+03  0.12137206331E+03  0.00000000000E+00 0. -1.
         25    2    1    2    0    0  0.97323074856E+02  0.17789891101E+02  0.17865557165E+03  0.23943822905E+03  0.12499836449E+03 0.  0.
         25    2    1    2    0    0 -0.97323074856E+02 -0.17789891101E+02 -0.21150590144E+02  0.16081087907E+03  0.12499812094E+03 0.  0.
          5    1    3    3  501    0  0.11629711323E+03 -0.17995579757E+02  0.14313238823E+03  0.18535865234E+03  0.47000000000E+01 0. -1.
         -5    1    3    3    0  501 -0.18974038378E+02  0.35785470857E+02  0.35523183427E+02  0.54079576715E+02  0.47000000000E+01 0. -1.
          5    1    4    4  502    0  0.77021659618E+01  0.20204663616E+01  0.37627226159E+02  0.38746661705E+02  0.47000000000E+01 0. -1.
         -5    1    4    4    0  502 -0.10502524082E+03 -0.19810357462E+02 -0.58777816304E+02  0.12206421737E+03  0.47000000000E+01 0. -1.
<mgrwt>
<rscale>  0 0.36795588E+03</rscale>
<asrwt>0</asrwt>
<pdfrwt beam="1">  1       21 0.42904161E-01 0.36795588E+03</pdfrwt>
<pdfrwt beam="2">  1       21 0.18672625E-01 0.36795588E+03</pdfrwt>
<totfact> 0.13051427E+05</totfact>
</mgrwt>
</event>
<event>
 8    1  0.9529436E-006  0.5908474E+03  0.7546771E-02  0.9924579E-01
         21   -1    0    0  504  503  0.00000000000E+00  0.00000000000E+00  0.17479474737E+04  0.17479474737E+04  0.00000000000E+00 0. -1.
         21   -1    0    0  503  504 -0.00000000000E+00 -0.00000000000E+00 -0.49930079300E+02  0.49930079300E+02  0.00000000000E+00 0. -1.
         25    2    1    2    0    0  0.14021349790E+03 -0.85068987855E+02  0.14927154595E+04  0.15068911746E+04  0.12500004551E+03 0.  0.
         25    2    1    2    0    0 -0.14021349790E+03  0.85068987855E+02  0.20530193491E+03  0.29098637840E+03  0.12501052056E+03 0.  0.
          5    1    3    3  501    0  0.31964537783E+02  0.14388752187E+02  0.93475462678E+02  0.99942583457E+02  0.47000000000E+01 0. -1.
         -5    1    3    3    0  501  0.10824896012E+03 -0.99457740043E+02  0.13992399969E+04  0.14069485912E+04  0.47000000000E+01 0. -1.
          5    1    4    4  502    0 -0.10636450955E+03  0.10198739859E+03  0.97803391894E+02  0.17692493275E+03  0.47000000000E+01 0.  1.
         -5    1    4    4    0  502 -0.33848988355E+02 -0.16918410736E+02  0.10749854301E+03  0.11406144565E+03  0.47000000000E+01 0.  1.
<mgrwt>
<rscale>  0 0.59084738E+03</rscale>
<asrwt>0</asrwt>
<pdfrwt beam="1">  1       21 0.26891495E+00 0.59084738E+03</pdfrwt>
<pdfrwt beam="2">  1       21 0.76815520E-02 0.59084738E+03</pdfrwt>
<totfact> 0.53040701E+03</totfact>
</mgrwt>
</event>
<event>
 8    1  0.9529436E-006  0.3038571E+03  0.7546771E-02  0.1083328E+00
         21   -1    0    0  504  503  0.00000000000E+00  0.00000000000E+00  0.72930548560E+03  0.72930548560E+03  0.00000000000E+00 0. -1.
         21   -1    0    0  503  504 -0.00000000000E+00 -0.00000000000E+00 -0.31649673678E+02  0.31649673678E+02  0.00000000000E+00 0. -1.
         25    2    1    2    0    0 -0.32922685687E+02  0.79743728064E+02  0.33923466766E+03  0.37168104012E+03  0.12499468169E+03 0.  0.
         25    2    1    2    0    0  0.32922685687E+02 -0.79743728064E+02  0.35842114426E+03  0.38927411915E+03  0.12500263112E+03 0.  0.
          5    1    3    3  501    0  0.15928421160E+02  0.90862938174E+02  0.15256504229E+03  0.17834789111E+03  0.47000000000E+01 0.  1.
         -5    1    3    3    0  501 -0.48851106847E+02 -0.11119210109E+02  0.18666962537E+03  0.19333314902E+03  0.47000000000E+01 0.  1.
          5    1    4    4  502    0  0.15582417619E+02  0.14875564275E+02  0.21733105429E+03  0.21844672420E+03  0.47000000000E+01 0. -1.
         -5    1    4    4    0  502  0.17340268068E+02 -0.94619292339E+02  0.14109008997E+03  0.17082739495E+03  0.47000000000E+01 0. -1.
<mgrwt>
<rscale>  0 0.30385708E+03</rscale>
<asrwt>0</asrwt>
<pdfrwt beam="1">  1       21 0.11220083E+00 0.30385708E+03</pdfrwt>
<pdfrwt beam="2">  1       21 0.48691811E-02 0.30385708E+03</pdfrwt>
<totfact> 0.16897641E+05</totfact>
</mgrwt>
</event>
<event>
 8    1  0.9529436E-006  0.2898223E+03  0.7546771E-02  0.1090442E+00
         21   -1    0    0  504  503  0.00000000000E+00  0.00000000000E+00  0.50940452981E+02  0.50940452981E+02  0.00000000000E+00 0. -1.
         21   -1    0    0  503  504 -0.00000000000E+00 -0.00000000000E+00 -0.41223115207E+03  0.41223115207E+03  0.00000000000E+00 0. -1.
         25    2    1    2    0    0 -0.12868900275E+02 -0.22966859187E+02 -0.28992913560E+03  0.31683350986E+03  0.12502593365E+03 0.  0.
         25    2    1    2    0    0  0.12868900275E+02  0.22966859187E+02 -0.71361563487E+02  0.14633809519E+03  0.12501711941E+03 0.  0.
          5    1    3    3  501    0 -0.99170501712E+01 -0.69013409165E+02 -0.23380911898E+03  0.24402867177E+03  0.47000000000E+01 0.  1.
         -5    1    3    3    0  501 -0.29518501039E+01  0.46046549977E+02 -0.56120016627E+02  0.72804838095E+02  0.47000000000E+01 0.  1.
          5    1    4    4  502    0 -0.54144358136E+02 -0.57872465271E+01 -0.28949199308E+02  0.61848604519E+02  0.47000000000E+01 0. -1.
         -5    1    4    4    0  502  0.67013258411E+02  0.28754105715E+02 -0.42412364179E+02  0.84489490670E+02  0.47000000000E+01 0. -1.
<mgrwt>
<rscale>  0 0.28982230E+03</rscale>
<asrwt>0</asrwt>
<pdfrwt beam="1">  1       21 0.78369931E-02 0.28982230E+03</pdfrwt>
<pdfrwt beam="2">  1       21 0.63420175E-01 0.28982230E+03</pdfrwt>
<totfact> 0.27905324E+05</totfact>
</mgrwt>
</event>
<event>
 8    1  0.9529436E-006  0.3246881E+03  0.7546771E-02  0.1073512E+00
         21   -1    0    0  504  503  0.00000000000E+00  0.00000000000E+00  0.16054595878E+03  0.16054595878E+03  0.00000000000E+00 0. -1.
         21   -1    0    0  503  504 -0.00000000000E+00 -0.00000000000E+00 -0.16416224704E+03  0.16416224704E+03  0.00000000000E+00 0. -1.
         25    2    1    2    0    0 -0.77932773427E+02  0.24542062754E+02  0.61888848821E+02  0.16163899916E+03  0.12498442473E+03 0.  0.
         25    2    1    2    0    0  0.77932773427E+02 -0.24542062754E+02 -0.65505137083E+02  0.16306920665E+03  0.12499925262E+03 0.  0.
          5    1    3    3  501    0 -0.73987767753E+01  0.34995804225E+02 -0.28812088347E+02  0.46170062227E+02  0.47000000000E+01 0.  1.
         -5    1    3    3    0  501 -0.70533996651E+02 -0.10453741471E+02  0.90700937168E+02  0.11546893694E+03  0.47000000000E+01 0.  1.
          5    1    4    4  502    0 -0.12766595396E+02 -0.51198159601E+02 -0.35521079383E+02  0.63781459572E+02  0.47000000000E+01 0. -1.
         -5    1    4    4    0  502  0.90699368823E+02  0.26656096847E+02 -0.29984057700E+02  0.99287747080E+02  0.47000000000E+01 0. -1.
<mgrwt>
<rscale>  0 0.32468807E+03</rscale>
<asrwt>0</asrwt>
<pdfrwt beam="1">  1       21 0.24699378E-01 0.32468807E+03</pdfrwt>
<pdfrwt beam="2">  1       21 0.25255730E-01 0.32468807E+03</pdfrwt>
<totfact> 0.22285385E+05</totfact>
</mgrwt>
</event>
<event>
 8    1  0.9529436E-006  0.2510547E+03  0.7546771E-02  0.1112640E+00
         21   -1    0    0  504  503  0.00000000000E+00  0.00000000000E+00  0.81743368671E+03  0.81743368671E+03  0.00000000000E+00 0. -1.
         21   -1    0    0  503  504 -0.00000000000E+00 -0.00000000000E+00 -0.19276316286E+02  0.19276316286E+02  0.00000000000E+00 0. -1.
         25    2    1    2    0    0 -0.26165396194E+01  0.16981816272E+01  0.43574741761E+03  0.45333428071E+03  0.12500571192E+03 0.  0.
         25    2    1    2    0    0  0.26165396194E+01 -0.16981816272E+01  0.36240995281E+03  0.38337572229E+03  0.12500496166E+03 0.  0.
          5    1    3    3  501    0  0.54215254964E+02  0.27638611941E+02  0.18174459087E+03  0.19171951662E+03  0.47000000000E+01 0.  1.
         -5    1    3    3    0  501 -0.56831794583E+02 -0.25940430314E+02  0.25400282673E+03  0.26161476409E+03  0.47000000000E+01 0.  1.
          5    1    4    4  502    0 -0.28713463272E+02 -0.18047666029E+02  0.33900329416E+03  0.34072790416E+03  0.47000000000E+01 0.  1.
         -5    1    4    4    0  502  0.31330002891E+02  0.16349484402E+02  0.23406658652E+02  0.42647818123E+02  0.47000000000E+01 0.  1.
<mgrwt>
<rscale>  0 0.25105466E+03</rscale>
<asrwt>0</asrwt>
<pdfrwt beam="1">  1       21 0.12575900E+00 0.25105466E+03</pdfrwt>
<pdfrwt beam="2">  1       21 0.29655878E-02 0.25105466E+03</pdfrwt>
<totfact> 0.29753167E+05</totfact>
</mgrwt>
</event>
<event>
 8    1  0.9529436E-006  0.3085995E+03  0.7546771E-02  0.1081019E+00
         21   -1    0    0  504  503  0.00000000000E+00  0.00000000000E+00  0.71764847899E+02  0.71764847899E+02  0.00000000000E+00 0.  1.
         21   -1    0    0  503  504 -0.00000000000E+00 -0.00000000000E+00 -0.33175581093E+03  0.33175581093E+03  0.00000000000E+00 0.  1.
         25    2    1    2    0    0  0.48983281279E+02 -0.12558984172E+02 -0.31919783042E+02  0.13856853370E+03  0.12500110422E+03 0.  0.
         25    2    1    2    0    0 -0.48983281279E+02  0.12558984172E+02 -0.22807117999E+03  0.26495212513E+03  0.12500430208E+03 0.  0.
          5    1    3    3  501    0  0.34029387231E+02  0.36027477700E+02 -0.61846001481E+02  0.79391411650E+02  0.47000000000E+01 0. -1.
         -5    1    3    3    0  501  0.14953894048E+02 -0.48586461872E+02  0.29926218439E+02  0.59177122053E+02  0.47000000000E+01 0. -1.
          5    1    4    4  502    0 -0.16348949709E+02  0.42178075740E+02 -0.21351020908E+03  0.21830020067E+03  0.47000000000E+01 0. -1.
         -5    1    4    4    0  502 -0.32634331570E+02 -0.29619091568E+02 -0.14560970915E+02  0.46651924465E+02  0.47000000000E+01 0. -1.
<mgrwt>
<rscale>  0 0.30859945E+03</rscale>
<asrwt>0</asrwt>
<pdfrwt beam="1">  1       21 0.11040746E-01 0.30859945E+03</pdfrwt>
<pdfrwt beam="2">  1       21 0.51039355E-01 0.30859945E+03</pdfrwt>
<totfact> 0.24135681E+05</totfact>
</mgrwt>
</event>
<event>
 8    1  0.9529436E-006  0.2779370E+03  0.7546771E-02  0.1096821E+00
         21   -1    0    0  504  503  0.00000000000E+00  0.00000000000E+00  0.54864072504E+03  0.54864072504E+03  0.00000000000E+00 0.  1.
         21   -1    0    0  503  504 -0.00000000000E+00 -0.00000000000E+00 -0.35200169942E+02  0.35200169942E+02  0.00000000000E+00 0.  1.
         25    2    1    2    0    0  0.31145284545E+02 -0.40087410352E+02  0.32670115114E+03  0.35346451254E+03  0.12500596085E+03 0.  0.
         25    2    1    2    0    0 -0.31145284545E+02  0.40087410352E+02  0.18673940396E+03  0.23037638244E+03  0.12499857351E+03 0.  0.
          5    1    3    3  501    0  0.17404368361E+02 -0.84107252173E+02  0.17778310405E+03  0.19749902276E+03  0.47000000000E+01 0. -1.
         -5    1    3    3    0  501  0.13740916184E+02  0.44019841822E+02  0.14891804709E+03  0.15596548978E+03  0.47000000000E+01 0. -1.
          5    1    4    4  502    0  0.41055893566E+00 -0.30466291070E+02  0.13199333825E+03  0.13554591396E+03  0.47000000000E+01 0. -1.
         -5    1    4    4    0  502 -0.31555843481E+02  0.70553701421E+02  0.54746065710E+02  0.94830468483E+02  0.47000000000E+01 0. -1.
<mgrwt>
<rscale>  0 0.27793702E+03</rscale>
<asrwt>0</asrwt>
<pdfrwt beam="1">  1       21 0.84406259E-01 0.27793702E+03</pdfrwt>
<pdfrwt beam="2">  1       21 0.54154112E-02 0.27793702E+03</pdfrwt>
<totfact> 0.27952116E+05</totfact>
</mgrwt>
</event>
<event>
 8    1  0.9529436E-006  0.2902708E+03  0.7546771E-02  0.1090208E+00
         21   -1    0    0  504  503  0.00000000000E+00  0.00000000000E+00  0.17648288538E+03  0.17648288538E+03  0.00000000000E+00 0. -1.
         21   -1    0    0  503  504 -0.00000000000E+00 -0.00000000000E+00 -0.11935598644E+03  0.11935598644E+03  0.00000000000E+00 0. -1.
         25    2    1    2    0    0  0.73127861245E+02 -0.13370572705E+01  0.38190211287E+02  0.14977075170E+03  0.12499325587E+03 0.  0.
         25    2    1    2    0    0 -0.73127861245E+02  0.13370572705E+01  0.18936687658E+02  0.14606812013E+03  0.12501130255E+03 0.  0.
          5    1    3    3  501    0 -0.28249002283E+02 -0.27802621800E+02  0.11812106195E+02  0.41624605244E+02  0.47000000000E+01 0.  1.
         -5    1    3    3    0  501  0.10137686353E+03  0.26465564530E+02  0.26378105092E+02  0.10814614645E+03  0.47000000000E+01 0.  1.
          5    1    4    4  502    0 -0.92385717630E+00  0.47255356250E+02 -0.20499603515E+02  0.51732445822E+02  0.47000000000E+01 0. -1.
         -5    1    4    4    0  502 -0.72204004069E+02 -0.45918298980E+02  0.39436291173E+02  0.94335674303E+02  0.47000000000E+01 0. -1.
<mgrwt>
<rscale>  0 0.29027083E+03</rscale>
<asrwt>0</asrwt>
<pdfrwt beam="1">  1       21 0.27151213E-01 0.29027083E+03</pdfrwt>
<pdfrwt beam="2">  1       21 0.18362459E-01 0.29027083E+03</pdfrwt>
<totfact> 0.34241499E+05</totfact>
</mgrwt>
</event>
<event>
 8    1  0.9529436E-006  0.4544511E+03  0.7546771E-02  0.1026403E+00
         21   -1    0    0  504  503  0.00000000000E+00  0.00000000000E+00  0.79484390250E+02  0.79484390250E+02  0.00000000000E+00 0.  1.
         21   -1    0    0  503  504 -0.00000000000E+00 -0.00000000000E+00 -0.64957980706E+03  0.64957980706E+03  0.00000000000E+00 0.  1.
         25    2    1    2    0    0  0.10153732672E+03 -0.15060805900E+03 -0.37328966829E+03  0.43354815213E+03  0.12500483033E+03 0.  0.
         25    2    1    2    0    0 -0.10153732672E+03  0.15060805900E+03 -0.19680574851E+03  0.29551604518E+03  0.12491843001E+03 0.  0.
          5    1    3    3  501    0  0.65491698658E+02 -0.16683484368E+03 -0.32284062164E+03  0.36928469321E+03  0.47000000000E+01 0.  1.
         -5    1    3    3    0  501  0.36045628060E+02  0.16226784682E+02 -0.50449046652E+02  0.64263458913E+02  0.47000000000E+01 0.  1.
          5    1    4    4  502    0  0.11024770265E+01  0.58353303662E+02 -0.44415221235E+01  0.58720870417E+02  0.47000000000E+01 0.  1.
         -5    1    4    4    0  502 -0.10263980374E+03  0.92254755341E+02 -0.19236422639E+03  0.23679517476E+03  0.47000000000E+01 0.  1.
<mgrwt>
<rscale>  0 0.45445112E+03</rscale>
<asrwt>0</asrwt>
<pdfrwt beam="1">  1       21 0.12228367E-01 0.45445112E+03</pdfrwt>
<pdfrwt beam="2">  1       21 0.99935358E-01 0.45445112E+03</pdfrwt>
<totfact> 0.42604624E+04</totfact>
</mgrwt>
</event>
<event>
 8    1  0.9529436E-006  0.2601435E+03  0.7546771E-02  0.1107057E+00
         21   -1    0    0  504  503  0.00000000000E+00  0.00000000000E+00  0.12523731110E+03  0.12523731110E+03  0.00000000000E+00 0. -1.
         21   -1    0    0  503  504 -0.00000000000E+00 -0.00000000000E+00 -0.13509278784E+03  0.13509278784E+03  0.00000000000E+00 0. -1.
         25    2    1    2    0    0  0.31088039126E+02  0.17891362842E+02 -0.23651924221E+01  0.13006887010E+03  0.12500299913E+03 0.  0.
         25    2    1    2    0    0 -0.31088039126E+02 -0.17891362842E+02 -0.74902843186E+01  0.13026122885E+03  0.12500126535E+03 0.  0.
          5    1    3    3  501    0 -0.27961491432E+02 -0.27205343873E+02 -0.31257114999E+02  0.50210287556E+02  0.47000000000E+01 0.  1.
         -5    1    3    3    0  501  0.59049530558E+02  0.45096706715E+02  0.28891922577E+02  0.79858582544E+02  0.47000000000E+01 0.  1.
          5    1    4    4  502    0 -0.35617390548E+02 -0.27728228831E+02 -0.60682119940E+02  0.75775080758E+02  0.47000000000E+01 0.  1.
         -5    1    4    4    0  502  0.45293514214E+01  0.98368659886E+01  0.53191835621E+02  0.54486148088E+02  0.47000000000E+01 0.  1.
<mgrwt>
<rscale>  0 0.26014348E+03</rscale>
<asrwt>0</asrwt>
<pdfrwt beam="1">  1       21 0.19267279E-01 0.26014348E+03</pdfrwt>
<pdfrwt beam="2">  1       21 0.20783506E-01 0.26014348E+03</pdfrwt>
<totfact> 0.52493001E+05</totfact>
</mgrwt>
</event>
<event>
 8    1  0.9529436E-006  0.2947862E+03  0.7546771E-02  0.1087876E+00
         21   -1    0    0  504  503  0.00000000000E+00  0.00000000000E+00  0.15111559754E+03  0.15111559754E+03  0.00000000000E+00 0.  1.
         21   -1    0    0  503  504 -0.00000000000E+00 -0.00000000000E+00 -0.14376225328E+03  0.14376225328E+03  0.00000000000E+00 0.  1.
         25    2    1    2    0    0 -0.59734390258E+02 -0.19636010398E+02 -0.42645664620E+02  0.14627535694E+03  0.12499622815E+03 0.  0.
         25    2    1    2    0    0  0.59734390258E+02  0.19636010398E+02  0.49999008876E+02  0.14860249389E+03  0.12501611903E+03 0.  0.
          5    1    3    3  501    0  0.10735502065E+02  0.13357208318E+02  0.33109335410E+02  0.37576377020E+02  0.47000000000E+01 0.  1.
         -5    1    3    3    0  501 -0.70469892323E+02 -0.32993218716E+02 -0.75755000030E+02  0.10869897992E+03  0.47000000000E+01 0.  1.
          5    1    4    4  502    0  0.62673062708E+02 -0.27727387434E+02 -0.12671141914E+02  0.69852477698E+02  0.47000000000E+01 0. -1.
         -5    1    4    4    0  502 -0.29386724506E+01  0.47363397832E+02  0.62670150790E+02  0.78750016190E+02  0.47000000000E+01 0. -1.
<mgrwt>
<rscale>  0 0.29478615E+03</rscale>
<asrwt>0</asrwt>
<pdfrwt beam="1">  1       21 0.23248554E-01 0.29478615E+03</pdfrwt>
<pdfrwt beam="2">  1       21 0.22117270E-01 0.29478615E+03</pdfrwt>
<totfact> 0.32484489E+05</totfact>
</mgrwt>
</event>
<event>
 8    1  0.9529436E-006  0.2798379E+03  0.7546771E-02  0.1095778E+00
         21   -1    0    0  504  503  0.00000000000E+00  0.00000000000E+00  0.38983574910E+03  0.38983574910E+03  0.00000000000E+00 0. -1.
         21   -1    0    0  503  504 -0.00000000000E+00 -0.00000000000E+00 -0.50219381657E+02  0.50219381657E+02  0.00000000000E+00 0. -1.
         25    2    1    2    0    0  0.72470911808E+01  0.13894200754E+02  0.26553233285E+03  0.29389906788E+03  0.12499469257E+03 0.  0.
         25    2    1    2    0    0 -0.72470911808E+01 -0.13894200754E+02  0.74084034593E+02  0.14615606287E+03  0.12501032512E+03 0.  0.
          5    1    3    3  501    0  0.21818275270E+02 -0.28886551564E+02  0.15310228142E+02  0.39584884524E+02  0.47000000000E+01 0.  1.
         -5    1    3    3    0  501 -0.14571184089E+02  0.42780752318E+02  0.25022210471E+03  0.25431418336E+03  0.47000000000E+01 0.  1.
          5    1    4    4  502    0 -0.28268362529E+02  0.42432910990E+02  0.68599914427E+02  0.85601930554E+02  0.47000000000E+01 0.  1.
         -5    1    4    4    0  502  0.21021271349E+02 -0.56327111744E+02  0.54841201659E+01  0.60554132316E+02  0.47000000000E+01 0.  1.
<mgrwt>
<rscale>  0 0.27983788E+03</rscale>
<asrwt>0</asrwt>
<pdfrwt beam="1">  1       21 0.59974729E-01 0.27983788E+03</pdfrwt>
<pdfrwt beam="2">  1       21 0.77260590E-02 0.27983788E+03</pdfrwt>
<totfact> 0.32381966E+05</totfact>
</mgrwt>
</event>
<event>
 8    1  0.9529436E-006  0.2562645E+03  0.7546771E-02  0.1109409E+00
         21   -1    0    0  504  503  0.00000000000E+00  0.00000000000E+00  0.17634013801E+03  0.17634013801E+03  0.00000000000E+00 0.  1.
         21   -1    0    0  503  504 -0.00000000000E+00 -0.00000000000E+00 -0.93103406554E+02  0.93103406554E+02  0.00000000000E+00 0.  1.
         25    2    1    2    0    0  0.44950454850E+01 -0.20105393729E+00  0.70840590502E+02  0.14374914561E+03  0.12500072698E+03 0.  0.
         25    2    1    2    0    0 -0.44950454850E+01  0.20105393729E+00  0.12396140957E+02  0.12569439895E+03  0.12500068704E+03 0.  0.
          5    1    3    3  501    0  0.21482696267E+01  0.61036467014E+02  0.21453753652E+02  0.64903150260E+02  0.47000000000E+01 0.  1.
         -5    1    3    3    0  501  0.23467758582E+01 -0.61237520951E+02  0.49386836850E+02  0.78845995353E+02  0.47000000000E+01 0.  1.
          5    1    4    4  502    0 -0.24399476146E+02 -0.12356838520E+02  0.63465204490E+02  0.69267222230E+02  0.47000000000E+01 0. -1.
         -5    1    4    4    0  502  0.19904430661E+02  0.12557892458E+02 -0.51069063533E+02  0.56427176725E+02  0.47000000000E+01 0. -1.
<mgrwt>
<rscale>  0 0.25626445E+03</rscale>
<asrwt>0</asrwt>
<pdfrwt beam="1">  1       21 0.27129252E-01 0.25626445E+03</pdfrwt>
<pdfrwt beam="2">  1       21 0.14323601E-01 0.25626445E+03</pdfrwt>
<totfact> 0.54597048E+05</totfact>
</mgrwt>
</event>
<event>
 8    1  0.9529436E-006  0.2541365E+03  0.7546771E-02  0.1110718E+00
         21   -1    0    0  504  503  0.00000000000E+00  0.00000000000E+00  0.24312944752E+03  0.24312944752E+03  0.00000000000E+00 0. -1.
         21   -1    0    0  503  504 -0.00000000000E+00 -0.00000000000E+00 -0.66410445120E+02  0.66410445120E+02  0.00000000000E+00 0. -1.
         25    2    1    2    0    0 -0.16861688376E+02 -0.11164921906E+02  0.75443153886E+02  0.14739472013E+03  0.12499824814E+03 0.  0.
         25    2    1    2    0    0  0.16861688376E+02  0.11164921906E+02  0.10127584851E+03  0.16214517250E+03  0.12500114983E+03 0.  0.
          5    1    3    3  501    0  0.89764748884E+01 -0.16759203122E+02  0.10537757726E+03  0.10718195641E+03  0.47000000000E+01 0. -1.
         -5    1    3    3    0  501 -0.25838163264E+02  0.55942812162E+01 -0.29934423377E+02  0.40212763721E+02  0.47000000000E+01 0. -1.
          5    1    4    4  502    0 -0.10153786461E+02 -0.52342524728E+02  0.24693895527E+02  0.58946736557E+02  0.47000000000E+01 0. -1.
         -5    1    4    4    0  502  0.27015474836E+02  0.63507446635E+02  0.76581952987E+02  0.10319843595E+03  0.47000000000E+01 0. -1.
<mgrwt>
<rscale>  0 0.25413646E+03</rscale>
<asrwt>0</asrwt>
<pdfrwt beam="1">  1       21 0.37404530E-01 0.25413646E+03</pdfrwt>
<pdfrwt beam="2">  1       21 0.10216992E-01 0.25413646E+03</pdfrwt>
<totfact> 0.53222848E+05</totfact>
</mgrwt>
</event>
<event>
 8    1  0.9529436E-006  0.2550349E+03  0.7546771E-02  0.1110164E+00
         21   -1    0    0  504  503  0.00000000000E+00  0.00000000000E+00  0.11472427139E+04  0.11472427139E+04  0.00000000000E+00 0. -1.
         21   -1    0    0  503  504 -0.00000000000E+00 -0.00000000000E+00 -0.14173719519E+02  0.14173719519E+02  0.00000000000E+00 0. -1.
         25    2    1    2    0    0  0.30074244632E+01  0.18237838248E+02  0.64451525057E+03  0.65678546262E+03  0.12500228932E+03 0.  0.
         25    2    1    2    0    0 -0.30074244632E+01 -0.18237838248E+02  0.48855374383E+03  0.50463097083E+03  0.12500397098E+03 0.  0.
          5    1    3    3  501    0  0.63121464431E+02  0.15116002944E+02  0.37340414186E+03  0.37903239436E+03  0.47000000000E+01 0.  1.
         -5    1    3    3    0  501 -0.60114039967E+02  0.31218353031E+01  0.27111110871E+03  0.27775306825E+03  0.47000000000E+01 0.  1.
          5    1    4    4  502    0 -0.17169254505E+02 -0.44149088960E+02  0.46258468324E+03  0.46502753093E+03  0.47000000000E+01 0. -1.
         -5    1    4    4    0  502  0.14161830041E+02  0.25911250713E+02  0.25969060592E+02  0.39603439896E+02  0.47000000000E+01 0. -1.
<mgrwt>
<rscale>  0 0.25503487E+03</rscale>
<asrwt>0</asrwt>
<pdfrwt beam="1">  1       21 0.17649881E+00 0.25503487E+03</pdfrwt>
<pdfrwt beam="2">  1       21 0.21805731E-02 0.25503487E+03</pdfrwt>
<totfact> 0.20027094E+05</totfact>
</mgrwt>
</event>
<event>
 8    1  0.9529436E-006  0.4724293E+03  0.7546771E-02  0.1021237E+00
         21   -1    0    0  504  503  0.00000000000E+00  0.00000000000E+00  0.78253702233E+03  0.78253702233E+03  0.00000000000E+00 0.  1.
         21   -1    0    0  503  504 -0.00000000000E+00 -0.00000000000E+00 -0.71303148437E+02  0.71303148437E+02  0.00000000000E+00 0.  1.
         25    2    1    2    0    0  0.16938679785E+03  0.10503751236E+03  0.31732912021E+03  0.39502620524E+03  0.12499266382E+03 0.  0.
         25    2    1    2    0    0 -0.16938679785E+03 -0.10503751236E+03  0.39390475369E+03  0.45881396552E+03  0.12499813475E+03 0.  0.
          5    1    3    3  501    0  0.17348868699E+03  0.65124320438E+02  0.20874279139E+03  0.27916866691E+03  0.47000000000E+01 0.  1.
         -5    1    3    3    0  501 -0.41018891368E+01  0.39913191919E+02  0.10858632881E+03  0.11585753833E+03  0.47000000000E+01 0.  1.
          5    1    4    4  502    0 -0.61505271983E+02 -0.66277936071E+02  0.67792015084E+02  0.11310840199E+03  0.47000000000E+01 0. -1.
         -5    1    4    4    0  502 -0.10788152587E+03 -0.38759576286E+02  0.32611273860E+03  0.34570556353E+03  0.47000000000E+01 0. -1.
<mgrwt>
<rscale>  0 0.47242927E+03</rscale>
<asrwt>0</asrwt>
<pdfrwt beam="1">  1       21 0.12039030E+00 0.47242927E+03</pdfrwt>
<pdfrwt beam="2">  1       21 0.10969716E-01 0.47242927E+03</pdfrwt>
<totfact> 0.32543527E+04</totfact>
</mgrwt>
</event>
<event>
 8    1  0.9529436E-006  0.4004424E+03  0.7546771E-02  0.1043627E+00
         21   -1    0    0  504  503  0.00000000000E+00  0.00000000000E+00  0.22676326159E+03  0.22676326159E+03  0.00000000000E+00 0. -1.
         21   -1    0    0  503  504 -0.00000000000E+00 -0.00000000000E+00 -0.17678583252E+03  0.17678583252E+03  0.00000000000E+00 0. -1.
         25    2    1    2    0    0  0.35601806735E+02 -0.14833012506E+03  0.59816713650E+02  0.20608806365E+03  0.12499974441E+03 0.  0.
         25    2    1    2    0    0 -0.35601806735E+02  0.14833012506E+03 -0.98392845811E+01  0.19746103047E+03  0.12499892956E+03 0.  0.
          5    1    3    3  501    0 -0.90475658066E+01 -0.44316677734E+02  0.79031806723E+02  0.91180824993E+02  0.47000000000E+01 0. -1.
         -5    1    3    3    0  501  0.44649372542E+02 -0.10401344733E+03 -0.19215093074E+02  0.11490723865E+03  0.47000000000E+01 0. -1.
          5    1    4    4  502    0 -0.47809496755E+02  0.16655814471E+03 -0.10116000977E+01  0.17335073372E+03  0.47000000000E+01 0.  1.
         -5    1    4    4    0  502  0.12207690020E+02 -0.18228019646E+02 -0.88276844834E+01  0.24110296746E+02  0.47000000000E+01 0.  1.
<mgrwt>
<rscale>  0 0.40044242E+03</rscale>
<asrwt>0</asrwt>
<pdfrwt beam="1">  1       21 0.34886656E-01 0.40044242E+03</pdfrwt>
<pdfrwt beam="2">  1       21 0.27197820E-01 0.40044242E+03</pdfrwt>
<totfact> 0.96113293E+04</totfact>
</mgrwt>
</event>
<event>
 8    1  0.9529436E-006  0.2623245E+03  0.7546771E-02  0.1105755E+00
         21   -1    0    0  504  503  0.00000000000E+00  0.00000000000E+00  0.81214283332E+01  0.81214283332E+01  0.00000000000E+00 0. -1.
         21   -1    0    0  503  504 -0.00000000000E+00 -0.00000000000E+00 -0.21182887776E+04  0.21182887776E+04  0.00000000000E+00 0. -1.
         25    2    1    2    0    0 -0.11898731007E+02 -0.46965527497E+01 -0.13601677672E+04  0.13659592035E+04  0.12499821379E+03 0.  0.
         25    2    1    2    0    0  0.11898731007E+02  0.46965527497E+01 -0.74999958208E+03  0.76045100239E+03  0.12499086568E+03 0.  0.
          5    1    3    3  501    0 -0.58536589004E+02 -0.24563925526E+02 -0.10220192429E+04  0.10239996785E+04  0.47000000000E+01 0. -1.
         -5    1    3    3    0  501  0.46637857997E+02  0.19867372776E+02 -0.33814852428E+03  0.34195952505E+03  0.47000000000E+01 0. -1.
          5    1    4    4  502    0  0.57240997159E+02  0.37560812771E+02 -0.45505346603E+03  0.46019897148E+03  0.47000000000E+01 0.  1.
         -5    1    4    4    0  502 -0.45342266152E+02 -0.32864260022E+02 -0.29494611606E+03  0.30025203091E+03  0.47000000000E+01 0.  1.
<mgrwt>
<rscale>  0 0.26232446E+03</rscale>
<asrwt>0</asrwt>
<pdfrwt beam="1">  1       21 0.12494482E-02 0.26232446E+03</pdfrwt>
<pdfrwt beam="2">  1       21 0.32589118E+00 0.26232446E+03</pdfrwt>
<totfact> 0.60125826E+04</totfact>
</mgrwt>
</event>
<event>
 8    1  0.9529436E-006  0.2633415E+03  0.7546771E-02  0.1105152E+00
         21   -1    0    0  504  503  0.00000000000E+00  0.00000000000E+00  0.11092085929E+03  0.11092085929E+03  0.00000000000E+00 0.  1.
         21   -1    0    0  503  504 -0.00000000000E+00 -0.00000000000E+00 -0.15630225846E+03  0.15630225846E+03  0.00000000000E+00 0.  1.
         25    2    1    2    0    0  0.91585542479E+01 -0.29830289773E+02 -0.50295154194E+02  0.13829299404E+03  0.12498649672E+03 0.  0.
         25    2    1    2    0    0 -0.91585542479E+01  0.29830289773E+02  0.49137550275E+01  0.12893012371E+03  0.12500042603E+03 0.  0.
          5    1    3    3  501    0 -0.55361637928E+02  0.31290397756E+01 -0.15407881755E+02  0.57742485781E+02  0.47000000000E+01 0. -1.
         -5    1    3    3    0  501  0.64520192176E+02 -0.32959329548E+02 -0.34887272439E+02  0.80550508260E+02  0.47000000000E+01 0. -1.
          5    1    4    4  502    0 -0.97107375881E+01  0.36707752516E+02  0.61119837238E+02  0.72107433897E+02  0.47000000000E+01 0.  1.
         -5    1    4    4    0  502  0.55218334020E+00 -0.68774627429E+01 -0.56206082211E+02  0.56822689814E+02  0.47000000000E+01 0.  1.
<mgrwt>
<rscale>  0 0.26334146E+03</rscale>
<asrwt>0</asrwt>
<pdfrwt beam="1">  1       21 0.17064748E-01 0.26334146E+03</pdfrwt>
<pdfrwt beam="2">  1       21 0.24046501E-01 0.26334146E+03</pdfrwt>
<totfact> 0.49852520E+05</totfact>
</mgrwt>
</event>
<event>
 8    1  0.9529436E-006  0.3188564E+03  0.7546771E-02  0.1076177E+00
         21   -1    0    0  504  503  0.00000000000E+00  0.00000000000E+00  0.22289081264E+03  0.22289081264E+03  0.00000000000E+00 0. -1.
         21   -1    0    0  503  504 -0.00000000000E+00 -0.00000000000E+00 -0.11403499204E+03  0.11403499204E+03  0.00000000000E+00 0. -1.
         25    2    1    2    0    0  0.60592725432E+01  0.58687287296E+02 -0.29524738176E+02  0.14133381237E+03  0.12499049516E+03 0.  0.
         25    2    1    2    0    0 -0.60592725432E+01 -0.58687287296E+02  0.13838055877E+03  0.19559199231E+03  0.12500454367E+03 0.  0.
          5    1    3    3  501    0  0.10568890877E+02  0.35577250113E+02 -0.78406152131E+02  0.86873798535E+02  0.47000000000E+01 0. -1.
         -5    1    3    3    0  501 -0.45096183334E+01  0.23110037183E+02  0.48881413955E+02  0.54460013830E+02  0.47000000000E+01 0. -1.
          5    1    4    4  502    0  0.50051637621E+02 -0.24643812718E+01  0.88106492125E+02  0.10146961889E+03  0.47000000000E+01 0.  1.
         -5    1    4    4    0  502 -0.56110910164E+02 -0.56222906025E+02  0.50274066646E+02  0.94122373421E+02  0.47000000000E+01 0.  1.
<mgrwt>
<rscale>  0 0.31885641E+03</rscale>
<asrwt>0</asrwt>
<pdfrwt beam="1">  1       21 0.34290894E-01 0.31885641E+03</pdfrwt>
<pdfrwt beam="2">  1       21 0.17543845E-01 0.31885641E+03</pdfrwt>
<totfact> 0.23386851E+05</totfact>
</mgrwt>
</event>
<event>
 8    1  0.9529436E-006  0.3494919E+03  0.7546771E-02  0.1062824E+00
         21   -1    0    0  504  503  0.00000000000E+00  0.00000000000E+00  0.19150002794E+03  0.19150002794E+03  0.00000000000E+00 0. -1.
         21   -1    0    0  503  504 -0.00000000000E+00 -0.00000000000E+00 -0.15945765536E+03  0.15945765536E+03  0.00000000000E+00 0. -1.
         25    2    1    2    0    0 -0.42809877309E+02 -0.19971580268E+02 -0.97060251786E+02  0.16515875718E+03  0.12500069193E+03 0.  0.
         25    2    1    2    0    0  0.42809877309E+02  0.19971580268E+02  0.12910262436E+03  0.18579892612E+03  0.12498881437E+03 0.  0.
          5    1    3    3  501    0  0.38062763452E+02 -0.31866590018E+00 -0.65740374329E+02  0.76110198571E+02  0.47000000000E+01 0. -1.
         -5    1    3    3    0  501 -0.80872640762E+02 -0.19652914368E+02 -0.31319877457E+02  0.89048558612E+02  0.47000000000E+01 0. -1.
          5    1    4    4  502    0  0.84174151819E+02  0.16173547590E+02  0.11080434983E+03  0.14016620640E+03  0.47000000000E+01 0. -1.
         -5    1    4    4    0  502 -0.41364274510E+02  0.37980326784E+01  0.18298274529E+02  0.45632719716E+02  0.47000000000E+01 0. -1.
<mgrwt>
<rscale>  0 0.34949189E+03</rscale>
<asrwt>0</asrwt>
<pdfrwt beam="1">  1       21 0.29461543E-01 0.34949189E+03</pdfrwt>
<pdfrwt beam="2">  1       21 0.24531947E-01 0.34949189E+03</pdfrwt>
<totfact> 0.16630729E+05</totfact>
</mgrwt>
</event>
<event>
 8    1  0.9529436E-006  0.2585499E+03  0.7546771E-02  0.1108018E+00
         21   -1    0    0  504  503  0.00000000000E+00  0.00000000000E+00  0.31519118492E+02  0.31519118492E+02  0.00000000000E+00 0. -1.
         21   -1    0    0  503  504 -0.00000000000E+00 -0.00000000000E+00 -0.53021816753E+03  0.53021816753E+03  0.00000000000E+00 0. -1.
         25    2    1    2    0    0  0.13307646515E+02  0.14921620755E+02 -0.30641331999E+03  0.33152045795E+03  0.12496776845E+03 0.  0.
         25    2    1    2    0    0 -0.13307646515E+02 -0.14921620755E+02 -0.19228572905E+03  0.23021682807E+03  0.12500495234E+03 0.  0.
          5    1    3    3  501    0 -0.23040206278E+02  0.57291725762E+02 -0.21988541219E+03  0.22844009595E+03  0.47000000000E+01 0. -1.
         -5    1    3    3    0  501  0.36347852794E+02 -0.42370105007E+02 -0.86527907797E+02  0.10308036199E+03  0.47000000000E+01 0. -1.
          5    1    4    4  502    0  0.50617366526E+02 -0.68580352689E+01 -0.40840504443E+02  0.65568187751E+02  0.47000000000E+01 0. -1.
         -5    1    4    4    0  502 -0.63925013042E+02 -0.80635854862E+01 -0.15144522461E+03  0.16464864032E+03  0.47000000000E+01 0. -1.
<mgrwt>
<rscale>  0 0.25854987E+03</rscale>
<asrwt>0</asrwt>
<pdfrwt beam="1">  1       21 0.48490954E-02 0.25854987E+03</pdfrwt>
<pdfrwt beam="2">  1       21 0.81572022E-01 0.25854987E+03</pdfrwt>
<totfact> 0.36679350E+05</totfact>
</mgrwt>
</event>
<event>
 8    1  0.9529436E-006  0.2638145E+03  0.7546771E-02  0.1104873E+00
         21   -1    0    0  504  503  0.00000000000E+00  0.00000000000E+00  0.78806176232E+03  0.78806176232E+03  0.00000000000E+00 0. -1.
         21   -1    0    0  503  504 -0.00000000000E+00 -0.00000000000E+00 -0.22078890111E+02  0.22078890111E+02  0.00000000000E+00 0. -1.
         25    2    1    2    0    0 -0.19546773588E+02  0.32804825473E+02  0.43716830921E+03  0.45628861832E+03  0.12499975880E+03 0.  0.
         25    2    1    2    0    0  0.19546773588E+02 -0.32804825473E+02  0.32881456299E+03  0.35385203411E+03  0.12503604389E+03 0.  0.
          5    1    3    3  501    0 -0.25254201156E+01  0.77904958630E+02  0.32234180655E+03  0.33166532917E+03  0.47000000000E+01 0. -1.
         -5    1    3    3    0  501 -0.17021353472E+02 -0.45100133157E+02  0.11482650266E+03  0.12462328915E+03  0.47000000000E+01 0. -1.
          5    1    4    4  502    0  0.36136120497E+02  0.38597305289E+02  0.18355876254E+03  0.19107977518E+03  0.47000000000E+01 0.  1.
         -5    1    4    4    0  502 -0.16589346909E+02 -0.71402130762E+02  0.14525580046E+03  0.16277225892E+03  0.47000000000E+01 0.  1.
<mgrwt>
<rscale>  0 0.26381455E+03</rscale>
<asrwt>0</asrwt>
<pdfrwt beam="1">  1       21 0.12124025E+00 0.26381455E+03</pdfrwt>
<pdfrwt beam="2">  1       21 0.33967529E-02 0.26381455E+03</pdfrwt>
<totfact> 0.25919350E+05</totfact>
</mgrwt>
</event>
<event>
 8    1  0.9529436E-006  0.3970473E+03  0.7546771E-02  0.1044807E+00
         21   -1    0    0  504  503  0.00000000000E+00  0.00000000000E+00  0.48376672605E+02  0.48376672605E+02  0.00000000000E+00 0.  1.
         21   -1    0    0  503  504 -0.00000000000E+00 -0.00000000000E+00 -0.81468283810E+03  0.81468283810E+03  0.00000000000E+00 0.  1.
         25    2    1    2    0    0 -0.42640635267E+02  0.14374208028E+03 -0.30443149958E+03  0.36164119853E+03  0.12500323644E+03 0.  0.
         25    2    1    2    0    0  0.42640635267E+02 -0.14374208028E+03 -0.46187466592E+03  0.50141831217E+03  0.12494841874E+03 0.  0.
          5    1    3    3  501    0 -0.70998977185E+02  0.64576089543E+02 -0.91612331196E+02  0.13276232647E+03  0.47000000000E+01 0. -1.
         -5    1    3    3    0  501  0.28358341917E+02  0.79165990742E+02 -0.21281916838E+03  0.22887887206E+03  0.47000000000E+01 0. -1.
          5    1    4    4  502    0  0.53257703670E+02 -0.83499321676E+02 -0.40766291983E+03  0.41954697702E+03  0.47000000000E+01 0. -1.
         -5    1    4    4    0  502 -0.10617068402E+02 -0.60242758609E+02 -0.54211746088E+02  0.81871335156E+02  0.47000000000E+01 0. -1.
<mgrwt>
<rscale>  0 0.39704733E+03</rscale>
<asrwt>0</asrwt>
<pdfrwt beam="1">  1       21 0.74425656E-02 0.39704733E+03</pdfrwt>
<pdfrwt beam="2">  1       21 0.12533581E+00 0.39704733E+03</pdfrwt>
<totfact> 0.59814623E+04</totfact>
</mgrwt>
</event>
<event>
 8    1  0.9529436E-006  0.3416688E+03  0.7546771E-02  0.1066087E+00
         21   -1    0    0  504  503  0.00000000000E+00  0.00000000000E+00  0.25380872913E+02  0.25380872913E+02  0.00000000000E+00 0.  1.
         21   -1    0    0  503  504 -0.00000000000E+00 -0.00000000000E+00 -0.11498579138E+04  0.11498579138E+04  0.00000000000E+00 0.  1.
         25    2    1    2    0    0  0.77848123617E+02 -0.69131427310E+02 -0.38283660003E+03  0.41596665616E+03  0.12499964850E+03 0.  0.
         25    2    1    2    0    0 -0.77848123617E+02  0.69131427310E+02 -0.74164044087E+03  0.75927213056E+03  0.12499656044E+03 0.  0.
          5    1    3    3  501    0 -0.17480907889E+02 -0.19764167499E+02 -0.21509317548E+03  0.21675647302E+03  0.47000000000E+01 0.  1.
         -5    1    3    3    0  501  0.95329031505E+02 -0.49367259811E+02 -0.16774342455E+03  0.19921018314E+03  0.47000000000E+01 0.  1.
          5    1    4    4  502    0 -0.11281810028E+02  0.54032862093E+02 -0.10278396673E+03  0.11676242221E+03  0.47000000000E+01 0. -1.
         -5    1    4    4    0  502 -0.66566313589E+02  0.15098565217E+02 -0.63885647414E+03  0.64250970835E+03  0.47000000000E+01 0. -1.
<mgrwt>
<rscale>  0 0.34166883E+03</rscale>
<asrwt>0</asrwt>
<pdfrwt beam="1">  1       21 0.39047489E-02 0.34166883E+03</pdfrwt>
<pdfrwt beam="2">  1       21 0.17690125E+00 0.34166883E+03</pdfrwt>
<totfact> 0.73014341E+04</totfact>
</mgrwt>
</event>
<event>
 8    1  0.9529436E-006  0.2713687E+03  0.7546771E-02  0.1100499E+00
         21   -1    0    0  504  503  0.00000000000E+00  0.00000000000E+00  0.52823240473E+02  0.52823240473E+02  0.00000000000E+00 0. -1.
         21   -1    0    0  503  504 -0.00000000000E+00 -0.00000000000E+00 -0.34852545426E+03  0.34852545426E+03  0.00000000000E+00 0. -1.
         25    2    1    2    0    0 -0.15079258440E+02  0.36230767350E+02 -0.20004682455E+03  0.23913188678E+03  0.12500109890E+03 0.  0.
         25    2    1    2    0    0  0.15079258440E+02 -0.36230767350E+02 -0.95655389243E+02  0.16221680795E+03  0.12499714698E+03 0.  0.
          5    1    3    3  501    0 -0.12799827373E+02  0.32625160096E+01  0.15566785252E+02  0.20949806552E+02  0.47000000000E+01 0. -1.
         -5    1    3    3    0  501 -0.22794310667E+01  0.32968251340E+02 -0.21561360980E+03  0.21818208023E+03  0.47000000000E+01 0. -1.
          5    1    4    4  502    0  0.27863293346E+02 -0.66360961745E+02 -0.13127735712E+02  0.73311443886E+02  0.47000000000E+01 0.  1.
         -5    1    4    4    0  502 -0.12784034906E+02  0.30130194395E+02 -0.82527653531E+02  0.88905364068E+02  0.47000000000E+01 0.  1.
<mgrwt>
<rscale>  0 0.27136871E+03</rscale>
<asrwt>0</asrwt>
<pdfrwt beam="1">  1       21 0.81266523E-02 0.27136871E+03</pdfrwt>
<pdfrwt beam="2">  1       21 0.53619301E-01 0.27136871E+03</pdfrwt>
<totfact> 0.37751653E+05</totfact>
</mgrwt>
</event>
<event>
 8    1  0.9529436E-006  0.2772347E+03  0.7546771E-02  0.1097209E+00
         21   -1    0    0  504  503  0.00000000000E+00  0.00000000000E+00  0.58809493007E+02  0.58809493007E+02  0.00000000000E+00 0.  1.
         21   -1    0    0  503  504 -0.00000000000E+00 -0.00000000000E+00 -0.32672905258E+03  0.32672905258E+03  0.00000000000E+00 0.  1.
         25    2    1    2    0    0 -0.29431350249E+02  0.51189867781E+02 -0.14816534361E+03  0.20263637903E+03  0.12498770387E+03 0.  0.
         25    2    1    2    0    0  0.29431350249E+02 -0.51189867781E+02 -0.11975421597E+03  0.18290216656E+03  0.12500209338E+03 0.  0.
          5    1    3    3  501    0  0.75024271689E+01  0.73330246446E+02 -0.35540493669E+02  0.81968458248E+02  0.47000000000E+01 0. -1.
         -5    1    3    3    0  501 -0.36933777418E+02 -0.22140378666E+02 -0.11262484994E+03  0.12066792078E+03  0.47000000000E+01 0. -1.
          5    1    4    4  502    0  0.61332433929E+02 -0.32301672071E+02 -0.14181216800E+02  0.70910241715E+02  0.47000000000E+01 0. -1.
         -5    1    4    4    0  502 -0.31901083679E+02 -0.18888195710E+02 -0.10557299917E+03  0.11199192484E+03  0.47000000000E+01 0. -1.
<mgrwt>
<rscale>  0 0.27723470E+03</rscale>
<asrwt>0</asrwt>
<pdfrwt beam="1">  1       21 0.90476143E-02 0.27723470E+03</pdfrwt>
<pdfrwt beam="2">  1       21 0.50266008E-01 0.27723470E+03</pdfrwt>
<totfact> 0.35777171E+05</totfact>
</mgrwt>
</event>
<event>
 8    1  0.9529436E-006  0.2568307E+03  0.7546771E-02  0.1109063E+00
         21   -1    0    0  504  503  0.00000000000E+00  0.00000000000E+00  0.14603870000E+02  0.14603870000E+02  0.00000000000E+00 0. -1.
         21   -1    0    0  503  504 -0.00000000000E+00 -0.00000000000E+00 -0.11291868136E+04  0.11291868136E+04  0.00000000000E+00 0. -1.
         25    2    1    2    0    0  0.74159291589E+01 -0.28481170898E+02 -0.55403246850E+03  0.56872051248E+03  0.12499948825E+03 0.  0.
         25    2    1    2    0    0 -0.74159291589E+01  0.28481170898E+02 -0.56055047512E+03  0.57507017113E+03  0.12499077356E+03 0.  0.
          5    1    3    3  501    0 -0.44425900354E+02  0.47318454382E+01 -0.40383126991E+03  0.40632232961E+03  0.47000000000E+01 0.  1.
         -5    1    3    3    0  501  0.51841829512E+02 -0.33213016336E+02 -0.15020119859E+03  0.16239818287E+03  0.47000000000E+01 0.  1.
          5    1    4    4  502    0 -0.16581924840E+02  0.42192753849E+02 -0.65916757533E+02  0.80139239031E+02  0.47000000000E+01 0. -1.
         -5    1    4    4    0  502  0.91659956810E+01 -0.13711582952E+02 -0.49463371758E+03  0.49493093210E+03  0.47000000000E+01 0. -1.
<mgrwt>
<rscale>  0 0.25683066E+03</rscale>
<asrwt>0</asrwt>
<pdfrwt beam="1">  1       21 0.22467490E-02 0.25683066E+03</pdfrwt>
<pdfrwt beam="2">  1       21 0.17372107E+00 0.25683066E+03</pdfrwt>
<totfact> 0.19927331E+05</totfact>
</mgrwt>
</event>
<event>
 8    1  0.9529436E-006  0.3458795E+03  0.7546771E-02  0.1064319E+00
         21   -1    0    0  504  503  0.00000000000E+00  0.00000000000E+00  0.21029321111E+03  0.21029321111E+03  0.00000000000E+00 0.  1.
         21   -1    0    0  503  504 -0.00000000000E+00 -0.00000000000E+00 -0.14222119047E+03  0.14222119047E+03  0.00000000000E+00 0.  1.
         25    2    1    2    0    0 -0.10272768862E+03 -0.36304212823E+02 -0.15986349312E+02  0.16659976822E+03  0.12501578111E+03 0.  0.
         25    2    1    2    0    0  0.10272768862E+03  0.36304212823E+02  0.84058369953E+02  0.18591463337E+03  0.12500986947E+03 0.  0.
          5    1    3    3  501    0  0.60986927635E+01  0.27380698458E+01 -0.46272559589E+02  0.46988624696E+02  0.47000000000E+01 0.  1.
         -5    1    3    3    0  501 -0.10882638138E+03 -0.39042282669E+02  0.30286210277E+02  0.11961114352E+03  0.47000000000E+01 0.  1.
          5    1    4    4  502    0  0.21621765565E+02 -0.50928726588E+01  0.91647640001E+02  0.94418313985E+02  0.47000000000E+01 0. -1.
         -5    1    4    4    0  502  0.81105923055E+02  0.41397085482E+02 -0.75892700481E+01  0.91496319384E+02  0.47000000000E+01 0. -1.
<mgrwt>
<rscale>  0 0.34587946E+03</rscale>
<asrwt>0</asrwt>
<pdfrwt beam="1">  1       21 0.32352802E-01 0.34587946E+03</pdfrwt>
<pdfrwt beam="2">  1       21 0.21880183E-01 0.34587946E+03</pdfrwt>
<totfact> 0.17220010E+05</totfact>
</mgrwt>
</event>
<event>
 8    1  0.9529436E-006  0.4168202E+03  0.7546771E-02  0.1038106E+00
         21   -1    0    0  504  503  0.00000000000E+00  0.00000000000E+00  0.21379650633E+03  0.21379650633E+03  0.00000000000E+00 0.  1.
         21   -1    0    0  503  504 -0.00000000000E+00 -0.00000000000E+00 -0.20315942618E+03  0.20315942618E+03  0.00000000000E+00 0.  1.
         25    2    1    2    0    0  0.55902350780E+01 -0.11573813006E+03  0.12528968000E+03  0.21153963876E+03  0.12499979751E+03 0.  0.
         25    2    1    2    0    0 -0.55902350780E+01  0.11573813006E+03 -0.11465259985E+03  0.20541629374E+03  0.12499627837E+03 0.  0.
          5    1    3    3  501    0  0.35544757012E+02  0.91164211404E+01  0.86132586850E+01  0.37984432477E+02  0.47000000000E+01 0. -1.
         -5    1    3    3    0  501 -0.29954521934E+02 -0.12485455120E+03  0.11667642131E+03  0.17355520629E+03  0.47000000000E+01 0. -1.
          5    1    4    4  502    0 -0.14146571762E+02  0.12720356239E+03 -0.47504291893E+02  0.13660021788E+03  0.47000000000E+01 0.  1.
         -5    1    4    4    0  502  0.85563366839E+01 -0.11465432331E+02 -0.67148307952E+02  0.68816075860E+02  0.47000000000E+01 0.  1.
<mgrwt>
<rscale>  0 0.41682023E+03</rscale>
<asrwt>0</asrwt>
<pdfrwt beam="1">  1       21 0.32891770E-01 0.41682023E+03</pdfrwt>
<pdfrwt beam="2">  1       21 0.31255296E-01 0.41682023E+03</pdfrwt>
<totfact> 0.81917907E+04</totfact>
</mgrwt>
</event>
<event>
 8    1  0.9529436E-006  0.2881998E+03  0.7546771E-02  0.1091293E+00
         21   -1    0    0  504  503  0.00000000000E+00  0.00000000000E+00  0.94485979367E+02  0.94485979367E+02  0.00000000000E+00 0. -1.
         21   -1    0    0  503  504 -0.00000000000E+00 -0.00000000000E+00 -0.21976576942E+03  0.21976576942E+03  0.00000000000E+00 0. -1.
         25    2    1    2    0    0  0.20218715844E+02 -0.68708268537E+02 -0.60090734573E+02  0.15611617397E+03  0.12502696012E+03 0.  0.
         25    2    1    2    0    0 -0.20218715844E+02  0.68708268537E+02 -0.65189055484E+02  0.15813557482E+03  0.12501049730E+03 0.  0.
          5    1    3    3  501    0 -0.15932276313E+02 -0.65720168048E+01  0.33526509990E+02  0.37988757620E+02  0.47000000000E+01 0.  1.
         -5    1    3    3    0  501  0.36150992157E+02 -0.62136251732E+02 -0.93617244563E+02  0.11812741635E+03  0.47000000000E+01 0.  1.
          5    1    4    4  502    0  0.20757339781E+02  0.82657414066E+02 -0.74864604468E+02  0.11353375823E+03  0.47000000000E+01 0. -1.
         -5    1    4    4    0  502 -0.40976055625E+02 -0.13949145529E+02  0.96755489837E+01  0.44601816597E+02  0.47000000000E+01 0. -1.
<mgrwt>
<rscale>  0 0.28819982E+03</rscale>
<asrwt>0</asrwt>
<pdfrwt beam="1">  1       21 0.14536305E-01 0.28819982E+03</pdfrwt>
<pdfrwt beam="2">  1       21 0.33810118E-01 0.28819982E+03</pdfrwt>
<totfact> 0.34266687E+05</totfact>
</mgrwt>
</event>
<event>
 8    1  0.9529436E-006  0.3932980E+03  0.7546771E-02  0.1046125E+00
         21   -1    0    0  504  503  0.00000000000E+00  0.00000000000E+00  0.96292204097E+02  0.96292204097E+02  0.00000000000E+00 0.  1.
         21   -1    0    0  503  504 -0.00000000000E+00 -0.00000000000E+00 -0.40159868768E+03  0.40159868768E+03  0.00000000000E+00 0.  1.
         25    2    1    2    0    0 -0.60887154399E+02 -0.10758933203E+03 -0.41110045929E+02  0.18054829358E+03  0.12499976200E+03 0.  0.
         25    2    1    2    0    0  0.60887154399E+02  0.10758933203E+03 -0.26419643766E+03  0.31734259820E+03  0.12499542802E+03 0.  0.
          5    1    3    3  501    0 -0.25416326220E+01 -0.48296992603E+02  0.40994102535E+02  0.63574097190E+02  0.47000000000E+01 0.  1.
         -5    1    3    3    0  501 -0.58345521777E+02 -0.59292339423E+02 -0.82104148464E+02  0.11697419639E+03  0.47000000000E+01 0.  1.
          5    1    4    4  502    0 -0.11072952114E+00  0.39793538212E+02 -0.20416293650E+03  0.20805800293E+03  0.47000000000E+01 0. -1.
         -5    1    4    4    0  502  0.60997883920E+02  0.67795793814E+02 -0.60033501156E+02  0.10928459527E+03  0.47000000000E+01 0. -1.
<mgrwt>
<rscale>  0 0.39329797E+03</rscale>
<asrwt>0</asrwt>
<pdfrwt beam="1">  1       21 0.14814185E-01 0.39329797E+03</pdfrwt>
<pdfrwt beam="2">  1       21 0.61784413E-01 0.39329797E+03</pdfrwt>
<totfact> 0.91904889E+04</totfact>
</mgrwt>
</event>
<event>
 8    1  0.9529436E-006  0.2712037E+03  0.7546771E-02  0.1100593E+00
         21   -1    0    0  504  503  0.00000000000E+00  0.00000000000E+00  0.17075847545E+03  0.17075847545E+03  0.00000000000E+00 0. -1.
         21   -1    0    0  503  504 -0.00000000000E+00 -0.00000000000E+00 -0.10768348473E+03  0.10768348473E+03  0.00000000000E+00 0. -1.
         25    2    1    2    0    0 -0.40585859355E+02  0.13074401924E+02  0.63123444430E+02  0.14638133741E+03  0.12499909895E+03 0.  0.
         25    2    1    2    0    0  0.40585859355E+02 -0.13074401924E+02 -0.48453711358E-01  0.13206062277E+03  0.12498741446E+03 0.  0.
          5    1    3    3  501    0  0.15322386132E+02 -0.40915513357E+02  0.51427655504E+02  0.67644279142E+02  0.47000000000E+01 0.  1.
         -5    1    3    3    0  501 -0.55908245488E+02  0.53989915280E+02  0.11695788926E+02  0.78737058264E+02  0.47000000000E+01 0.  1.
          5    1    4    4  502    0 -0.28386269055E+02  0.20596382447E+02  0.32980522515E+02  0.48371438950E+02  0.47000000000E+01 0. -1.
         -5    1    4    4    0  502  0.68972128411E+02 -0.33670784370E+02 -0.33028976226E+02  0.83689183818E+02  0.47000000000E+01 0. -1.
<mgrwt>
<rscale>  0 0.27120374E+03</rscale>
<asrwt>0</asrwt>
<pdfrwt beam="1">  1       21 0.26270535E-01 0.27120374E+03</pdfrwt>
<pdfrwt beam="2">  1       21 0.16566690E-01 0.27120374E+03</pdfrwt>
<totfact> 0.44357588E+05</totfact>
</mgrwt>
</event>
<event>
 8    1  0.9529436E-006  0.2970338E+03  0.7546771E-02  0.1086733E+00
         21   -1    0    0  504  503  0.00000000000E+00  0.00000000000E+00  0.18538766573E+02  0.18538766573E+02  0.00000000000E+00 0.  1.
         21   -1    0    0  503  504 -0.00000000000E+00 -0.00000000000E+00 -0.11897918145E+04  0.11897918145E+04  0.00000000000E+00 0.  1.
         25    2    1    2    0    0 -0.61300660126E+02 -0.21049094067E+02 -0.77771524229E+03  0.79036203133E+03  0.12502122692E+03 0.  0.
         25    2    1    2    0    0  0.61300660126E+02  0.21049094067E+02 -0.39353780561E+03  0.41796854971E+03  0.12499947526E+03 0.  0.
          5    1    3    3  501    0  0.29543457998E+02 -0.32580018290E+02 -0.16507710042E+03  0.17090000757E+03  0.47000000000E+01 0.  1.
         -5    1    3    3    0  501 -0.90844118124E+02  0.11530924223E+02 -0.61263814187E+03  0.61946202376E+03  0.47000000000E+01 0.  1.
          5    1    4    4  502    0  0.33382177085E+02  0.72934812794E+02 -0.19765431241E+03  0.21336160358E+03  0.47000000000E+01 0.  1.
         -5    1    4    4    0  502  0.27918483041E+02 -0.51885718728E+02 -0.19588349319E+03  0.20460694614E+03  0.47000000000E+01 0.  1.
<mgrwt>
<rscale>  0 0.29703382E+03</rscale>
<asrwt>0</asrwt>
<pdfrwt beam="1">  1       21 0.28521189E-02 0.29703382E+03</pdfrwt>
<pdfrwt beam="2">  1       21 0.18304483E+00 0.29703382E+03</pdfrwt>
<totfact> 0.11395333E+05</totfact>
</mgrwt>
</event>
<event>
 8    1  0.9529436E-006  0.3858289E+03  0.7546771E-02  0.1048800E+00
         21   -1    0    0  504  503  0.00000000000E+00  0.00000000000E+00  0.28992970643E+03  0.28992970643E+03  0.00000000000E+00 0. -1.
         21   -1    0    0  503  504 -0.00000000000E+00 -0.00000000000E+00 -0.12836207693E+03  0.12836207693E+03  0.00000000000E+00 0. -1.
         25    2    1    2    0    0 -0.98328137037E+02 -0.27598079677E+02 -0.33753820382E+02  0.16490643307E+03  0.12499893897E+03 0.  0.
         25    2    1    2    0    0  0.98328137037E+02  0.27598079677E+02  0.19532144988E+03  0.25338535029E+03  0.12499436157E+03 0.  0.
          5    1    3    3  501    0 -0.58043968348E+02  0.19449604170E+02 -0.69903242915E+02  0.93037319039E+02  0.47000000000E+01 0.  1.
         -5    1    3    3    0  501 -0.40284168689E+02 -0.47047683847E+02  0.36149422533E+02  0.71869114033E+02  0.47000000000E+01 0.  1.
          5    1    4    4  502    0 -0.17673208360E+01  0.81208071575E+01  0.13392151672E+03  0.13426143739E+03  0.47000000000E+01 0. -1.
         -5    1    4    4    0  502  0.10009545787E+03  0.19477272520E+02  0.61399933168E+02  0.11912391290E+03  0.47000000000E+01 0. -1.
<mgrwt>
<rscale>  0 0.38582887E+03</rscale>
<asrwt>0</asrwt>
<pdfrwt beam="1">  1       21 0.44604570E-01 0.38582887E+03</pdfrwt>
<pdfrwt beam="2">  1       21 0.19748012E-01 0.38582887E+03</pdfrwt>
<totfact> 0.10789515E+05</totfact>
</mgrwt>
</event>
<event>
 8    1  0.9529436E-006  0.3071856E+03  0.7546771E-02  0.1081703E+00
         21   -1    0    0  504  503  0.00000000000E+00  0.00000000000E+00  0.21879139833E+02  0.21879139833E+02  0.00000000000E+00 0.  1.
         21   -1    0    0  503  504 -0.00000000000E+00 -0.00000000000E+00 -0.10782298089E+04  0.10782298089E+04  0.00000000000E+00 0.  1.
         25    2    1    2    0    0  0.47102087327E+02 -0.42078348006E+02 -0.30244284581E+03  0.33330304843E+03  0.12502021080E+03 0.  0.
         25    2    1    2    0    0 -0.47102087327E+02  0.42078348006E+02 -0.75390782325E+03  0.76680590030E+03  0.12500035508E+03 0.  0.
          5    1    3    3  501    0  0.58278559128E+02  0.30016023705E+02 -0.12122919493E+03  0.13789836778E+03  0.47000000000E+01 0.  1.
         -5    1    3    3    0  501 -0.11176471801E+02 -0.72094371711E+02 -0.18121365087E+03  0.19540468064E+03  0.47000000000E+01 0.  1.
          5    1    4    4  502    0 -0.15050180318E+02 -0.10660333442E+02 -0.12391549136E+02  0.22711035350E+02  0.47000000000E+01 0. -1.
         -5    1    4    4    0  502 -0.32051907009E+02  0.52738681448E+02 -0.74151627412E+03  0.74409486495E+03  0.47000000000E+01 0. -1.
<mgrwt>
<rscale>  0 0.30718555E+03</rscale>
<asrwt>0</asrwt>
<pdfrwt beam="1">  1       21 0.33660205E-02 0.30718555E+03</pdfrwt>
<pdfrwt beam="2">  1       21 0.16588156E+00 0.30718555E+03</pdfrwt>
<totfact> 0.11378616E+05</totfact>
</mgrwt>
</event>
<event>
 8    1  0.9529436E-006  0.3862009E+03  0.7546771E-02  0.1048665E+00
         21   -1    0    0  504  503  0.00000000000E+00  0.00000000000E+00  0.24077288411E+03  0.24077288411E+03  0.00000000000E+00 0. -1.
         21   -1    0    0  503  504 -0.00000000000E+00 -0.00000000000E+00 -0.15486702383E+03  0.15486702383E+03  0.00000000000E+00 0. -1.
         25    2    1    2    0    0 -0.41446794421E+00 -0.86843097465E+02  0.16468024335E+03  0.22425812945E+03  0.12502092111E+03 0.  0.
         25    2    1    2    0    0  0.41446794421E+00  0.86843097465E+02 -0.78774383074E+02  0.17138177849E+03  0.12499766081E+03 0.  0.
          5    1    3    3  501    0 -0.23866901148E+02 -0.11695690813E+02  0.13858764173E+03  0.14119151035E+03  0.47000000000E+01 0.  1.
         -5    1    3    3    0  501  0.23452433204E+02 -0.75147406652E+02  0.26092601618E+02  0.83066619102E+02  0.47000000000E+01 0.  1.
          5    1    4    4  502    0 -0.22968724225E+02  0.11335391708E+03 -0.52585965378E+02  0.12713790373E+03  0.47000000000E+01 0. -1.
         -5    1    4    4    0  502  0.23383192169E+02 -0.26510819613E+02 -0.26188417696E+02  0.44243874762E+02  0.47000000000E+01 0. -1.
<mgrwt>
<rscale>  0 0.38620088E+03</rscale>
<asrwt>0</asrwt>
<pdfrwt beam="1">  1       21 0.37041982E-01 0.38620088E+03</pdfrwt>
<pdfrwt beam="2">  1       21 0.23825696E-01 0.38620088E+03</pdfrwt>
<totfact> 0.11043929E+05</totfact>
</mgrwt>
</event>
<event>
 8    1  0.9529436E-006  0.5187906E+03  0.7546771E-02  0.1008987E+00
         21   -1    0    0  504  503  0.00000000000E+00  0.00000000000E+00  0.77953602267E+03  0.77953602267E+03  0.00000000000E+00 0.  1.
         21   -1    0    0  503  504 -0.00000000000E+00 -0.00000000000E+00 -0.86315345958E+02  0.86315345958E+02  0.00000000000E+00 0.  1.
         25    2    1    2    0    0 -0.80005075692E+02  0.40368048550E+02 -0.20327154587E+01  0.15377603486E+03  0.12495017201E+03 0.  0.
         25    2    1    2    0    0  0.80005075692E+02 -0.40368048550E+02  0.69525339217E+03  0.71207533376E+03  0.12507441847E+03 0.  0.
          5    1    3    3  501    0 -0.31078607777E+02 -0.27205150771E+01  0.57356344379E+02  0.65460837943E+02  0.47000000000E+01 0. -1.
         -5    1    3    3    0  501 -0.48926467915E+02  0.43088563627E+02 -0.59389059838E+02  0.88315196917E+02  0.47000000000E+01 0. -1.
          5    1    4    4  502    0  0.70318251728E+02 -0.80159282840E+02  0.57836305481E+03  0.58812930579E+03  0.47000000000E+01 0. -1.
         -5    1    4    4    0  502  0.96868239644E+01  0.39791234291E+02  0.11689033735E+03  0.12394602798E+03  0.47000000000E+01 0. -1.
<mgrwt>
<rscale>  0 0.51879060E+03</rscale>
<asrwt>0</asrwt>
<pdfrwt beam="1">  1       21 0.11992861E+00 0.51879060E+03</pdfrwt>
<pdfrwt beam="2">  1       21 0.13279285E-01 0.51879060E+03</pdfrwt>
<totfact> 0.22927684E+04</totfact>
</mgrwt>
</event>
<event>
 8    1  0.9529436E-006  0.3495870E+03  0.7546771E-02  0.1062785E+00
         21   -1    0    0  504  503  0.00000000000E+00  0.00000000000E+00  0.23010370653E+03  0.23010370653E+03  0.00000000000E+00 0. -1.
         21   -1    0    0  503  504 -0.00000000000E+00 -0.00000000000E+00 -0.13277828317E+03  0.13277828317E+03  0.00000000000E+00 0. -1.
         25    2    1    2    0    0  0.35299112441E+02  0.11642873569E+03  0.60407373183E+02  0.18458291717E+03  0.12498049746E+03 0.  0.
         25    2    1    2    0    0 -0.35299112441E+02 -0.11642873569E+03  0.36918050178E+02  0.17829907253E+03  0.12500375596E+03 0.  0.
          5    1    3    3  501    0  0.64693268454E+02  0.18930086705E+02  0.31072277017E+01  0.67641052844E+02  0.47000000000E+01 0.  1.
         -5    1    3    3    0  501 -0.29394156013E+02  0.97498648981E+02  0.57300145481E+02  0.11694186433E+03  0.47000000000E+01 0.  1.
          5    1    4    4  502    0  0.32681835681E+02 -0.10070597729E+02  0.38848057088E+02  0.51969037528E+02  0.47000000000E+01 0.  1.
         -5    1    4    4    0  502 -0.67980948122E+02 -0.10635813796E+03 -0.19300069095E+01  0.12633003500E+03  0.47000000000E+01 0.  1.
<mgrwt>
<rscale>  0 0.34958704E+03</rscale>
<asrwt>0</asrwt>
<pdfrwt beam="1">  1       21 0.35400570E-01 0.34958704E+03</pdfrwt>
<pdfrwt beam="2">  1       21 0.20427428E-01 0.34958704E+03</pdfrwt>
<totfact> 0.16372949E+05</totfact>
</mgrwt>
</event>
<event>
 8    1  0.9529436E-006  0.4395452E+03  0.7546771E-02  0.1030886E+00
         21   -1    0    0  504  503  0.00000000000E+00  0.00000000000E+00  0.50241998160E+03  0.50241998160E+03  0.00000000000E+00 0.  1.
         21   -1    0    0  503  504 -0.00000000000E+00 -0.00000000000E+00 -0.96134685470E+02  0.96134685470E+02  0.00000000000E+00 0.  1.
         25    2    1    2    0    0 -0.16129109846E+03  0.81054816135E+02  0.21607364258E+03  0.30805436786E+03  0.12499989151E+03 0.  0.
         25    2    1    2    0    0  0.16129109846E+03 -0.81054816135E+02  0.19021165355E+03  0.29050029921E+03  0.12500099614E+03 0.  0.
          5    1    3    3  501    0 -0.13193588381E+03  0.11448367678E+03  0.17546408295E+03  0.24763546614E+03  0.47000000000E+01 0. -1.
         -5    1    3    3    0  501 -0.29355214644E+02 -0.33428860646E+02  0.40609559636E+02  0.60418901717E+02  0.47000000000E+01 0. -1.
          5    1    4    4  502    0  0.76298135697E+02 -0.16487818719E+02  0.71305146443E+01  0.78525078262E+02  0.47000000000E+01 0.  1.
         -5    1    4    4    0  502  0.84992962761E+02 -0.64566997416E+02  0.18308113891E+03  0.21197522095E+03  0.47000000000E+01 0.  1.
<mgrwt>
<rscale>  0 0.43954516E+03</rscale>
<asrwt>0</asrwt>
<pdfrwt beam="1">  1       21 0.77295380E-01 0.43954516E+03</pdfrwt>
<pdfrwt beam="2">  1       21 0.14789952E-01 0.43954516E+03</pdfrwt>
<totfact> 0.55210586E+04</totfact>
</mgrwt>
</event>
<event>
 8    1  0.9529436E-006  0.2825000E+03  0.7546771E-02  0.1094331E+00
         21   -1    0    0  504  503  0.00000000000E+00  0.00000000000E+00  0.66418952939E+02  0.66418952939E+02  0.00000000000E+00 0. -1.
         21   -1    0    0  503  504 -0.00000000000E+00 -0.00000000000E+00 -0.30038955089E+03  0.30038955089E+03  0.00000000000E+00 0. -1.
         25    2    1    2    0    0  0.34554060610E+02  0.55315314743E+02 -0.12805701983E+03  0.19046622962E+03  0.12500006859E+03 0.  0.
         25    2    1    2    0    0 -0.34554060610E+02 -0.55315314743E+02 -0.10591357812E+03  0.17634227421E+03  0.12500057797E+03 0.  0.
          5    1    3    3  501    0 -0.27467082038E+02 -0.21172573855E+02 -0.94774141491E+01  0.36257824787E+02  0.47000000000E+01 0.  1.
         -5    1    3    3    0  501  0.62021142648E+02  0.76487888598E+02 -0.11857960568E+03  0.15420840483E+03  0.47000000000E+01 0.  1.
          5    1    4    4  502    0  0.34600948733E+02 -0.51179784771E+02 -0.82267983357E+02  0.10298886885E+03  0.47000000000E+01 0. -1.
         -5    1    4    4    0  502 -0.69155009343E+02 -0.41355299721E+01 -0.23645594766E+02  0.73353405356E+02  0.47000000000E+01 0. -1.
<mgrwt>
<rscale>  0 0.28249998E+03</rscale>
<asrwt>0</asrwt>
<pdfrwt beam="1">  1       21 0.10218301E-01 0.28249998E+03</pdfrwt>
<pdfrwt beam="2">  1       21 0.46213777E-01 0.28249998E+03</pdfrwt>
<totfact> 0.34329049E+05</totfact>
</mgrwt>
</event>
<event>
 8    1  0.9529436E-006  0.2920403E+03  0.7546771E-02  0.1089289E+00
         21   -1    0    0  504  503  0.00000000000E+00  0.00000000000E+00  0.11780169170E+03  0.11780169170E+03  0.00000000000E+00 0. -1.
         21   -1    0    0  503  504 -0.00000000000E+00 -0.00000000000E+00 -0.18099811615E+03  0.18099811615E+03  0.00000000000E+00 0. -1.
         25    2    1    2    0    0 -0.54700325778E+02  0.34928423038E+02 -0.71024305761E+02  0.15773943372E+03  0.12500062626E+03 0.  0.
         25    2    1    2    0    0  0.54700325778E+02 -0.34928423038E+02  0.78278813152E+01  0.14106037413E+03  0.12499853218E+03 0.  0.
          5    1    3    3  501    0 -0.13297148481E+02 -0.41039897090E+02 -0.54273147211E+02  0.69489220884E+02  0.47000000000E+01 0.  1.
         -5    1    3    3    0  501 -0.41403177297E+02  0.75968320128E+02 -0.16751158550E+02  0.88250212839E+02  0.47000000000E+01 0.  1.
          5    1    4    4  502    0  0.32577406797E+00 -0.56599942901E+01  0.59775835412E+02  0.60227752435E+02  0.47000000000E+01 0.  1.
         -5    1    4    4    0  502  0.54374551710E+02 -0.29268428748E+02 -0.51947954097E+02  0.80832621694E+02  0.47000000000E+01 0.  1.
<mgrwt>
<rscale>  0 0.29204030E+03</rscale>
<asrwt>0</asrwt>
<pdfrwt beam="1">  1       21 0.18123337E-01 0.29204030E+03</pdfrwt>
<pdfrwt beam="2">  1       21 0.27845864E-01 0.29204030E+03</pdfrwt>
<totfact> 0.33393658E+05</totfact>
</mgrwt>
</event>
<event>
 8    1  0.9529436E-006  0.4134864E+03  0.7546771E-02  0.1039207E+00
         21   -1    0    0  504  503  0.00000000000E+00  0.00000000000E+00  0.18538562597E+03  0.18538562597E+03  0.00000000000E+00 0. -1.
         21   -1    0    0  503  504 -0.00000000000E+00 -0.00000000000E+00 -0.23056125140E+03  0.23056125140E+03  0.00000000000E+00 0. -1.
         25    2    1    2    0    0  0.14168570633E+03 -0.10085255425E+02  0.61224574800E+02  0.19887071512E+03  0.12499824406E+03 0.  0.
         25    2    1    2    0    0 -0.14168570633E+03  0.10085255425E+02 -0.10640020024E+03  0.21707616225E+03  0.12499802339E+03 0.  0.
          5    1    3    3  501    0  0.16445602805E+03 -0.15082353759E+02  0.50301766773E+02  0.17270095627E+03  0.47000000000E+01 0.  1.
         -5    1    3    3    0  501 -0.22770321718E+02  0.49970983340E+01  0.10922808028E+02  0.26169758847E+02  0.47000000000E+01 0.  1.
          5    1    4    4  502    0 -0.32961221340E+02 -0.50959239129E+02 -0.15840777925E+02  0.62899176546E+02  0.47000000000E+01 0.  1.
         -5    1    4    4    0  502 -0.10872448499E+03  0.61044494554E+02 -0.90559422311E+02  0.15417698571E+03  0.47000000000E+01 0.  1.
<mgrwt>
<rscale>  0 0.41348636E+03</rscale>
<asrwt>0</asrwt>
<pdfrwt beam="1">  1       21 0.28520866E-01 0.41348636E+03</pdfrwt>
<pdfrwt beam="2">  1       21 0.35470962E-01 0.41348636E+03</pdfrwt>
<totfact> 0.84424316E+04</totfact>
</mgrwt>
</event>
<event>
 8    1  0.9529436E-006  0.2946431E+03  0.7546771E-02  0.1087950E+00
         21   -1    0    0  504  503  0.00000000000E+00  0.00000000000E+00  0.27460838951E+03  0.27460838951E+03  0.00000000000E+00 0. -1.
         21   -1    0    0  503  504 -0.00000000000E+00 -0.00000000000E+00 -0.79034883792E+02  0.79034883792E+02  0.00000000000E+00 0. -1.
         25    2    1    2    0    0  0.56556893959E+02 -0.35570184043E+02  0.14603207550E+03  0.20349786983E+03  0.12498838228E+03 0.  0.
         25    2    1    2    0    0 -0.56556893959E+02  0.35570184043E+02  0.49541430220E+02  0.15014540347E+03  0.12500147450E+03 0.  0.
          5    1    3    3  501    0  0.87820144112E+01 -0.72156905969E+02  0.44437269033E+02  0.85325867914E+02  0.47000000000E+01 0.  1.
         -5    1    3    3    0  501  0.47774879548E+02  0.36586721927E+02  0.10159480646E+03  0.11817200192E+03  0.47000000000E+01 0.  1.
          5    1    4    4  502    0 -0.13632011198E+02  0.38508282598E+02  0.84850141216E+02  0.94288684487E+02  0.47000000000E+01 0. -1.
         -5    1    4    4    0  502 -0.42924882761E+02 -0.29380985549E+01 -0.35308710996E+02  0.55856718982E+02  0.47000000000E+01 0. -1.
<mgrwt>
<rscale>  0 0.29464312E+03</rscale>
<asrwt>0</asrwt>
<pdfrwt beam="1">  1       21 0.42247444E-01 0.29464312E+03</pdfrwt>
<pdfrwt beam="2">  1       21 0.12159213E-01 0.29464312E+03</pdfrwt>
<totfact> 0.30170711E+05</totfact>
</mgrwt>
</event>
<event>
 8    1  0.9529436E-006  0.3145001E+03  0.7546771E-02  0.1078209E+00
         21   -1    0    0  504  503  0.00000000000E+00  0.00000000000E+00  0.87465155742E+01  0.87465155742E+01  0.00000000000E+00 0. -1.
         21   -1    0    0  503  504 -0.00000000000E+00 -0.00000000000E+00 -0.28271353133E+04  0.28271353133E+04  0.00000000000E+00 0. -1.
         25    2    1    2    0    0  0.23341951774E+02  0.71057487577E+02 -0.19432232506E+04  0.19486752520E+04  0.12499849143E+03 0.  0.
         25    2    1    2    0    0 -0.23341951774E+02 -0.71057487577E+02 -0.87516554716E+03  0.88720657690E+03  0.12500704743E+03 0.  0.
          5    1    3    3  501    0  0.17953201378E+02  0.22223703996E+02 -0.17119317379E+04  0.17121765609E+04  0.47000000000E+01 0. -1.
         -5    1    3    3    0  501  0.53887503964E+01  0.48833783581E+02 -0.23129151272E+03  0.23649869113E+03  0.47000000000E+01 0. -1.
          5    1    4    4  502    0 -0.89093471130E+01 -0.41883088648E+02 -0.75959145627E+02  0.87323830568E+02  0.47000000000E+01 0.  1.
         -5    1    4    4    0  502 -0.14432604661E+02 -0.29174398930E+02 -0.79920640153E+03  0.79988274633E+03  0.47000000000E+01 0.  1.
<mgrwt>
<rscale>  0 0.31450013E+03</rscale>
<asrwt>0</asrwt>
<pdfrwt beam="1">  1       21 0.13456152E-02 0.31450013E+03</pdfrwt>
<pdfrwt beam="2">  1       21 0.43494474E+00 0.31450013E+03</pdfrwt>
<totfact> 0.10792793E+04</totfact>
</mgrwt>
</event>
<event>
 8    1  0.9529436E-006  0.2506926E+03  0.7546771E-02  0.1112868E+00
         21   -1    0    0  504  503  0.00000000000E+00  0.00000000000E+00  0.75680702763E+02  0.75680702763E+02  0.00000000000E+00 0.  1.
         21   -1    0    0  503  504 -0.00000000000E+00 -0.00000000000E+00 -0.20760503035E+03  0.20760503035E+03  0.00000000000E+00 0.  1.
         25    2    1    2    0    0 -0.18319613763E+01 -0.83261683483E+01 -0.70302413724E+02  0.14366191063E+03  0.12499453599E+03 0.  0.
         25    2    1    2    0    0  0.18319613763E+01  0.83261683483E+01 -0.61621913867E+02  0.13962382249E+03  0.12499948150E+03 0.  0.
          5    1    3    3  501    0 -0.20829170002E+02 -0.51584271045E+02 -0.77630292196E+02  0.95620832503E+02  0.47000000000E+01 0. -1.
         -5    1    3    3    0  501  0.18997208626E+02  0.43258102697E+02  0.73278784718E+01  0.48041078125E+02  0.47000000000E+01 0. -1.
          5    1    4    4  502    0 -0.25402255519E+02 -0.27440383288E+02 -0.81845644722E+02  0.90105764413E+02  0.47000000000E+01 0.  1.
         -5    1    4    4    0  502  0.27234216896E+02  0.35766551637E+02  0.20223730855E+02  0.49518058076E+02  0.47000000000E+01 0.  1.
<mgrwt>
<rscale>  0 0.25069260E+03</rscale>
<asrwt>0</asrwt>
<pdfrwt beam="1">  1       21 0.11643185E-01 0.25069260E+03</pdfrwt>
<pdfrwt beam="2">  1       21 0.31939235E-01 0.25069260E+03</pdfrwt>
<totfact> 0.57774288E+05</totfact>
</mgrwt>
</event>
<event>
 8    1  0.9529436E-006  0.3565866E+03  0.7546771E-02  0.1059944E+00
         21   -1    0    0  504  503  0.00000000000E+00  0.00000000000E+00  0.45082603550E+02  0.45082603550E+02  0.00000000000E+00 0.  1.
         21   -1    0    0  503  504 -0.00000000000E+00 -0.00000000000E+00 -0.70511669571E+03  0.70511669571E+03  0.00000000000E+00 0.  1.
         25    2    1    2    0    0 -0.22430447214E+02 -0.10638050652E+03 -0.19135937480E+03  0.25310688250E+03  0.12499898606E+03 0.  0.
         25    2    1    2    0    0  0.22430447214E+02  0.10638050652E+03 -0.46867471736E+03  0.49709241675E+03  0.12499977190E+03 0.  0.
          5    1    3    3  501    0 -0.52136755788E+02 -0.29245496265E+02 -0.14791964110E+03  0.15961156155E+03  0.47000000000E+01 0.  1.
         -5    1    3    3    0  501  0.29706308574E+02 -0.77135010259E+02 -0.43439733695E+02  0.93495320953E+02  0.47000000000E+01 0.  1.
          5    1    4    4  502    0  0.68923301097E+01  0.54680281022E+02 -0.42189314750E+03  0.42550364893E+03  0.47000000000E+01 0.  1.
         -5    1    4    4    0  502  0.15538117105E+02  0.51700225502E+02 -0.46781569860E+02  0.71588767825E+02  0.47000000000E+01 0.  1.
<mgrwt>
<rscale>  0 0.35658658E+03</rscale>
<asrwt>0</asrwt>
<pdfrwt beam="1">  1       21 0.69357850E-02 0.35658658E+03</pdfrwt>
<pdfrwt beam="2">  1       21 0.10847949E+00 0.35658658E+03</pdfrwt>
<totfact> 0.98243681E+04</totfact>
</mgrwt>
</event>
<event>
 8    1  0.9529436E-006  0.2761698E+03  0.7546771E-02  0.1097799E+00
         21   -1    0    0  504  503  0.00000000000E+00  0.00000000000E+00  0.55343739778E+03  0.55343739778E+03  0.00000000000E+00 0.  1.
         21   -1    0    0  503  504 -0.00000000000E+00 -0.00000000000E+00 -0.34452746554E+02  0.34452746554E+02  0.00000000000E+00 0.  1.
         25    2    1    2    0    0 -0.39881828252E+02 -0.35799441175E+02  0.31056434745E+03  0.33901930936E+03  0.12494686069E+03 0.  0.
         25    2    1    2    0    0  0.39881828252E+02  0.35799441175E+02  0.20842030377E+03  0.24887083497E+03  0.12500203703E+03 0.  0.
          5    1    3    3  501    0 -0.52474360549E+02 -0.66942057118E+01  0.30087783049E+03  0.30552893444E+03  0.47000000000E+01 0.  1.
         -5    1    3    3    0  501  0.12592532297E+02 -0.29105235463E+02  0.96865169655E+01  0.33490374914E+02  0.47000000000E+01 0.  1.
          5    1    4    4  502    0  0.51583498983E+02 -0.30754612115E+02  0.14085987137E+03  0.15320018569E+03  0.47000000000E+01 0. -1.
         -5    1    4    4    0  502 -0.11701670731E+02  0.66554053290E+02  0.67560432402E+02  0.95670649280E+02  0.47000000000E+01 0. -1.
<mgrwt>
<rscale>  0 0.27616979E+03</rscale>
<asrwt>0</asrwt>
<pdfrwt beam="1">  1       21 0.85144209E-01 0.27616979E+03</pdfrwt>
<pdfrwt beam="2">  1       21 0.53004229E-02 0.27616979E+03</pdfrwt>
<totfact> 0.28434468E+05</totfact>
</mgrwt>
</event>
<event>
 8    1  0.9529436E-006  0.2570469E+03  0.7546771E-02  0.1108931E+00
         21   -1    0    0  504  503  0.00000000000E+00  0.00000000000E+00  0.56334793385E+03  0.56334793385E+03  0.00000000000E+00 0. -1.
         21   -1    0    0  503  504 -0.00000000000E+00 -0.00000000000E+00 -0.29321628087E+02  0.29321628087E+02  0.00000000000E+00 0. -1.
         25    2    1    2    0    0  0.25887764509E+02 -0.10272611244E+02  0.24204665572E+03  0.27383764236E+03  0.12499907173E+03 0.  0.
         25    2    1    2    0    0 -0.25887764509E+02  0.10272611244E+02  0.29197965004E+03  0.31883191958E+03  0.12500389598E+03 0.  0.
          5    1    3    3  501    0 -0.16866201288E+02  0.11172715948E+02  0.21997001753E+03  0.22094840334E+03  0.47000000000E+01 0. -1.
         -5    1    3    3    0  501  0.42753965797E+02 -0.21445327192E+02  0.22076638189E+02  0.52889239015E+02  0.47000000000E+01 0. -1.
          5    1    4    4  502    0 -0.17666320101E+02  0.59670885639E+02  0.23350554807E+03  0.24170156068E+03  0.47000000000E+01 0.  1.
         -5    1    4    4    0  502 -0.82214444086E+01 -0.49398274395E+02  0.58474101972E+02  0.77130358892E+02  0.47000000000E+01 0.  1.
<mgrwt>
<rscale>  0 0.25704691E+03</rscale>
<asrwt>0</asrwt>
<pdfrwt beam="1">  1       21 0.86668905E-01 0.25704691E+03</pdfrwt>
<pdfrwt beam="2">  1       21 0.45110201E-02 0.25704691E+03</pdfrwt>
<totfact> 0.36088682E+05</totfact>
</mgrwt>
</event>
<event>
 8    1  0.9529436E-006  0.3070273E+03  0.7546771E-02  0.1081780E+00
         21   -1    0    0  504  503  0.00000000000E+00  0.00000000000E+00  0.14068226819E+03  0.14068226819E+03  0.00000000000E+00 0. -1.
         21   -1    0    0  503  504 -0.00000000000E+00 -0.00000000000E+00 -0.16751537129E+03  0.16751537129E+03  0.00000000000E+00 0. -1.
         25    2    1    2    0    0  0.88462462108E+02 -0.10147574881E+02 -0.16938443233E+02  0.15440502739E+03  0.12500168458E+03 0.  0.
         25    2    1    2    0    0 -0.88462462108E+02  0.10147574881E+02 -0.98946598699E+01  0.15379261208E+03  0.12500273100E+03 0.  0.
          5    1    3    3  501    0  0.12328080097E+02  0.21066201583E+02 -0.57428885048E+02  0.62577418019E+02  0.47000000000E+01 0.  1.
         -5    1    3    3    0  501  0.76134382011E+02 -0.31213776464E+02  0.40490441815E+02  0.91827609376E+02  0.47000000000E+01 0.  1.
          5    1    4    4  502    0  0.14932689358E+02 -0.25435047026E+02  0.24966245386E+02  0.38927242868E+02  0.47000000000E+01 0. -1.
         -5    1    4    4    0  502 -0.10339515147E+03  0.35582621907E+02 -0.34860905256E+02  0.11486536921E+03  0.47000000000E+01 0. -1.
<mgrwt>
<rscale>  0 0.30702731E+03</rscale>
<asrwt>0</asrwt>
<pdfrwt beam="1">  1       21 0.21643426E-01 0.30702731E+03</pdfrwt>
<pdfrwt beam="2">  1       21 0.25771596E-01 0.30702731E+03</pdfrwt>
<totfact> 0.27696757E+05</totfact>
</mgrwt>
</event>
<event>
 8    1  0.9529436E-006  0.2821326E+03  0.7546771E-02  0.1094530E+00
         21   -1    0    0  504  503  0.00000000000E+00  0.00000000000E+00  0.39581425384E+02  0.39581425384E+02  0.00000000000E+00 0. -1.
         21   -1    0    0  503  504 -0.00000000000E+00 -0.00000000000E+00 -0.50275336148E+03  0.50275336148E+03  0.00000000000E+00 0. -1.
         25    2    1    2    0    0  0.29206153155E+02 -0.51169416271E+02 -0.28613173002E+03  0.31775482699E+03  0.12500181840E+03 0.  0.
         25    2    1    2    0    0 -0.29206153155E+02  0.51169416271E+02 -0.17704020607E+03  0.22457995988E+03  0.12498646034E+03 0.  0.
          5    1    3    3  501    0  0.16769116335E+02  0.29201945214E+01 -0.25160096577E+03  0.25221987784E+03  0.47000000000E+01 0. -1.
         -5    1    3    3    0  501  0.12437036820E+02 -0.54089610793E+02 -0.34530764255E+02  0.65534949154E+02  0.47000000000E+01 0. -1.
          5    1    4    4  502    0 -0.51411246543E+02 -0.24486428582E+02 -0.93767073638E+02  0.10980462447E+03  0.47000000000E+01 0. -1.
         -5    1    4    4    0  502  0.22205093388E+02  0.75655844853E+02 -0.83273132435E+02  0.11477533541E+03  0.47000000000E+01 0. -1.
<mgrwt>
<rscale>  0 0.28213256E+03</rscale>
<asrwt>0</asrwt>
<pdfrwt beam="1">  1       21 0.60894502E-02 0.28213256E+03</pdfrwt>
<pdfrwt beam="2">  1       21 0.77346669E-01 0.28213256E+03</pdfrwt>
<totfact> 0.27865920E+05</totfact>
</mgrwt>
</event>
<event>
 8    1  0.9529436E-006  0.4407257E+03  0.7546771E-02  0.1030524E+00
         21   -1    0    0  504  503  0.00000000000E+00  0.00000000000E+00  0.43062294494E+03  0.43062294494E+03  0.00000000000E+00 0.  1.
         21   -1    0    0  503  504 -0.00000000000E+00 -0.00000000000E+00 -0.11276638668E+03  0.11276638668E+03  0.00000000000E+00 0.  1.
         25    2    1    2    0    0 -0.15524245616E+03 -0.89337467224E+02  0.19496171309E+03  0.29277509564E+03  0.12500313522E+03 0.  0.
         25    2    1    2    0    0  0.15524245616E+03  0.89337467224E+02  0.12289484517E+03  0.25061423598E+03  0.12499179598E+03 0.  0.
          5    1    3    3  501    0 -0.60239119826E+02 -0.19418461347E+02  0.15607083762E+03  0.16848152585E+03  0.47000000000E+01 0.  1.
         -5    1    3    3    0  501 -0.95003336331E+02 -0.69919005877E+02  0.38890875469E+02  0.12429356979E+03  0.47000000000E+01 0.  1.
          5    1    4    4  502    0  0.10485669239E+03  0.98596902292E+02  0.34095676618E+02  0.14798945991E+03  0.47000000000E+01 0.  1.
         -5    1    4    4    0  502  0.50385763768E+02 -0.92594350679E+01  0.88799168548E+02  0.10262477607E+03  0.47000000000E+01 0.  1.
<mgrwt>
<rscale>  0 0.44072574E+03</rscale>
<asrwt>0</asrwt>
<pdfrwt beam="1">  1       21 0.66249683E-01 0.44072574E+03</pdfrwt>
<pdfrwt beam="2">  1       21 0.17348675E-01 0.44072574E+03</pdfrwt>
<totfact> 0.58086937E+04</totfact>
</mgrwt>
</event>
<event>
 8    1  0.9529436E-006  0.3679831E+03  0.7546771E-02  0.1055467E+00
         21   -1    0    0  504  503  0.00000000000E+00  0.00000000000E+00  0.54094428969E+03  0.54094428969E+03  0.00000000000E+00 0. -1.
         21   -1    0    0  503  504 -0.00000000000E+00 -0.00000000000E+00 -0.62581115918E+02  0.62581115918E+02  0.00000000000E+00 0. -1.
         25    2    1    2    0    0 -0.54153104242E+02  0.10435259306E+03  0.34813069385E+03  0.38811623983E+03  0.12496884909E+03 0.  0.
         25    2    1    2    0    0  0.54153104242E+02 -0.10435259306E+03  0.13023247993E+03  0.21540916578E+03  0.12497434735E+03 0.  0.
          5    1    3    3  501    0 -0.22926291180E+02 -0.27208865746E+02  0.84121396387E+02  0.91457293490E+02  0.47000000000E+01 0.  1.
         -5    1    3    3    0  501 -0.31226813062E+02  0.13156145881E+03  0.26400929746E+03  0.29665894634E+03  0.47000000000E+01 0.  1.
          5    1    4    4  502    0  0.47148174404E+02  0.26849706235E+01  0.88099544695E+02  0.10006887225E+03  0.47000000000E+01 0.  1.
         -5    1    4    4    0  502  0.70049298378E+01 -0.10703756368E+03  0.42132935232E+02  0.11534029354E+03  0.47000000000E+01 0.  1.
<mgrwt>
<rscale>  0 0.36798314E+03</rscale>
<asrwt>0</asrwt>
<pdfrwt beam="1">  1       21 0.83222195E-01 0.36798314E+03</pdfrwt>
<pdfrwt beam="2">  1       21 0.96278644E-02 0.36798314E+03</pdfrwt>
<totfact> 0.10330834E+05</totfact>
</mgrwt>
</event>
<event>
 8    1  0.9529436E-006  0.3051532E+03  0.7546771E-02  0.1082693E+00
         21   -1    0    0  504  503  0.00000000000E+00  0.00000000000E+00  0.29508482917E+03  0.29508482917E+03  0.00000000000E+00 0.  1.
         21   -1    0    0  503  504 -0.00000000000E+00 -0.00000000000E+00 -0.78891285982E+02  0.78891285982E+02  0.00000000000E+00 0.  1.
         25    2    1    2    0    0  0.46040501917E+02 -0.74387014467E+02  0.10691957603E+03  0.18631556674E+03  0.12501415493E+03 0.  0.
         25    2    1    2    0    0 -0.46040501917E+02  0.74387014467E+02  0.10927396716E+03  0.18766054841E+03  0.12499010278E+03 0.  0.
          5    1    3    3  501    0  0.21466577108E+02 -0.97879780411E+01  0.11415655668E+03  0.11666373850E+03  0.47000000000E+01 0. -1.
         -5    1    3    3    0  501  0.24573924809E+02 -0.64599036426E+02 -0.72369806563E+01  0.69651828237E+02  0.47000000000E+01 0. -1.
          5    1    4    4  502    0  0.26677797556E+02  0.39548144327E+02  0.93917688006E+02  0.10544374198E+03  0.47000000000E+01 0.  1.
         -5    1    4    4    0  502 -0.72718299473E+02  0.34838870140E+02  0.15356279154E+02  0.82216806435E+02  0.47000000000E+01 0.  1.
<mgrwt>
<rscale>  0 0.30515322E+03</rscale>
<asrwt>0</asrwt>
<pdfrwt beam="1">  1       21 0.45397665E-01 0.30515322E+03</pdfrwt>
<pdfrwt beam="2">  1       21 0.12137121E-01 0.30515322E+03</pdfrwt>
<totfact> 0.26032338E+05</totfact>
</mgrwt>
</event>
<event>
 8    1  0.9529436E-006  0.2790881E+03  0.7546771E-02  0.1096188E+00
         21   -1    0    0  504  503  0.00000000000E+00  0.00000000000E+00  0.48269279775E+02  0.48269279775E+02  0.00000000000E+00 0. -1.
         21   -1    0    0  503  504 -0.00000000000E+00 -0.00000000000E+00 -0.40341468663E+03  0.40341468663E+03  0.00000000000E+00 0. -1.
         25    2    1    2    0    0 -0.43765222090E+02  0.43368109185E+02 -0.18935485274E+03  0.23509846278E+03  0.12497935585E+03 0.  0.
         25    2    1    2    0    0  0.43765222090E+02 -0.43368109185E+02 -0.16579055412E+03  0.21658550362E+03  0.12500633978E+03 0.  0.
          5    1    3    3  501    0  0.32604301656E+02  0.27405821999E+02 -0.17467184255E+02  0.46274313520E+02  0.47000000000E+01 0. -1.
         -5    1    3    3    0  501 -0.76369523747E+02  0.15962287187E+02 -0.17188766848E+03  0.18882414926E+03  0.47000000000E+01 0. -1.
          5    1    4    4  502    0  0.17403166114E+02  0.14849165701E+02  0.12950178698E+02  0.26705150086E+02  0.47000000000E+01 0.  1.
         -5    1    4    4    0  502  0.26362055976E+02 -0.58217274887E+02 -0.17874073282E+03  0.18988035353E+03  0.47000000000E+01 0.  1.
<mgrwt>
<rscale>  0 0.27908806E+03</rscale>
<asrwt>0</asrwt>
<pdfrwt beam="1">  1       21 0.74260428E-02 0.27908806E+03</pdfrwt>
<pdfrwt beam="2">  1       21 0.62063800E-01 0.27908806E+03</pdfrwt>
<totfact> 0.32221092E+05</totfact>
</mgrwt>
</event>
<event>
 8    1  0.9529436E-006  0.3886449E+03  0.7546771E-02  0.1047784E+00
         21   -1    0    0  504  503  0.00000000000E+00  0.00000000000E+00  0.25982096660E+03  0.25982096660E+03  0.00000000000E+00 0. -1.
         21   -1    0    0  503  504 -0.00000000000E+00 -0.00000000000E+00 -0.14533555353E+03  0.14533555353E+03  0.00000000000E+00 0. -1.
         25    2    1    2    0    0  0.31039427694E+01  0.54557607035E+02 -0.87021317700E+02  0.16181392253E+03  0.12499947538E+03 0.  0.
         25    2    1    2    0    0 -0.31039427694E+01 -0.54557607035E+02  0.20150673077E+03  0.24334259760E+03  0.12499796125E+03 0.  0.
          5    1    3    3  501    0 -0.10869391109E+02  0.40267281627E+02  0.24377948493E+02  0.48538356023E+02  0.47000000000E+01 0.  1.
         -5    1    3    3    0  501  0.13973333879E+02  0.14290325409E+02 -0.11139926619E+03  0.11327556651E+03  0.47000000000E+01 0.  1.
          5    1    4    4  502    0 -0.32277588320E+02 -0.55389190618E+02  0.32987255450E+02  0.72249942333E+02  0.47000000000E+01 0. -1.
         -5    1    4    4    0  502  0.29173645551E+02  0.83158358214E+00  0.16851947532E+03  0.17109265527E+03  0.47000000000E+01 0. -1.
<mgrwt>
<rscale>  0 0.38864495E+03</rscale>
<asrwt>0</asrwt>
<pdfrwt beam="1">  1       21 0.39972456E-01 0.38864495E+03</pdfrwt>
<pdfrwt beam="2">  1       21 0.22359316E-01 0.38864495E+03</pdfrwt>
<totfact> 0.10677214E+05</totfact>
</mgrwt>
</event>
<event>
 8    1  0.9529436E-006  0.3116250E+03  0.7546771E-02  0.1079570E+00
         21   -1    0    0  504  503  0.00000000000E+00  0.00000000000E+00  0.16211472874E+02  0.16211472874E+02  0.00000000000E+00 0. -1.
         21   -1    0    0  503  504 -0.00000000000E+00 -0.00000000000E+00 -0.14975529133E+04  0.14975529133E+04  0.00000000000E+00 0. -1.
         25    2    1    2    0    0 -0.48337843819E+02 -0.32128704996E+02 -0.10938171143E+04  0.11024649106E+04  0.12499679490E+03 0.  0.
         25    2    1    2    0    0  0.48337843819E+02  0.32128704996E+02 -0.38752432619E+03  0.41129947564E+03  0.12499341760E+03 0.  0.
          5    1    3    3  501    0 -0.40995332724E+02 -0.10393660852E+02 -0.10625425998E+04  0.10633943351E+04  0.47000000000E+01 0. -1.
         -5    1    3    3    0  501 -0.73425110956E+01 -0.21735044143E+02 -0.31274514436E+02  0.39070575454E+02  0.47000000000E+01 0. -1.
          5    1    4    4  502    0  0.10637435729E+01  0.12041289785E+02  0.60841155618E+01  0.14325874223E+02  0.47000000000E+01 0.  1.
         -5    1    4    4    0  502  0.47274100247E+02  0.20087415211E+02 -0.39360844175E+03  0.39697360141E+03  0.47000000000E+01 0.  1.
<mgrwt>
<rscale>  0 0.31162502E+03</rscale>
<asrwt>0</asrwt>
<pdfrwt beam="1">  1       21 0.24940729E-02 0.31162502E+03</pdfrwt>
<pdfrwt beam="2">  1       21 0.23039274E+00 0.31162502E+03</pdfrwt>
<totfact> 0.69889730E+04</totfact>
</mgrwt>
</event>
<event>
 8    1  0.9529436E-006  0.4283280E+03  0.7546771E-02  0.1034389E+00
         21   -1    0    0  504  503  0.00000000000E+00  0.00000000000E+00  0.85717780175E+02  0.85717780175E+02  0.00000000000E+00 0.  1.
         21   -1    0    0  503  504 -0.00000000000E+00 -0.00000000000E+00 -0.53508396698E+03  0.53508396698E+03  0.00000000000E+00 0.  1.
         25    2    1    2    0    0 -0.27977183138E+02 -0.15612131146E+03 -0.32802920652E+03  0.38520763528E+03  0.12500070112E+03 0.  0.
         25    2    1    2    0    0  0.27977183138E+02  0.15612131146E+03 -0.12133698028E+03  0.23559411187E+03  0.12500134437E+03 0.  0.
          5    1    3    3  501    0 -0.37620380939E+02 -0.15040136495E+03 -0.18394363982E+03  0.24061009179E+03  0.47000000000E+01 0. -1.
         -5    1    3    3    0  501  0.96431978003E+01 -0.57199465075E+01 -0.14408556670E+03  0.14459754349E+03  0.47000000000E+01 0. -1.
          5    1    4    4  502    0  0.28169120256E+02  0.14332645317E+03 -0.14652836111E+03  0.20695077222E+03  0.47000000000E+01 0. -1.
         -5    1    4    4    0  502 -0.19193711826E+00  0.12794858288E+02  0.25191380822E+02  0.28643339648E+02  0.47000000000E+01 0. -1.
<mgrwt>
<rscale>  0 0.42832796E+03</rscale>
<asrwt>0</asrwt>
<pdfrwt beam="1">  1       21 0.13187351E-01 0.42832796E+03</pdfrwt>
<pdfrwt beam="2">  1       21 0.82320609E-01 0.42832796E+03</pdfrwt>
<totfact> 0.59131372E+04</totfact>
</mgrwt>
</event>
<event>
 8    1  0.9529436E-006  0.2626807E+03  0.7546771E-02  0.1105543E+00
         21   -1    0    0  504  503  0.00000000000E+00  0.00000000000E+00  0.54134763449E+03  0.54134763449E+03  0.00000000000E+00 0.  1.
         21   -1    0    0  503  504 -0.00000000000E+00 -0.00000000000E+00 -0.31865442928E+02  0.31865442928E+02  0.00000000000E+00 0.  1.
         25    2    1    2    0    0 -0.12899168713E+02  0.64234332421E+01  0.17248439589E+03  0.21349012152E+03  0.12497806253E+03 0.  0.
         25    2    1    2    0    0  0.12899168713E+02 -0.64234332421E+01  0.33699779568E+03  0.35972295590E+03  0.12500176664E+03 0.  0.
          5    1    3    3  501    0 -0.37829901563E+02 -0.50600163186E+02  0.84167556515E+02  0.10534583778E+03  0.47000000000E+01 0. -1.
         -5    1    3    3    0  501  0.24930732851E+02  0.57023596428E+02  0.88316839372E+02  0.10814428374E+03  0.47000000000E+01 0. -1.
          5    1    4    4  502    0  0.26391886087E+02  0.23058139600E+02  0.19190507535E+02  0.40231517900E+02  0.47000000000E+01 0. -1.
         -5    1    4    4    0  502 -0.13492717375E+02 -0.29481572842E+02  0.31780728814E+03  0.31949143800E+03  0.47000000000E+01 0. -1.
<mgrwt>
<rscale>  0 0.26268066E+03</rscale>
<asrwt>0</asrwt>
<pdfrwt beam="1">  1       21 0.83284245E-01 0.26268066E+03</pdfrwt>
<pdfrwt beam="2">  1       21 0.49023762E-02 0.26268066E+03</pdfrwt>
<totfact> 0.34296592E+05</totfact>
</mgrwt>
</event>
<event>
 8    1  0.9529436E-006  0.2612908E+03  0.7546771E-02  0.1106370E+00
         21   -1    0    0  504  503  0.00000000000E+00  0.00000000000E+00  0.60847634163E+02  0.60847634163E+02  0.00000000000E+00 0.  1.
         21   -1    0    0  503  504 -0.00000000000E+00 -0.00000000000E+00 -0.28050748645E+03  0.28050748645E+03  0.00000000000E+00 0.  1.
         25    2    1    2    0    0  0.24556638622E+02 -0.29009826711E+02 -0.10917084910E+03  0.17025799186E+03  0.12499964381E+03 0.  0.
         25    2    1    2    0    0 -0.24556638622E+02  0.29009826711E+02 -0.11048900318E+03  0.17109712875E+03  0.12498723574E+03 0.  0.
          5    1    3    3  501    0 -0.29083260398E+02  0.32217956819E+02 -0.16119725065E+02  0.46537815947E+02  0.47000000000E+01 0. -1.
         -5    1    3    3    0  501  0.53639899020E+02 -0.61227783531E+02 -0.93051124034E+02  0.12372017591E+03  0.47000000000E+01 0. -1.
          5    1    4    4  502    0 -0.10604185819E+02 -0.47715329392E+02 -0.62222180983E+02  0.79264690892E+02  0.47000000000E+01 0.  1.
         -5    1    4    4    0  502 -0.13952452803E+02  0.76725156103E+02 -0.48266822201E+02  0.91832437862E+02  0.47000000000E+01 0.  1.
<mgrwt>
<rscale>  0 0.26129077E+03</rscale>
<asrwt>0</asrwt>
<pdfrwt beam="1">  1       21 0.93611744E-02 0.26129077E+03</pdfrwt>
<pdfrwt beam="2">  1       21 0.43154998E-01 0.26129077E+03</pdfrwt>
<totfact> 0.46405591E+05</totfact>
</mgrwt>
</event>
<event>
 8    1  0.9529436E-006  0.3291747E+03  0.7546771E-02  0.1071503E+00
         21   -1    0    0  504  503  0.00000000000E+00  0.00000000000E+00  0.89920215339E+02  0.89920215339E+02  0.00000000000E+00 0.  1.
         21   -1    0    0  503  504 -0.00000000000E+00 -0.00000000000E+00 -0.30125583638E+03  0.30125583638E+03  0.00000000000E+00 0.  1.
         25    2    1    2    0    0 -0.58424984661E+01 -0.90493364971E+02 -0.17334071785E+03  0.23214301300E+03  0.12498075904E+03 0.  0.
         25    2    1    2    0    0  0.58424984661E+01  0.90493364971E+02 -0.37994903190E+02  0.15903303871E+03  0.12499884336E+03 0.  0.
          5    1    3    3  501    0  0.21056503037E+02 -0.82863326691E+02 -0.37677726710E+02  0.93548962156E+02  0.47000000000E+01 0. -1.
         -5    1    3    3    0  501 -0.26899001503E+02 -0.76300382795E+01 -0.13566299114E+03  0.13859405085E+03  0.47000000000E+01 0. -1.
          5    1    4    4  502    0  0.28875579987E+02  0.60639416679E+01 -0.61432190719E+02  0.68312330986E+02  0.47000000000E+01 0.  1.
         -5    1    4    4    0  502 -0.23033081521E+02  0.84429423303E+02  0.23437287529E+02  0.90720707726E+02  0.47000000000E+01 0.  1.
<mgrwt>
<rscale>  0 0.32917466E+03</rscale>
<asrwt>0</asrwt>
<pdfrwt beam="1">  1       21 0.13833879E-01 0.32917466E+03</pdfrwt>
<pdfrwt beam="2">  1       21 0.46347051E-01 0.32917466E+03</pdfrwt>
<totfact> 0.19552798E+05</totfact>
</mgrwt>
</event>
<event>
 8    1  0.9529436E-006  0.2967347E+03  0.7546771E-02  0.1086884E+00
         21   -1    0    0  504  503  0.00000000000E+00  0.00000000000E+00  0.44897742481E+03  0.44897742481E+03  0.00000000000E+00 0. -1.
         21   -1    0    0  503  504 -0.00000000000E+00 -0.00000000000E+00 -0.49028890409E+02  0.49028890409E+02  0.00000000000E+00 0. -1.
         25    2    1    2    0    0 -0.13355520921E+02  0.42786271728E+02  0.31103375455E+03  0.33819534618E+03  0.12500024288E+03 0.  0.
         25    2    1    2    0    0  0.13355520921E+02 -0.42786271728E+02  0.88914779847E+02  0.15981096904E+03  0.12499869104E+03 0.  0.
          5    1    3    3  501    0  0.43340929099E+02  0.80691761916E+01  0.22521088586E+03  0.22953339811E+03  0.47000000000E+01 0.  1.
         -5    1    3    3    0  501 -0.56696450020E+02  0.34717095536E+02  0.85822868692E+02  0.10866194807E+03  0.47000000000E+01 0.  1.
          5    1    4    4  502    0 -0.54510948227E+02 -0.82968294954E+01  0.27011379923E+02  0.61579099552E+02  0.47000000000E+01 0. -1.
         -5    1    4    4    0  502  0.67866469148E+02 -0.34489442233E+02  0.61903399924E+02  0.98231869484E+02  0.47000000000E+01 0. -1.
<mgrwt>
<rscale>  0 0.29673466E+03</rscale>
<asrwt>0</asrwt>
<pdfrwt beam="1">  1       21 0.69073447E-01 0.29673466E+03</pdfrwt>
<pdfrwt beam="2">  1       21 0.75429065E-02 0.29673466E+03</pdfrwt>
<totfact> 0.24678258E+05</totfact>
</mgrwt>
</event>
<event>
 8    1  0.9529436E-006  0.2601210E+03  0.7546771E-02  0.1107071E+00
         21   -1    0    0  504  503  0.00000000000E+00  0.00000000000E+00  0.67192083757E+02  0.67192083757E+02  0.00000000000E+00 0. -1.
         21   -1    0    0  503  504 -0.00000000000E+00 -0.00000000000E+00 -0.25175182713E+03  0.25175182713E+03  0.00000000000E+00 0. -1.
         25    2    1    2    0    0  0.14269909727E+02 -0.14487936881E+02 -0.55966265543E+02  0.13845892441E+03  0.12500048093E+03 0.  0.
         25    2    1    2    0    0 -0.14269909727E+02  0.14487936881E+02 -0.12859347783E+03  0.18048498648E+03  0.12500006865E+03 0.  0.
          5    1    3    3  501    0 -0.39078718156E+02 -0.15156909321E+02 -0.71217690079E+02  0.82770329787E+02  0.47000000000E+01 0. -1.
         -5    1    3    3    0  501  0.53348627883E+02  0.66897244068E+00  0.15251424536E+02  0.55688594627E+02  0.47000000000E+01 0. -1.
          5    1    4    4  502    0  0.43107491832E+02  0.17434253691E+02 -0.11064436436E+03  0.12011025942E+03  0.47000000000E+01 0.  1.
         -5    1    4    4    0  502 -0.57377401559E+02 -0.29463168101E+01 -0.17949113474E+02  0.60374727055E+02  0.47000000000E+01 0.  1.
<mgrwt>
<rscale>  0 0.26012097E+03</rscale>
<asrwt>0</asrwt>
<pdfrwt beam="1">  1       21 0.10337244E-01 0.26012097E+03</pdfrwt>
<pdfrwt beam="2">  1       21 0.38731050E-01 0.26012097E+03</pdfrwt>
<totfact> 0.48530566E+05</totfact>
</mgrwt>
</event>
<event>
 8    1  0.9529436E-006  0.2853010E+03  0.7546771E-02  0.1092828E+00
         21   -1    0    0  504  503  0.00000000000E+00  0.00000000000E+00  0.98486054466E+02  0.98486054466E+02  0.00000000000E+00 0.  1.
         21   -1    0    0  503  504 -0.00000000000E+00 -0.00000000000E+00 -0.20661983146E+03  0.20661983146E+03  0.00000000000E+00 0.  1.
         25    2    1    2    0    0 -0.27040506539E+02 -0.90347785297E+01  0.12819132442E+02  0.12884552690E+03  0.12499609365E+03 0.  0.
         25    2    1    2    0    0  0.27040506539E+02  0.90347785297E+01 -0.12095290943E+03  0.17626035903E+03  0.12500116658E+03 0.  0.
          5    1    3    3  501    0  0.16103533590E+02  0.16968328779E+02 -0.45659896673E+02  0.51518580530E+02  0.47000000000E+01 0. -1.
         -5    1    3    3    0  501 -0.43144040129E+02 -0.26003107309E+02  0.58479029115E+02  0.77326946368E+02  0.47000000000E+01 0. -1.
          5    1    4    4  502    0  0.19642904849E+02 -0.48784357663E+02 -0.10187969483E+03  0.11474894109E+03  0.47000000000E+01 0.  1.
         -5    1    4    4    0  502  0.73976016902E+01  0.57819136192E+02 -0.19073214605E+02  0.61511417933E+02  0.47000000000E+01 0.  1.
<mgrwt>
<rscale>  0 0.28530105E+03</rscale>
<asrwt>0</asrwt>
<pdfrwt beam="1">  1       21 0.15151701E-01 0.28530105E+03</pdfrwt>
<pdfrwt beam="2">  1       21 0.31787666E-01 0.28530105E+03</pdfrwt>
<totfact> 0.35917349E+05</totfact>
</mgrwt>
</event>
<event>
 8    1  0.9529436E-006  0.2686015E+03  0.7546771E-02  0.1102083E+00
         21   -1    0    0  504  503  0.00000000000E+00  0.00000000000E+00  0.99533279023E+02  0.99533279023E+02  0.00000000000E+00 0. -1.
         21   -1    0    0  503  504 -0.00000000000E+00 -0.00000000000E+00 -0.18121269003E+03  0.18121269003E+03  0.00000000000E+00 0. -1.
         25    2    1    2    0    0 -0.46036843587E+02 -0.90065043997E+01 -0.25642248539E+02  0.13595129156E+03  0.12499888270E+03 0.  0.
         25    2    1    2    0    0  0.46036843587E+02  0.90065043997E+01 -0.56037162467E+02  0.14479467750E+03  0.12499930786E+03 0.  0.
          5    1    3    3  501    0 -0.13958294681E+02 -0.32523093455E+02 -0.68528368158E+02  0.77271034940E+02  0.47000000000E+01 0.  1.
         -5    1    3    3    0  501 -0.32078548906E+02  0.23516589055E+02  0.42886119619E+02  0.58680256617E+02  0.47000000000E+01 0.  1.
          5    1    4    4  502    0  0.56628011019E+02  0.41619755700E+02  0.91132098795E+01  0.71021660716E+02  0.47000000000E+01 0.  1.
         -5    1    4    4    0  502 -0.10591167432E+02 -0.32613251300E+02 -0.65150372347E+02  0.73773016780E+02  0.47000000000E+01 0.  1.
<mgrwt>
<rscale>  0 0.26860151E+03</rscale>
<asrwt>0</asrwt>
<pdfrwt beam="1">  1       21 0.15312812E-01 0.26860151E+03</pdfrwt>
<pdfrwt beam="2">  1       21 0.27878875E-01 0.26860151E+03</pdfrwt>
<totfact> 0.45719545E+05</totfact>
</mgrwt>
</event>
<event>
 8    1  0.9529436E-006  0.3175036E+03  0.7546771E-02  0.1076804E+00
         21   -1    0    0  504  503  0.00000000000E+00  0.00000000000E+00  0.23386413410E+02  0.23386413410E+02  0.00000000000E+00 0. -1.
         21   -1    0    0  503  504 -0.00000000000E+00 -0.00000000000E+00 -0.10776397086E+04  0.10776397086E+04  0.00000000000E+00 0. -1.
         25    2    1    2    0    0  0.10689973562E+02 -0.55917774863E+02 -0.80320788846E+03  0.81486768198E+03  0.12500141587E+03 0.  0.
         25    2    1    2    0    0 -0.10689973562E+02  0.55917774863E+02 -0.25104540678E+03  0.28615844008E+03  0.12498713327E+03 0.  0.
          5    1    3    3  501    0  0.63107380814E+02 -0.49585980061E+02 -0.57446769834E+03  0.58006597674E+03  0.47000000000E+01 0.  1.
         -5    1    3    3    0  501 -0.52417407252E+02 -0.63317948027E+01 -0.22874019012E+03  0.23480170524E+03  0.47000000000E+01 0.  1.
          5    1    4    4  502    0  0.10068873303E+02 -0.13084923421E+02 -0.19231515599E+03  0.19307979349E+03  0.47000000000E+01 0.  1.
         -5    1    4    4    0  502 -0.20758846865E+02  0.69002698284E+02 -0.58730250791E+02  0.93078646593E+02  0.47000000000E+01 0.  1.
<mgrwt>
<rscale>  0 0.31750356E+03</rscale>
<asrwt>0</asrwt>
<pdfrwt beam="1">  1       21 0.35979097E-02 0.31750356E+03</pdfrwt>
<pdfrwt beam="2">  1       21 0.16579073E+00 0.31750356E+03</pdfrwt>
<totfact> 0.10152522E+05</totfact>
</mgrwt>
</event>
<event>
 8    1  0.9529436E-006  0.5342797E+03  0.7546771E-02  0.1005199E+00
         21   -1    0    0  504  503  0.00000000000E+00  0.00000000000E+00  0.28105968200E+03  0.28105968200E+03  0.00000000000E+00 0.  1.
         21   -1    0    0  503  504 -0.00000000000E+00 -0.00000000000E+00 -0.25390944321E+03  0.25390944321E+03  0.00000000000E+00 0.  1.
         25    2    1    2    0    0 -0.27883104755E+02 -0.86021356671E+02 -0.20479249714E+03  0.25640169569E+03  0.12499888532E+03 0.  0.
         25    2    1    2    0    0  0.27883104755E+02  0.86021356671E+02  0.23194273593E+03  0.27856742952E+03  0.12500095482E+03 0.  0.
          5    1    3    3  501    0  0.45761745459E+02 -0.57835488602E+02 -0.81918089446E+02  0.11032562924E+03  0.47000000000E+01 0. -1.
         -5    1    3    3    0  501 -0.73644850213E+02 -0.28185868069E+02 -0.12287440769E+03  0.14607606644E+03  0.47000000000E+01 0. -1.
          5    1    4    4  502    0 -0.20938932140E+02 -0.22997916156E+02  0.27708277533E+02  0.41918750823E+02  0.47000000000E+01 0. -1.
         -5    1    4    4    0  502  0.48822036895E+02  0.10901927283E+03  0.20423445839E+03  0.23664867870E+03  0.47000000000E+01 0. -1.
<mgrwt>
<rscale>  0 0.53427973E+03</rscale>
<asrwt>0</asrwt>
<pdfrwt beam="1">  1       21 0.43239951E-01 0.53427973E+03</pdfrwt>
<pdfrwt beam="2">  1       21 0.39062991E-01 0.53427973E+03</pdfrwt>
<totfact> 0.29080809E+04</totfact>
</mgrwt>
</event>
<event>
 8    1  0.9529436E-006  0.3419502E+03  0.7546771E-02  0.1065968E+00
         21   -1    0    0  504  503  0.00000000000E+00  0.00000000000E+00  0.10848547147E+03  0.10848547147E+03  0.00000000000E+00 0.  1.
         21   -1    0    0  503  504 -0.00000000000E+00 -0.00000000000E+00 -0.26945987413E+03  0.26945987413E+03  0.00000000000E+00 0.  1.
         25    2    1    2    0    0 -0.34522398924E+02  0.25989667890E+02 -0.20024691165E+03  0.23998263545E+03  0.12500232329E+03 0.  0.
         25    2    1    2    0    0  0.34522398924E+02 -0.25989667890E+02  0.39272508992E+02  0.13796271015E+03  0.12499648222E+03 0.  0.
          5    1    3    3  501    0 -0.74613631126E+02 -0.69950708350E+01 -0.14916395032E+03  0.16699730249E+03  0.47000000000E+01 0. -1.
         -5    1    3    3    0  501  0.40091232202E+02  0.32984738725E+02 -0.51082961334E+02  0.72985332957E+02  0.47000000000E+01 0. -1.
          5    1    4    4  502    0 -0.44511602938E+02 -0.28130834865E+02  0.12134765905E+02  0.54239922658E+02  0.47000000000E+01 0.  1.
         -5    1    4    4    0  502  0.79034001863E+02  0.21411669749E+01  0.27137743087E+02  0.83722787497E+02  0.47000000000E+01 0.  1.
<mgrwt>
<rscale>  0 0.34195018E+03</rscale>
<asrwt>0</asrwt>
<pdfrwt beam="1">  1       21 0.16690073E-01 0.34195018E+03</pdfrwt>
<pdfrwt beam="2">  1       21 0.41455365E-01 0.34195018E+03</pdfrwt>
<totfact> 0.17379728E+05</totfact>
</mgrwt>
</event>
<event>
 8    1  0.9529436E-006  0.2734951E+03  0.7546771E-02  0.1099296E+00
         21   -1    0    0  504  503  0.00000000000E+00  0.00000000000E+00  0.18296016865E+03  0.18296016865E+03  0.00000000000E+00 0. -1.
         21   -1    0    0  503  504 -0.00000000000E+00 -0.00000000000E+00 -0.10220742334E+03  0.10220742334E+03  0.00000000000E+00 0. -1.
         25    2    1    2    0    0 -0.46984193906E+01 -0.33033038119E+02 -0.57734246388E+01  0.12952711742E+03  0.12502273778E+03 0.  0.
         25    2    1    2    0    0  0.46984193906E+01  0.33033038119E+02  0.86526169950E+02  0.15564047457E+03  0.12499568987E+03 0.  0.
          5    1    3    3  501    0 -0.18978234157E+02 -0.67347454432E+02 -0.38307806578E+02  0.79908892090E+02  0.47000000000E+01 0.  1.
         -5    1    3    3    0  501  0.14279814767E+02  0.34314416313E+02  0.32534381939E+02  0.49618225330E+02  0.47000000000E+01 0.  1.
          5    1    4    4  502    0 -0.24856002715E+02  0.62286264379E+01 -0.25605667086E+02  0.36528849492E+02  0.47000000000E+01 0. -1.
         -5    1    4    4    0  502  0.29554422106E+02  0.26804411681E+02  0.11213183704E+03  0.11911162508E+03  0.47000000000E+01 0. -1.
<mgrwt>
<rscale>  0 0.27349506E+03</rscale>
<asrwt>0</asrwt>
<pdfrwt beam="1">  1       21 0.28147718E-01 0.27349506E+03</pdfrwt>
<pdfrwt beam="2">  1       21 0.15724219E-01 0.27349506E+03</pdfrwt>
<totfact> 0.42698349E+05</totfact>
</mgrwt>
</event>
<event>
 8    1  0.9529436E-006  0.3378782E+03  0.7546771E-02  0.1067703E+00
         21   -1    0    0  504  503  0.00000000000E+00  0.00000000000E+00  0.77274131080E+02  0.77274131080E+02  0.00000000000E+00 0.  1.
         21   -1    0    0  503  504 -0.00000000000E+00 -0.00000000000E+00 -0.36933982594E+03  0.36933982594E+03  0.00000000000E+00 0.  1.
         25    2    1    2    0    0  0.37487846347E+01 -0.92305225981E+02 -0.23353530522E+03  0.28052754502E+03  0.12499062606E+03 0.  0.
         25    2    1    2    0    0 -0.37487846347E+01  0.92305225981E+02 -0.58530389643E+02  0.16608641200E+03  0.12499832643E+03 0.  0.
          5    1    3    3  501    0  0.15658629849E+02  0.29073329020E+02 -0.48369580965E+02  0.58755063712E+02  0.47000000000E+01 0.  1.
         -5    1    3    3    0  501 -0.11909845214E+02 -0.12137855500E+03 -0.18516572425E+03  0.22177248131E+03  0.47000000000E+01 0.  1.
          5    1    4    4  502    0  0.60638692959E+01  0.14174629117E+01 -0.72997756642E+02  0.73413501392E+02  0.47000000000E+01 0.  1.
         -5    1    4    4    0  502 -0.98126539306E+01  0.90887763069E+02  0.14467366999E+02  0.92672910609E+02  0.47000000000E+01 0.  1.
<mgrwt>
<rscale>  0 0.33787817E+03</rscale>
<asrwt>0</asrwt>
<pdfrwt beam="1">  1       21 0.11888328E-01 0.33787817E+03</pdfrwt>
<pdfrwt beam="2">  1       21 0.56821512E-01 0.33787817E+03</pdfrwt>
<totfact> 0.16691569E+05</totfact>
</mgrwt>
</event>
<event>
 8    1  0.9529436E-006  0.4673087E+03  0.7546771E-02  0.1022683E+00
         21   -1    0    0  504  503  0.00000000000E+00  0.00000000000E+00  0.10080001638E+03  0.10080001638E+03  0.00000000000E+00 0. -1.
         21   -1    0    0  503  504 -0.00000000000E+00 -0.00000000000E+00 -0.54161062015E+03  0.54161062015E+03  0.00000000000E+00 0. -1.
         25    2    1    2    0    0 -0.15773234730E+03 -0.11866172758E+03 -0.22443223574E+03  0.32396732477E+03  0.12499960041E+03 0.  0.
         25    2    1    2    0    0  0.15773234730E+03  0.11866172758E+03 -0.21637836802E+03  0.31844331176E+03  0.12500578257E+03 0.  0.
          5    1    3    3  501    0 -0.85801697405E+02 -0.36742466487E+02 -0.18621307796E+03  0.20834908333E+03  0.47000000000E+01 0. -1.
         -5    1    3    3    0  501 -0.71930649892E+02 -0.81919261098E+02 -0.38219157782E+02  0.11561824144E+03  0.47000000000E+01 0. -1.
          5    1    4    4  502    0  0.14154554489E+03  0.13705608308E+03 -0.21744843019E+03  0.29347132906E+03  0.47000000000E+01 0. -1.
         -5    1    4    4    0  502  0.16186802411E+02 -0.18394355500E+02  0.10700621724E+01  0.24971982693E+02  0.47000000000E+01 0. -1.
<mgrwt>
<rscale>  0 0.46730872E+03</rscale>
<asrwt>0</asrwt>
<pdfrwt beam="1">  1       21 0.15507695E-01 0.46730872E+03</pdfrwt>
<pdfrwt beam="2">  1       21 0.83324712E-01 0.46730872E+03</pdfrwt>
<totfact> 0.42238198E+04</totfact>
</mgrwt>
</event>
<event>
 8    1  0.9529436E-006  0.2573602E+03  0.7546771E-02  0.1108740E+00
         21   -1    0    0  504  503  0.00000000000E+00  0.00000000000E+00  0.10484338765E+03  0.10484338765E+03  0.00000000000E+00 0. -1.
         21   -1    0    0  503  504 -0.00000000000E+00 -0.00000000000E+00 -0.15793616245E+03  0.15793616245E+03  0.00000000000E+00 0. -1.
         25    2    1    2    0    0  0.21755003703E+01  0.66613408074E+01 -0.56916878719E+02  0.13752612108E+03  0.12499918653E+03 0.  0.
         25    2    1    2    0    0 -0.21755003703E+01 -0.66613408074E+01  0.38241039180E+01  0.12525342902E+03  0.12499876578E+03 0.  0.
          5    1    3    3  501    0  0.16323921433E+02 -0.56939916416E+02 -0.32941914033E+02  0.67940298738E+02  0.47000000000E+01 0.  1.
         -5    1    3    3    0  501 -0.14148421063E+02  0.63601257223E+02 -0.23974964685E+02  0.69585822339E+02  0.47000000000E+01 0.  1.
          5    1    4    4  502    0 -0.92267555686E+01  0.47774650690E+02 -0.33007208376E+02  0.58984032345E+02  0.47000000000E+01 0. -1.
         -5    1    4    4    0  502  0.70512551983E+01 -0.54435991497E+02  0.36831312294E+02  0.66269396674E+02  0.47000000000E+01 0. -1.
<mgrwt>
<rscale>  0 0.25736015E+03</rscale>
<asrwt>0</asrwt>
<pdfrwt beam="1">  1       21 0.16129752E-01 0.25736015E+03</pdfrwt>
<pdfrwt beam="2">  1       21 0.24297871E-01 0.25736015E+03</pdfrwt>
<totfact> 0.54289706E+05</totfact>
</mgrwt>
</event>
<event>
 8    1  0.9529436E-006  0.3113099E+03  0.7546771E-02  0.1079720E+00
         21   -1    0    0  504  503  0.00000000000E+00  0.00000000000E+00  0.12249746433E+03  0.12249746433E+03  0.00000000000E+00 0.  1.
         21   -1    0    0  503  504 -0.00000000000E+00 -0.00000000000E+00 -0.19778744361E+03  0.19778744361E+03  0.00000000000E+00 0.  1.
         25    2    1    2    0    0 -0.53463065352E+02 -0.39232143321E+02  0.29087369243E+02  0.14445122080E+03  0.12499047850E+03 0.  0.
         25    2    1    2    0    0  0.53463065352E+02  0.39232143321E+02 -0.10437734853E+03  0.17583368714E+03  0.12500157688E+03 0.  0.
          5    1    3    3  501    0 -0.85509496296E+02  0.50894561277E+01  0.25221030653E+02  0.89420170587E+02  0.47000000000E+01 0.  1.
         -5    1    3    3    0  501  0.32046430944E+02 -0.44321599449E+02  0.38663385901E+01  0.55031050218E+02  0.47000000000E+01 0.  1.
          5    1    4    4  502    0  0.38085208085E+02 -0.41044477439E+02 -0.61899313746E+02  0.83598727535E+02  0.47000000000E+01 0. -1.
         -5    1    4    4    0  502  0.15377857267E+02  0.80276620761E+02 -0.42478034779E+02  0.92234959606E+02  0.47000000000E+01 0. -1.
<mgrwt>
<rscale>  0 0.31130988E+03</rscale>
<asrwt>0</asrwt>
<pdfrwt beam="1">  1       21 0.18845764E-01 0.31130988E+03</pdfrwt>
<pdfrwt beam="2">  1       21 0.30428837E-01 0.31130988E+03</pdfrwt>
<totfact> 0.25979997E+05</totfact>
</mgrwt>
</event>
<event>
 8    1  0.9529436E-006  0.2686200E+03  0.7546771E-02  0.1102072E+00
         21   -1    0    0  504  503  0.00000000000E+00  0.00000000000E+00  0.99544276134E+03  0.99544276134E+03  0.00000000000E+00 0. -1.
         21   -1    0    0  503  504 -0.00000000000E+00 -0.00000000000E+00 -0.18121756665E+02  0.18121756665E+02  0.00000000000E+00 0. -1.
         25    2    1    2    0    0  0.66793571146E-01  0.31622156297E+02  0.34722678089E+03  0.37040993941E+03  0.12504847305E+03 0.  0.
         25    2    1    2    0    0 -0.66793571146E-01 -0.31622156297E+02  0.63009422378E+03  0.64315457859E+03  0.12501646250E+03 0.  0.
          5    1    3    3  501    0 -0.58379336578E+02  0.38274390793E+02  0.19046499459E+03  0.20290904389E+03  0.47000000000E+01 0.  1.
         -5    1    3    3    0  501  0.58446130150E+02 -0.66522344963E+01  0.15676178630E+03  0.16750089551E+03  0.47000000000E+01 0.  1.
          5    1    4    4  502    0 -0.32304987294E+01 -0.48220937946E+01  0.60777422028E+03  0.60782010624E+03  0.47000000000E+01 0. -1.
         -5    1    4    4    0  502  0.31637051583E+01 -0.26800062502E+02  0.22320003499E+02  0.35334472355E+02  0.47000000000E+01 0. -1.
<mgrwt>
<rscale>  0 0.26861997E+03</rscale>
<asrwt>0</asrwt>
<pdfrwt beam="1">  1       21 0.15314500E+00 0.26861997E+03</pdfrwt>
<pdfrwt beam="2">  1       21 0.27879634E-02 0.26861997E+03</pdfrwt>
<totfact> 0.19642367E+05</totfact>
</mgrwt>
</event>
<event>
 8    1  0.9529436E-006  0.3886580E+03  0.7546771E-02  0.1047779E+00
         21   -1    0    0  504  503  0.00000000000E+00  0.00000000000E+00  0.10915913058E+03  0.10915913058E+03  0.00000000000E+00 0.  1.
         21   -1    0    0  503  504 -0.00000000000E+00 -0.00000000000E+00 -0.34595140694E+03  0.34595140694E+03  0.00000000000E+00 0.  1.
         25    2    1    2    0    0 -0.59501912023E+01  0.14824612159E+03 -0.13156282641E+03  0.23440565354E+03  0.12499966310E+03 0.  0.
         25    2    1    2    0    0  0.59501912023E+01 -0.14824612159E+03 -0.10522944995E+03  0.22070488399E+03  0.12500036534E+03 0.  0.
          5    1    3    3  501    0  0.13093492061E+02  0.25426590391E+02  0.22292660072E+02  0.36565061552E+02  0.47000000000E+01 0.  1.
         -5    1    3    3    0  501 -0.19043683264E+02  0.12281953120E+03 -0.15385548648E+03  0.19784059198E+03  0.47000000000E+01 0.  1.
          5    1    4    4  502    0 -0.51007536905E+01 -0.13494442773E+03 -0.13173348906E+03  0.18871093875E+03  0.47000000000E+01 0.  1.
         -5    1    4    4    0  502  0.11050944893E+02 -0.13301693860E+02  0.26504039110E+02  0.31993945236E+02  0.47000000000E+01 0.  1.
<mgrwt>
<rscale>  0 0.38865797E+03</rscale>
<asrwt>0</asrwt>
<pdfrwt beam="1">  1       21 0.16793713E-01 0.38865797E+03</pdfrwt>
<pdfrwt beam="2">  1       21 0.53223293E-01 0.38865797E+03</pdfrwt>
<totfact> 0.10069900E+05</totfact>
</mgrwt>
</event>
<event>
 8    1  0.9529436E-006  0.3240915E+03  0.7546771E-02  0.1073782E+00
         21   -1    0    0  504  503  0.00000000000E+00  0.00000000000E+00  0.39836757270E+02  0.39836757270E+02  0.00000000000E+00 0.  1.
         21   -1    0    0  503  504 -0.00000000000E+00 -0.00000000000E+00 -0.65916069747E+03  0.65916069747E+03  0.00000000000E+00 0.  1.
         25    2    1    2    0    0  0.56142103755E+02 -0.66816169353E+02 -0.42814685088E+03  0.45447672165E+03  0.12499211296E+03 0.  0.
         25    2    1    2    0    0 -0.56142103755E+02  0.66816169353E+02 -0.19117708932E+03  0.24452073309E+03  0.12500149251E+03 0.  0.
          5    1    3    3  501    0  0.71256504987E+02 -0.62343552216E+01 -0.33262557889E+03  0.34026199085E+03  0.47000000000E+01 0. -1.
         -5    1    3    3    0  501 -0.15114401232E+02 -0.60581814132E+02 -0.95521271991E+02  0.11421473080E+03  0.47000000000E+01 0. -1.
          5    1    4    4  502    0 -0.29565658271E+02  0.31774305489E+02  0.45185276181E+01  0.43888970484E+02  0.47000000000E+01 0.  1.
         -5    1    4    4    0  502 -0.26576445484E+02  0.35041863864E+02 -0.19569561694E+03  0.20063176261E+03  0.47000000000E+01 0.  1.
<mgrwt>
<rscale>  0 0.32409150E+03</rscale>
<asrwt>0</asrwt>
<pdfrwt beam="1">  1       21 0.61287322E-02 0.32409150E+03</pdfrwt>
<pdfrwt beam="2">  1       21 0.10140933E+00 0.32409150E+03</pdfrwt>
<totfact> 0.14483966E+05</totfact>
</mgrwt>
</event>
<event>
 8    1  0.9529436E-006  0.4584491E+03  0.7546771E-02  0.1025232E+00
         21   -1    0    0  504  503  0.00000000000E+00  0.00000000000E+00  0.70530823638E+03  0.70530823638E+03  0.00000000000E+00 0.  1.
         21   -1    0    0  503  504 -0.00000000000E+00 -0.00000000000E+00 -0.74497773555E+02  0.74497773555E+02  0.00000000000E+00 0.  1.
         25    2    1    2    0    0 -0.94535643768E+02  0.58267813808E+02  0.58212544017E+03  0.60566355886E+03  0.12500476941E+03 0.  0.
         25    2    1    2    0    0  0.94535643768E+02 -0.58267813808E+02  0.48685022660E+02  0.17414245108E+03  0.12499294287E+03 0.  0.
          5    1    3    3  501    0  0.19001165969E+02 -0.20751407759E+02  0.11314356297E+03  0.11668427946E+03  0.47000000000E+01 0.  1.
         -5    1    3    3    0  501 -0.11353680974E+03  0.79019221567E+02  0.46898187719E+03  0.48897927940E+03  0.47000000000E+01 0.  1.
          5    1    4    4  502    0 -0.24141887670E+02  0.11255151430E+02 -0.28273820646E+01  0.27195464021E+02  0.47000000000E+01 0. -1.
         -5    1    4    4    0  502  0.11867753144E+03 -0.69522965239E+02  0.51512404725E+02  0.14694698705E+03  0.47000000000E+01 0. -1.
<mgrwt>
<rscale>  0 0.45844910E+03</rscale>
<asrwt>0</asrwt>
<pdfrwt beam="1">  1       21 0.10850895E+00 0.45844910E+03</pdfrwt>
<pdfrwt beam="2">  1       21 0.11461196E-01 0.45844910E+03</pdfrwt>
<totfact> 0.39123119E+04</totfact>
</mgrwt>
</event>
<event>
 8    1  0.9529436E-006  0.3406352E+03  0.7546771E-02  0.1066526E+00
         21   -1    0    0  504  503  0.00000000000E+00  0.00000000000E+00  0.12517622553E+02  0.12517622553E+02  0.00000000000E+00 0. -1.
         21   -1    0    0  503  504 -0.00000000000E+00 -0.00000000000E+00 -0.23173801195E+04  0.23173801195E+04  0.00000000000E+00 0. -1.
         25    2    1    2    0    0  0.99343453748E+02 -0.10734164244E+02 -0.75346154049E+03  0.77026398713E+03  0.12497188799E+03 0.  0.
         25    2    1    2    0    0 -0.99343453748E+02  0.10734164244E+02 -0.15514009564E+04  0.15596337549E+04  0.12501271021E+03 0.  0.
          5    1    3    3  501    0 -0.51226147171E+01 -0.11831039005E+02 -0.43203621860E+03  0.43225409061E+03  0.47000000000E+01 0. -1.
         -5    1    3    3    0  501  0.10446606847E+03  0.10968747615E+01 -0.32142532189E+03  0.33800989652E+03  0.47000000000E+01 0. -1.
          5    1    4    4  502    0 -0.40436603373E+02  0.65900058022E+02 -0.64491242930E+03  0.64954758718E+03  0.47000000000E+01 0. -1.
         -5    1    4    4    0  502 -0.58906850376E+02 -0.55165893778E+02 -0.90648852714E+03  0.91008616773E+03  0.47000000000E+01 0. -1.
<mgrwt>
<rscale>  0 0.34063523E+03</rscale>
<asrwt>0</asrwt>
<pdfrwt beam="1">  1       21 0.19257870E-02 0.34063523E+03</pdfrwt>
<pdfrwt beam="2">  1       21 0.35652022E+00 0.34063523E+03</pdfrwt>
<totfact> 0.18500899E+04</totfact>
</mgrwt>
</event>
<event>
 8    1  0.9529436E-006  0.4006890E+03  0.7546771E-02  0.1043541E+00
         21   -1    0    0  504  503  0.00000000000E+00  0.00000000000E+00  0.69717116929E+02  0.69717116929E+02  0.00000000000E+00 0.  1.
         21   -1    0    0  503  504 -0.00000000000E+00 -0.00000000000E+00 -0.57572545668E+03  0.57572545668E+03  0.00000000000E+00 0.  1.
         25    2    1    2    0    0 -0.56136582661E+01  0.13731670076E+03 -0.13220785318E+03  0.22802453608E+03  0.12501553161E+03 0.  0.
         25    2    1    2    0    0  0.56136582661E+01 -0.13731670076E+03 -0.37380048657E+03  0.41741803753E+03  0.12499449919E+03 0.  0.
          5    1    3    3  501    0 -0.26383995289E+02  0.63965919616E+02 -0.13480709653E+03  0.15160078283E+03  0.47000000000E+01 0. -1.
         -5    1    3    3    0  501  0.20770337023E+02  0.73350781144E+02  0.25992433507E+01  0.76423753248E+02  0.47000000000E+01 0. -1.
          5    1    4    4  502    0  0.13401146573E+02  0.10558366303E+02 -0.27832027697E+01  0.17913850678E+02  0.47000000000E+01 0. -1.
         -5    1    4    4    0  502 -0.77874883071E+01 -0.14787506706E+03 -0.37101728380E+03  0.39950418685E+03  0.47000000000E+01 0. -1.
<mgrwt>
<rscale>  0 0.40068900E+03</rscale>
<asrwt>0</asrwt>
<pdfrwt beam="1">  1       21 0.10725710E-01 0.40068900E+03</pdfrwt>
<pdfrwt beam="2">  1       21 0.88573146E-01 0.40068900E+03</pdfrwt>
<totfact> 0.73015119E+04</totfact>
</mgrwt>
</event>
<event>
 8    1  0.9529436E-006  0.2538102E+03  0.7546771E-02  0.1110920E+00
         21   -1    0    0  504  503  0.00000000000E+00  0.00000000000E+00  0.10018382488E+03  0.10018382488E+03  0.00000000000E+00 0. -1.
         21   -1    0    0  503  504 -0.00000000000E+00 -0.00000000000E+00 -0.16075348654E+03  0.16075348654E+03  0.00000000000E+00 0. -1.
         25    2    1    2    0    0  0.15294239105E+02 -0.12920558930E+02 -0.39466525401E+02  0.13259508292E+03  0.12499197892E+03 0.  0.
         25    2    1    2    0    0 -0.15294239105E+02  0.12920558930E+02 -0.21103136262E+02  0.12834222851E+03  0.12500212264E+03 0.  0.
          5    1    3    3  501    0  0.60586419640E+02  0.25964224642E+02 -0.14131680169E+02  0.67576990097E+02  0.47000000000E+01 0. -1.
         -5    1    3    3    0  501 -0.45292180535E+02 -0.38884783573E+02 -0.25334845232E+02  0.65018092821E+02  0.47000000000E+01 0. -1.
          5    1    4    4  502    0  0.22304330098E+00 -0.12112662935E+01 -0.72481282349E+02  0.72643948167E+02  0.47000000000E+01 0.  1.
         -5    1    4    4    0  502 -0.15517282406E+02  0.14131825224E+02  0.51378146088E+02  0.55698280340E+02  0.47000000000E+01 0.  1.
<mgrwt>
<rscale>  0 0.25381016E+03</rscale>
<asrwt>0</asrwt>
<pdfrwt beam="1">  1       21 0.15412896E-01 0.25381016E+03</pdfrwt>
<pdfrwt beam="2">  1       21 0.24731305E-01 0.25381016E+03</pdfrwt>
<totfact> 0.57092449E+05</totfact>
</mgrwt>
</event>
<event>
 8    1  0.9529436E-006  0.2776683E+03  0.7546771E-02  0.1096969E+00
         21   -1    0    0  504  503  0.00000000000E+00  0.00000000000E+00  0.21169307870E+03  0.21169307870E+03  0.00000000000E+00 0. -1.
         21   -1    0    0  503  504 -0.00000000000E+00 -0.00000000000E+00 -0.91051264422E+02  0.91051264422E+02  0.00000000000E+00 0. -1.
         25    2    1    2    0    0  0.10576770355E+02 -0.58096799727E+02  0.46296974813E+02  0.14577539334E+03  0.12497979524E+03 0.  0.
         25    2    1    2    0    0 -0.10576770355E+02  0.58096799727E+02  0.74344839462E+02  0.15696894977E+03  0.12499995932E+03 0.  0.
          5    1    3    3  501    0 -0.18485868400E+02  0.25064893699E+02 -0.18306767599E+02  0.36430810677E+02  0.47000000000E+01 0. -1.
         -5    1    3    3    0  501  0.29062638754E+02 -0.83161693426E+02  0.64603742411E+02  0.10934458267E+03  0.47000000000E+01 0. -1.
          5    1    4    4  502    0  0.43534144784E+02  0.59154314714E+02  0.71437330362E+02  0.10256625605E+03  0.47000000000E+01 0.  1.
         -5    1    4    4    0  502 -0.54110915139E+02 -0.10575149869E+01  0.29075090994E+01  0.54402693722E+02  0.47000000000E+01 0.  1.
<mgrwt>
<rscale>  0 0.27766831E+03</rscale>
<asrwt>0</asrwt>
<pdfrwt beam="1">  1       21 0.32568166E-01 0.27766831E+03</pdfrwt>
<pdfrwt beam="2">  1       21 0.14007887E-01 0.27766831E+03</pdfrwt>
<totfact> 0.39582413E+05</totfact>
</mgrwt>
</event>
<event>
 8    1  0.9529436E-006  0.2987965E+03  0.7546771E-02  0.1085844E+00
         21   -1    0    0  504  503  0.00000000000E+00  0.00000000000E+00  0.10814194331E+03  0.10814194331E+03  0.00000000000E+00 0.  1.
         21   -1    0    0  503  504 -0.00000000000E+00 -0.00000000000E+00 -0.20639396105E+03  0.20639396105E+03  0.00000000000E+00 0.  1.
         25    2    1    2    0    0 -0.52236374617E+02 -0.34630456338E+02  0.62453706010E+01  0.13997444906E+03  0.12500373753E+03 0.  0.
         25    2    1    2    0    0  0.52236374617E+02  0.34630456338E+02 -0.10449738834E+03  0.17456145529E+03  0.12499636061E+03 0.  0.
          5    1    3    3  501    0 -0.91812193096E+02 -0.10712356972E+02  0.11205632945E+02  0.93230304101E+02  0.47000000000E+01 0.  1.
         -5    1    3    3    0  501  0.39575818479E+02 -0.23918099366E+02 -0.49602623443E+01  0.46744144960E+02  0.47000000000E+01 0.  1.
          5    1    4    4  502    0  0.96229020171E+01  0.62745328130E+02 -0.65259237270E+01  0.63986358904E+02  0.47000000000E+01 0.  1.
         -5    1    4    4    0  502  0.42613472600E+02 -0.28114871792E+02 -0.97971464615E+02  0.11057509639E+03  0.47000000000E+01 0.  1.
<mgrwt>
<rscale>  0 0.29879655E+03</rscale>
<asrwt>0</asrwt>
<pdfrwt beam="1">  1       21 0.16637222E-01 0.29879655E+03</pdfrwt>
<pdfrwt beam="2">  1       21 0.31752916E-01 0.29879655E+03</pdfrwt>
<totfact> 0.30206952E+05</totfact>
</mgrwt>
</event>
<event>
 8    1  0.9529436E-006  0.3239475E+03  0.7546771E-02  0.1073847E+00
         21   -1    0    0  504  503  0.00000000000E+00  0.00000000000E+00  0.12494679529E+03  0.12494679529E+03  0.00000000000E+00 0. -1.
         21   -1    0    0  503  504 -0.00000000000E+00 -0.00000000000E+00 -0.20997328236E+03  0.20997328236E+03  0.00000000000E+00 0. -1.
         25    2    1    2    0    0 -0.20552145820E+02 -0.97898759938E+02 -0.17113773393E+02  0.16101197827E+03  0.12500167203E+03 0.  0.
         25    2    1    2    0    0  0.20552145820E+02  0.97898759938E+02 -0.67912713674E+02  0.17390809939E+03  0.12500132983E+03 0.  0.
          5    1    3    3  501    0  0.33363796964E+01 -0.10083981196E+02  0.47759557001E+02  0.49151636709E+02  0.47000000000E+01 0. -1.
         -5    1    3    3    0  501 -0.23888525517E+02 -0.87814778742E+02 -0.64873330394E+02  0.11186034156E+03  0.47000000000E+01 0. -1.
          5    1    4    4  502    0  0.10711694853E+02  0.12565019085E+03 -0.38283147257E+02  0.13187266673E+03  0.47000000000E+01 0. -1.
         -5    1    4    4    0  502  0.98404509673E+01 -0.27751430910E+02 -0.29629566416E+02  0.42035432659E+02  0.47000000000E+01 0. -1.
<mgrwt>
<rscale>  0 0.32394746E+03</rscale>
<asrwt>0</asrwt>
<pdfrwt beam="1">  1       21 0.19222584E-01 0.32394746E+03</pdfrwt>
<pdfrwt beam="2">  1       21 0.32303582E-01 0.32394746E+03</pdfrwt>
<totfact> 0.22177687E+05</totfact>
</mgrwt>
</event>
<event>
 8    1  0.9529436E-006  0.3225545E+03  0.7546771E-02  0.1074480E+00
         21   -1    0    0  504  503  0.00000000000E+00  0.00000000000E+00  0.21266026765E+03  0.21266026765E+03  0.00000000000E+00 0. -1.
         21   -1    0    0  503  504 -0.00000000000E+00 -0.00000000000E+00 -0.12230940410E+03  0.12230940410E+03  0.00000000000E+00 0. -1.
         25    2    1    2    0    0 -0.39033096562E+02  0.10398160554E+02  0.14234505701E+03  0.19370049256E+03  0.12500424470E+03 0.  0.
         25    2    1    2    0    0  0.39033096562E+02 -0.10398160554E+02 -0.51994193465E+02  0.14126917919E+03  0.12498752124E+03 0.  0.
          5    1    3    3  501    0 -0.46536820527E+02  0.62382573958E+02  0.94331537430E+02  0.12238378223E+03  0.47000000000E+01 0. -1.
         -5    1    3    3    0  501  0.75037239655E+01 -0.51984413404E+02  0.48013519585E+02  0.71316710337E+02  0.47000000000E+01 0. -1.
          5    1    4    4  502    0  0.20104052775E+02 -0.11447416340E+02  0.40422420544E+02  0.46811092291E+02  0.47000000000E+01 0. -1.
         -5    1    4    4    0  502  0.18929043787E+02  0.10492557863E+01 -0.92416614009E+02  0.94458086903E+02  0.47000000000E+01 0. -1.
<mgrwt>
<rscale>  0 0.32255450E+03</rscale>
<asrwt>0</asrwt>
<pdfrwt beam="1">  1       21 0.32716964E-01 0.32255450E+03</pdfrwt>
<pdfrwt beam="2">  1       21 0.18816831E-01 0.32255450E+03</pdfrwt>
<totfact> 0.22515012E+05</totfact>
</mgrwt>
</event>
<event>
 8    1  0.9529436E-006  0.2714411E+03  0.7546771E-02  0.1100458E+00
         21   -1    0    0  504  503  0.00000000000E+00  0.00000000000E+00  0.38019172803E+02  0.38019172803E+02  0.00000000000E+00 0.  1.
         21   -1    0    0  503  504 -0.00000000000E+00 -0.00000000000E+00 -0.48449407329E+03  0.48449407329E+03  0.00000000000E+00 0.  1.
         25    2    1    2    0    0  0.11411716889E+02  0.46939475364E+01 -0.12426386078E+03  0.17668965556E+03  0.12500186742E+03 0.  0.
         25    2    1    2    0    0 -0.11411716889E+02 -0.46939475364E+01 -0.32221103971E+03  0.34582359054E+03  0.12498696427E+03 0.  0.
          5    1    3    3  501    0 -0.41086040727E+02  0.10005976565E+02 -0.10386600530E+01  0.42559970916E+02  0.47000000000E+01 0. -1.
         -5    1    3    3    0  501  0.52497757617E+02 -0.53120290285E+01 -0.12322520073E+03  0.13412968464E+03  0.47000000000E+01 0. -1.
          5    1    4    4  502    0 -0.24056469119E+01 -0.62449636672E+02 -0.12136748329E+03  0.13659392468E+03  0.47000000000E+01 0.  1.
         -5    1    4    4    0  502 -0.90060699775E+01  0.57755689136E+02 -0.20084355642E+03  0.20922966587E+03  0.47000000000E+01 0.  1.
<mgrwt>
<rscale>  0 0.27144107E+03</rscale>
<asrwt>0</asrwt>
<pdfrwt beam="1">  1       21 0.58491037E-02 0.27144107E+03</pdfrwt>
<pdfrwt beam="2">  1       21 0.74537547E-01 0.27144107E+03</pdfrwt>
<totfact> 0.32551083E+05</totfact>
</mgrwt>
</event>
<event>
 8    1  0.9529436E-006  0.2886520E+03  0.7546771E-02  0.1091055E+00
         21   -1    0    0  504  503  0.00000000000E+00  0.00000000000E+00  0.96112066114E+02  0.96112066114E+02  0.00000000000E+00 0. -1.
         21   -1    0    0  503  504 -0.00000000000E+00 -0.00000000000E+00 -0.21672618296E+03  0.21672618296E+03  0.00000000000E+00 0. -1.
         25    2    1    2    0    0  0.56263604209E+02  0.38706535869E+02 -0.35091217396E+02  0.14669407446E+03  0.12499587539E+03 0.  0.
         25    2    1    2    0    0 -0.56263604209E+02 -0.38706535869E+02 -0.85522899447E+02  0.16614417461E+03  0.12500372534E+03 0.  0.
          5    1    3    3  501    0 -0.47074052917E+01  0.12435307350E+02  0.42318133255E+02  0.44606175981E+02  0.47000000000E+01 0. -1.
         -5    1    3    3    0  501  0.60971009500E+02  0.26271228520E+02 -0.77409350651E+02  0.10208789848E+03  0.47000000000E+01 0. -1.
          5    1    4    4  502    0 -0.27402481295E+02 -0.11040852095E+02 -0.11333473122E+03  0.11721624331E+03  0.47000000000E+01 0. -1.
         -5    1    4    4    0  502 -0.28861122914E+02 -0.27665683775E+02  0.27811831772E+02  0.48927931298E+02  0.47000000000E+01 0. -1.
<mgrwt>
<rscale>  0 0.28865205E+03</rscale>
<asrwt>0</asrwt>
<pdfrwt beam="1">  1       21 0.14786472E-01 0.28865205E+03</pdfrwt>
<pdfrwt beam="2">  1       21 0.33342490E-01 0.28865205E+03</pdfrwt>
<totfact> 0.34142951E+05</totfact>
</mgrwt>
</event>
<event>
 8    1  0.9529436E-006  0.2926083E+03  0.7546771E-02  0.1088995E+00
         21   -1    0    0  504  503  0.00000000000E+00  0.00000000000E+00  0.35080673833E+02  0.35080673833E+02  0.00000000000E+00 0. -1.
         21   -1    0    0  503  504 -0.00000000000E+00 -0.00000000000E+00 -0.61016246155E+03  0.61016246155E+03  0.00000000000E+00 0. -1.
         25    2    1    2    0    0  0.50749798641E+02  0.54099244121E+02 -0.32424626256E+03  0.35533556015E+03  0.12500180496E+03 0.  0.
         25    2    1    2    0    0 -0.50749798641E+02 -0.54099244121E+02 -0.25083552515E+03  0.28990757523E+03  0.12500268486E+03 0.  0.
          5    1    3    3  501    0  0.36445771866E+02  0.31447702967E+02 -0.24243921636E+02  0.54102772989E+02  0.47000000000E+01 0.  1.
         -5    1    3    3    0  501  0.14304026775E+02  0.22651541154E+02 -0.30000234093E+03  0.30123278716E+03  0.47000000000E+01 0.  1.
          5    1    4    4  502    0 -0.16556131548E+02  0.19548077101E+02  0.17862827493E+00  0.26045243678E+02  0.47000000000E+01 0.  1.
         -5    1    4    4    0  502 -0.34193667093E+02 -0.73647321222E+02 -0.25101415343E+03  0.26386233155E+03  0.47000000000E+01 0.  1.
<mgrwt>
<rscale>  0 0.29260834E+03</rscale>
<asrwt>0</asrwt>
<pdfrwt beam="1">  1       21 0.53970272E-02 0.29260834E+03</pdfrwt>
<pdfrwt beam="2">  1       21 0.93871140E-01 0.29260834E+03</pdfrwt>
<totfact> 0.21860656E+05</totfact>
</mgrwt>
</event>
<event>
 8    1  0.9529436E-006  0.3249449E+03  0.7546771E-02  0.1073396E+00
         21   -1    0    0  504  503  0.00000000000E+00  0.00000000000E+00  0.32216448728E+03  0.32216448728E+03  0.00000000000E+00 0.  1.
         21   -1    0    0  503  504 -0.00000000000E+00 -0.00000000000E+00 -0.81937305951E+02  0.81937305951E+02  0.00000000000E+00 0.  1.
         25    2    1    2    0    0 -0.20568923674E+02 -0.88601719277E+02  0.57948943089E+02  0.16509605022E+03  0.12500112204E+03 0.  0.
         25    2    1    2    0    0  0.20568923674E+02  0.88601719277E+02  0.18227823824E+03  0.23900574301E+03  0.12500017511E+03 0.  0.
          5    1    3    3  501    0  0.21270763647E+02 -0.10642677407E+03  0.44928562295E+02  0.11755751501E+03  0.47000000000E+01 0.  1.
         -5    1    3    3    0  501 -0.41839687320E+02  0.17825054795E+02  0.13020380794E+02  0.47538535206E+02  0.47000000000E+01 0.  1.
          5    1    4    4  502    0  0.26084174999E+02 -0.19738255878E+02  0.92134812798E+02  0.97882054841E+02  0.47000000000E+01 0.  1.
         -5    1    4    4    0  502 -0.55152513253E+01  0.10833997515E+03  0.90143425440E+02  0.14112368817E+03  0.47000000000E+01 0.  1.
<mgrwt>
<rscale>  0 0.32494486E+03</rscale>
<asrwt>0</asrwt>
<pdfrwt beam="1">  1       21 0.49563767E-01 0.32494486E+03</pdfrwt>
<pdfrwt beam="2">  1       21 0.12605740E-01 0.32494486E+03</pdfrwt>
<totfact> 0.20140706E+05</totfact>
</mgrwt>
</event>
<event>
 8    1  0.9529436E-006  0.3406927E+03  0.7546771E-02  0.1066501E+00
         21   -1    0    0  504  503  0.00000000000E+00  0.00000000000E+00  0.73645349514E+03  0.73645349514E+03  0.00000000000E+00 0.  1.
         21   -1    0    0  503  504 -0.00000000000E+00 -0.00000000000E+00 -0.39402182860E+02  0.39402182860E+02  0.00000000000E+00 0.  1.
         25    2    1    2    0    0 -0.90501031611E+02  0.52991882596E+02  0.45992586902E+03  0.48801648056E+03  0.12501881443E+03 0.  0.
         25    2    1    2    0    0  0.90501031611E+02 -0.52991882596E+02  0.23712544326E+03  0.28783919744E+03  0.12499740556E+03 0.  0.
          5    1    3    3  501    0 -0.97898138209E+02  0.37733352774E+02  0.45848654645E+03  0.47036140855E+03  0.47000000000E+01 0. -1.
         -5    1    3    3    0  501  0.73971065975E+01  0.15258529822E+02  0.14393225703E+01  0.17655072013E+02  0.47000000000E+01 0. -1.
          5    1    4    4  502    0  0.17505214436E+02 -0.44340365363E+01 -0.13006997763E+02  0.22745663395E+02  0.47000000000E+01 0. -1.
         -5    1    4    4    0  502  0.72995817175E+02 -0.48557846060E+02  0.25013244102E+03  0.26509353404E+03  0.47000000000E+01 0. -1.
<mgrwt>
<rscale>  0 0.34069268E+03</rscale>
<asrwt>0</asrwt>
<pdfrwt beam="1">  1       21 0.11330053E+00 0.34069268E+03</pdfrwt>
<pdfrwt beam="2">  1       21 0.60618748E-02 0.34069268E+03</pdfrwt>
<totfact> 0.11203499E+05</totfact>
</mgrwt>
</event>
<event>
 8    1  0.9529436E-006  0.4811060E+03  0.7546771E-02  0.1018832E+00
         21   -1    0    0  504  503  0.00000000000E+00  0.00000000000E+00  0.44343153084E+03  0.44343153084E+03  0.00000000000E+00 0. -1.
         21   -1    0    0  503  504 -0.00000000000E+00 -0.00000000000E+00 -0.13049533338E+03  0.13049533338E+03  0.00000000000E+00 0. -1.
         25    2    1    2    0    0  0.16395432496E+03 -0.12293719083E+03  0.17518767676E+03  0.29717055304E+03  0.12500016778E+03 0.  0.
         25    2    1    2    0    0 -0.16395432496E+03  0.12293719083E+03  0.13774852070E+03  0.27675631118E+03  0.12499930905E+03 0.  0.
          5    1    3    3  501    0  0.46995979703E+02 -0.88207404008E+02  0.13619704196E+03  0.16899968186E+03  0.47000000000E+01 0. -1.
         -5    1    3    3    0  501  0.11695834525E+03 -0.34729786818E+02  0.38990634797E+02  0.12817087118E+03  0.47000000000E+01 0. -1.
          5    1    4    4  502    0  0.58998037047E+01  0.47410232510E+02  0.49600871102E+01  0.48262099981E+02  0.47000000000E+01 0. -1.
         -5    1    4    4    0  502 -0.16985412866E+03  0.75526958316E+02  0.13278843359E+03  0.22849421120E+03  0.47000000000E+01 0. -1.
<mgrwt>
<rscale>  0 0.48110600E+03</rscale>
<asrwt>0</asrwt>
<pdfrwt beam="1">  1       21 0.68220235E-01 0.48110600E+03</pdfrwt>
<pdfrwt beam="2">  1       21 0.20076205E-01 0.48110600E+03</pdfrwt>
<totfact> 0.40913527E+04</totfact>
</mgrwt>
</event>
<event>
 8    1  0.9529436E-006  0.3454866E+03  0.7546771E-02  0.1064483E+00
         21   -1    0    0  504  503  0.00000000000E+00  0.00000000000E+00  0.12866473474E+03  0.12866473474E+03  0.00000000000E+00 0.  1.
         21   -1    0    0  503  504 -0.00000000000E+00 -0.00000000000E+00 -0.23192250862E+03  0.23192250862E+03  0.00000000000E+00 0.  1.
         25    2    1    2    0    0  0.41118823628E+02  0.63318058772E+02  0.44714081859E+02  0.15270795338E+03  0.12498174141E+03 0.  0.
         25    2    1    2    0    0 -0.41118823628E+02 -0.63318058772E+02 -0.14797185574E+03  0.20787928998E+03  0.12497277659E+03 0.  0.
          5    1    3    3  501    0  0.87875683277E+01  0.44653740150E+02 -0.39516629132E+02  0.60455205272E+02  0.47000000000E+01 0. -1.
         -5    1    3    3    0  501  0.32331255301E+02  0.18664318622E+02  0.84230710991E+02  0.92252748105E+02  0.47000000000E+01 0. -1.
          5    1    4    4  502    0 -0.57691282175E+02 -0.93544667599E+02 -0.10032625801E+03  0.14888363550E+03  0.47000000000E+01 0. -1.
         -5    1    4    4    0  502  0.16572458546E+02  0.30226608827E+02 -0.47645597734E+02  0.58995654474E+02  0.47000000000E+01 0. -1.
<mgrwt>
<rscale>  0 0.34548660E+03</rscale>
<asrwt>0</asrwt>
<pdfrwt beam="1">  1       21 0.19794575E-01 0.34548660E+03</pdfrwt>
<pdfrwt beam="2">  1       21 0.35680386E-01 0.34548660E+03</pdfrwt>
<totfact> 0.17119364E+05</totfact>
</mgrwt>
</event>
<event>
 8    1  0.9529436E-006  0.4059485E+03  0.7546771E-02  0.1041739E+00
         21   -1    0    0  504  503  0.00000000000E+00  0.00000000000E+00  0.31465975697E+03  0.31465975697E+03  0.00000000000E+00 0. -1.
         21   -1    0    0  503  504 -0.00000000000E+00 -0.00000000000E+00 -0.13093044920E+03  0.13093044920E+03  0.00000000000E+00 0. -1.
         25    2    1    2    0    0  0.93055462513E+01  0.13393936627E+03  0.18721650975E+03  0.26211408214E+03  0.12500969366E+03 0.  0.
         25    2    1    2    0    0 -0.93055462513E+01 -0.13393936627E+03 -0.34872019766E+01  0.18347612402E+03  0.12499992192E+03 0.  0.
          5    1    3    3  501    0  0.26226064738E+02  0.77447659260E+02  0.18567402601E+03  0.20293565564E+03  0.47000000000E+01 0.  1.
         -5    1    3    3    0  501 -0.16920518487E+02  0.56491707014E+02  0.15424837358E+01  0.59178426502E+02  0.47000000000E+01 0.  1.
          5    1    4    4  502    0  0.17925326842E+02 -0.33350663838E+01  0.39062279790E+02  0.43363483630E+02  0.47000000000E+01 0.  1.
         -5    1    4    4    0  502 -0.27230873093E+02 -0.13060429989E+03 -0.42549481766E+02  0.14011264039E+03  0.47000000000E+01 0.  1.
<mgrwt>
<rscale>  0 0.40594849E+03</rscale>
<asrwt>0</asrwt>
<pdfrwt beam="1">  1       21 0.48409193E-01 0.40594849E+03</pdfrwt>
<pdfrwt beam="2">  1       21 0.20143146E-01 0.40594849E+03</pdfrwt>
<totfact> 0.87140766E+04</totfact>
</mgrwt>
</event>
<event>
 8    1  0.9529436E-006  0.3930036E+03  0.7546771E-02  0.1046230E+00
         21   -1    0    0  504  503  0.00000000000E+00  0.00000000000E+00  0.50474222555E+03  0.50474222555E+03  0.00000000000E+00 0. -1.
         21   -1    0    0  503  504 -0.00000000000E+00 -0.00000000000E+00 -0.76500367142E+02  0.76500367142E+02  0.00000000000E+00 0. -1.
         25    2    1    2    0    0  0.84447136088E+02 -0.12301022889E+03  0.25396247621E+03  0.31997366189E+03  0.12499347894E+03 0.  0.
         25    2    1    2    0    0 -0.84447136088E+02  0.12301022889E+03  0.17427938220E+03  0.26126893080E+03  0.12500126374E+03 0.  0.
          5    1    3    3  501    0 -0.29639517884E+02 -0.51205591090E+01  0.36498825473E+02  0.47528679835E+02  0.47000000000E+01 0.  1.
         -5    1    3    3    0  501  0.11408665397E+03 -0.11788966979E+03  0.21746365073E+03  0.27244498205E+03  0.47000000000E+01 0.  1.
          5    1    4    4  502    0  0.20677959263E+02  0.68359635155E+02  0.93687005225E+02  0.11789810289E+03  0.47000000000E+01 0.  1.
         -5    1    4    4    0  502 -0.10512509535E+03  0.54650593740E+02  0.80592376978E+02  0.14337082791E+03  0.47000000000E+01 0.  1.
<mgrwt>
<rscale>  0 0.39300364E+03</rscale>
<asrwt>0</asrwt>
<pdfrwt beam="1">  1       21 0.77652648E-01 0.39300364E+03</pdfrwt>
<pdfrwt beam="2">  1       21 0.11769288E-01 0.39300364E+03</pdfrwt>
<totfact> 0.83917345E+04</totfact>
</mgrwt>
</event>
<event>
 8    1  0.9529436E-006  0.2698225E+03  0.7546771E-02  0.1101381E+00
         21   -1    0    0  504  503  0.00000000000E+00  0.00000000000E+00  0.97748773173E+03  0.97748773173E+03  0.00000000000E+00 0. -1.
         21   -1    0    0  503  504 -0.00000000000E+00 -0.00000000000E+00 -0.18620234889E+02  0.18620234889E+02  0.00000000000E+00 0. -1.
         25    2    1    2    0    0 -0.13303856609E+02  0.33101765319E+02  0.61273622707E+03  0.62637325904E+03  0.12500022486E+03 0.  0.
         25    2    1    2    0    0  0.13303856609E+02 -0.33101765319E+02  0.34613126977E+03  0.36973470757E+03  0.12499671437E+03 0.  0.
          5    1    3    3  501    0 -0.65418778865E+02  0.13668160636E+01  0.24755342605E+03  0.25609817173E+03  0.47000000000E+01 0. -1.
         -5    1    3    3    0  501  0.52114922255E+02  0.31734949255E+02  0.36518280102E+03  0.37027508731E+03  0.47000000000E+01 0. -1.
          5    1    4    4  502    0  0.64943191829E+02 -0.19172018019E+02  0.12566709764E+03  0.14282679675E+03  0.47000000000E+01 0.  1.
         -5    1    4    4    0  502 -0.51639335219E+02 -0.13929747300E+02  0.22046417213E+03  0.22690791083E+03  0.47000000000E+01 0.  1.
<mgrwt>
<rscale>  0 0.26982254E+03</rscale>
<asrwt>0</asrwt>
<pdfrwt beam="1">  1       21 0.15038269E+00 0.26982254E+03</pdfrwt>
<pdfrwt beam="2">  1       21 0.28646523E-02 0.26982254E+03</pdfrwt>
<totfact> 0.19705253E+05</totfact>
</mgrwt>
</event>
<event>
 8    1  0.9529436E-006  0.2520224E+03  0.7546771E-02  0.1112033E+00
         21   -1    0    0  504  503  0.00000000000E+00  0.00000000000E+00  0.40176848672E+03  0.40176848672E+03  0.00000000000E+00 0. -1.
         21   -1    0    0  503  504 -0.00000000000E+00 -0.00000000000E+00 -0.39522309031E+02  0.39522309031E+02  0.00000000000E+00 0. -1.
         25    2    1    2    0    0  0.87672983757E+01 -0.22059601073E+01  0.20411285908E+03  0.23951788151E+03  0.12500009815E+03 0.  0.
         25    2    1    2    0    0 -0.87672983757E+01  0.22059601073E+01  0.15813331861E+03  0.20177291424E+03  0.12499772273E+03 0.  0.
          5    1    3    3  501    0  0.50016732725E+02 -0.94011297945E+01  0.18730705219E+03  0.19415477485E+03  0.47000000000E+01 0.  1.
         -5    1    3    3    0  501 -0.41249434349E+02  0.71951696871E+01  0.16805806891E+02  0.45363106664E+02  0.47000000000E+01 0.  1.
          5    1    4    4  502    0  0.14201854083E+02  0.14931339201E+01  0.17322839255E+03  0.17387952178E+03  0.47000000000E+01 0. -1.
         -5    1    4    4    0  502 -0.22969152459E+02  0.71282618723E+00 -0.15095073944E+02  0.27893392465E+02  0.47000000000E+01 0. -1.
<mgrwt>
<rscale>  0 0.25202237E+03</rscale>
<asrwt>0</asrwt>
<pdfrwt beam="1">  1       21 0.61810534E-01 0.25202237E+03</pdfrwt>
<pdfrwt beam="2">  1       21 0.60803555E-02 0.25202237E+03</pdfrwt>
<totfact> 0.46245841E+05</totfact>
</mgrwt>
</event>
<event>
 8    1  0.9529436E-006  0.3833132E+03  0.7546771E-02  0.1049716E+00
         21   -1    0    0  504  503  0.00000000000E+00  0.00000000000E+00  0.44412966001E+02  0.44412966001E+02  0.00000000000E+00 0.  1.
         21   -1    0    0  503  504 -0.00000000000E+00 -0.00000000000E+00 -0.82706163130E+03  0.82706163130E+03  0.00000000000E+00 0.  1.
         25    2    1    2    0    0 -0.54273314176E+02  0.12958870105E+03 -0.47540867963E+03  0.51124979031E+03  0.12499644534E+03 0.  0.
         25    2    1    2    0    0  0.54273314176E+02 -0.12958870105E+03 -0.30723998566E+03  0.36022480699E+03  0.12500671465E+03 0.  0.
          5    1    3    3  501    0 -0.64696420608E+02  0.14883594906E+03 -0.44339167386E+03  0.47218220320E+03  0.47000000000E+01 0. -1.
         -5    1    3    3    0  501  0.10423106432E+02 -0.19247248010E+02 -0.32017005774E+02  0.39067587107E+02  0.47000000000E+01 0. -1.
          5    1    4    4  502    0  0.11341631194E+02 -0.29275968375E+02  0.24509037335E+01  0.31840412239E+02  0.47000000000E+01 0. -1.
         -5    1    4    4    0  502  0.42931682982E+02 -0.10031273268E+03 -0.30969088940E+03  0.32838439475E+03  0.47000000000E+01 0. -1.
<mgrwt>
<rscale>  0 0.38331324E+03</rscale>
<asrwt>0</asrwt>
<pdfrwt beam="1">  1       21 0.68327645E-02 0.38331324E+03</pdfrwt>
<pdfrwt beam="2">  1       21 0.12724024E+00 0.38331324E+03</pdfrwt>
<totfact> 0.67104603E+04</totfact>
</mgrwt>
</event>
<event>
 8    1  0.9529436E-006  0.3244900E+03  0.7546771E-02  0.1073601E+00
         21   -1    0    0  504  503  0.00000000000E+00  0.00000000000E+00  0.25534972905E+03  0.25534972905E+03  0.00000000000E+00 0. -1.
         21   -1    0    0  503  504 -0.00000000000E+00 -0.00000000000E+00 -0.10308777871E+03  0.10308777871E+03  0.00000000000E+00 0. -1.
         25    2    1    2    0    0  0.18396601502E+02 -0.10141330054E+03  0.85737974341E+02  0.18330004268E+03  0.12499925171E+03 0.  0.
         25    2    1    2    0    0 -0.18396601502E+02  0.10141330054E+03  0.66523976002E+02  0.17513746509E+03  0.12499839927E+03 0.  0.
          5    1    3    3  501    0  0.72032928303E+02 -0.61820621915E+02  0.54075918417E+02  0.10934727709E+03  0.47000000000E+01 0. -1.
         -5    1    3    3    0  501 -0.53636326801E+02 -0.39592678625E+02  0.31662055924E+02  0.73952765592E+02  0.47000000000E+01 0. -1.
          5    1    4    4  502    0  0.14339425308E+02  0.85890279455E+02 -0.12481033142E+02  0.88094411919E+02  0.47000000000E+01 0.  1.
         -5    1    4    4    0  502 -0.32736026810E+02  0.15523021085E+02  0.79005009144E+02  0.87043053168E+02  0.47000000000E+01 0.  1.
<mgrwt>
<rscale>  0 0.32448998E+03</rscale>
<asrwt>0</asrwt>
<pdfrwt beam="1">  1       21 0.39284573E-01 0.32448998E+03</pdfrwt>
<pdfrwt beam="2">  1       21 0.15859658E-01 0.32448998E+03</pdfrwt>
<totfact> 0.21409376E+05</totfact>
</mgrwt>
</event>
<event>
 8    1  0.9529436E-006  0.3406678E+03  0.7546771E-02  0.1066512E+00
         21   -1    0    0  504  503  0.00000000000E+00  0.00000000000E+00  0.19219593155E+03  0.19219593155E+03  0.00000000000E+00 0.  1.
         21   -1    0    0  503  504 -0.00000000000E+00 -0.00000000000E+00 -0.15095861160E+03  0.15095861160E+03  0.00000000000E+00 0.  1.
         25    2    1    2    0    0  0.59336787664E+02 -0.77192157391E+02 -0.42363795276E+02  0.16401060988E+03  0.12500122188E+03 0.  0.
         25    2    1    2    0    0 -0.59336787664E+02  0.77192157391E+02  0.83601115223E+02  0.17914393327E+03  0.12499567524E+03 0.  0.
          5    1    3    3  501    0  0.29738189849E+01 -0.97965548395E+02 -0.23897139823E+02  0.10099136381E+03  0.47000000000E+01 0. -1.
         -5    1    3    3    0  501  0.56362968679E+02  0.20773391004E+02 -0.18466655454E+02  0.63019246075E+02  0.47000000000E+01 0. -1.
          5    1    4    4  502    0 -0.93796445022E+02  0.62640319255E+02  0.85167062428E+02  0.14141110712E+03  0.47000000000E+01 0.  1.
         -5    1    4    4    0  502  0.34459657358E+02  0.14551838136E+02 -0.15659472050E+01  0.37732826147E+02  0.47000000000E+01 0.  1.
<mgrwt>
<rscale>  0 0.34066776E+03</rscale>
<asrwt>0</asrwt>
<pdfrwt beam="1">  1       21 0.29568605E-01 0.34066776E+03</pdfrwt>
<pdfrwt beam="2">  1       21 0.23224402E-01 0.34066776E+03</pdfrwt>
<totfact> 0.18382081E+05</totfact>
</mgrwt>
</event>
<event>
 8    1  0.9529436E-006  0.2588198E+03  0.7546771E-02  0.1107854E+00
         21   -1    0    0  504  503  0.00000000000E+00  0.00000000000E+00  0.32786480898E+03  0.32786480898E+03  0.00000000000E+00 0. -1.
         21   -1    0    0  503  504 -0.00000000000E+00 -0.00000000000E+00 -0.51078735337E+02  0.51078735337E+02  0.00000000000E+00 0. -1.
         25    2    1    2    0    0 -0.32658473700E+02 -0.73118169395E+01  0.13654975943E+03  0.18812167486E+03  0.12499555665E+03 0.  0.
         25    2    1    2    0    0  0.32658473700E+02  0.73118169395E+01  0.14023631421E+03  0.19082186946E+03  0.12500689368E+03 0.  0.
          5    1    3    3  501    0  0.10279489178E+02  0.53563148853E+02  0.59091618076E+02  0.80551773039E+02  0.47000000000E+01 0. -1.
         -5    1    3    3    0  501 -0.42937962878E+02 -0.60874965792E+02  0.77458141353E+02  0.10756990182E+03  0.47000000000E+01 0. -1.
          5    1    4    4  502    0  0.75915164030E+02 -0.63357552124E+01  0.11686375865E+03  0.13957966188E+03  0.47000000000E+01 0. -1.
         -5    1    4    4    0  502 -0.43256690331E+02  0.13647572152E+02  0.23372555562E+02  0.51242207578E+02  0.47000000000E+01 0. -1.
<mgrwt>
<rscale>  0 0.25881978E+03</rscale>
<asrwt>0</asrwt>
<pdfrwt beam="1">  1       21 0.50440739E-01 0.25881978E+03</pdfrwt>
<pdfrwt beam="2">  1       21 0.78582672E-02 0.25881978E+03</pdfrwt>
<totfact> 0.45673493E+05</totfact>
</mgrwt>
</event>
<event>
 8    1  0.9529436E-006  0.3144668E+03  0.7546771E-02  0.1078224E+00
         21   -1    0    0  504  503  0.00000000000E+00  0.00000000000E+00  0.17536730246E+03  0.17536730246E+03  0.00000000000E+00 0. -1.
         21   -1    0    0  503  504 -0.00000000000E+00 -0.00000000000E+00 -0.14097462612E+03  0.14097462612E+03  0.00000000000E+00 0. -1.
         25    2    1    2    0    0  0.92709263849E+02  0.18412375984E+02  0.43506094716E+01  0.15677084974E+03  0.12499659329E+03 0.  0.
         25    2    1    2    0    0 -0.92709263849E+02 -0.18412375984E+02  0.30042066872E+02  0.15957107883E+03  0.12500552078E+03 0.  0.
          5    1    3    3  501    0  0.91858855728E+02 -0.28860943171E+02 -0.26676327826E+02  0.10002359663E+03  0.47000000000E+01 0. -1.
         -5    1    3    3    0  501  0.85040812034E+00  0.47273319155E+02  0.31026937298E+02  0.56747253114E+02  0.47000000000E+01 0. -1.
          5    1    4    4  502    0 -0.13394814389E+02 -0.51609639518E+02 -0.23192066952E+02  0.58334705907E+02  0.47000000000E+01 0.  1.
         -5    1    4    4    0  502 -0.79314449460E+02  0.33197263534E+02  0.53234133824E+02  0.10123637293E+03  0.47000000000E+01 0.  1.
<mgrwt>
<rscale>  0 0.31446679E+03</rscale>
<asrwt>0</asrwt>
<pdfrwt beam="1">  1       21 0.26979585E-01 0.31446679E+03</pdfrwt>
<pdfrwt beam="2">  1       21 0.21688404E-01 0.31446679E+03</pdfrwt>
<totfact> 0.25203671E+05</totfact>
</mgrwt>
</event>
<event>
 8    1  0.9529436E-006  0.4025668E+03  0.7546771E-02  0.1042894E+00
         21   -1    0    0  504  503  0.00000000000E+00  0.00000000000E+00  0.57529440056E+02  0.57529440056E+02  0.00000000000E+00 0.  1.
         21   -1    0    0  503  504 -0.00000000000E+00 -0.00000000000E+00 -0.70424829864E+03  0.70424829864E+03  0.00000000000E+00 0.  1.
         25    2    1    2    0    0 -0.17652574737E+02  0.14891699827E+03 -0.41611157621E+03  0.45963160208E+03  0.12499792001E+03 0.  0.
         25    2    1    2    0    0  0.17652574737E+02 -0.14891699827E+03 -0.23060728238E+03  0.30214613662E+03  0.12499873368E+03 0.  0.
          5    1    3    3  501    0 -0.22071914979E+02  0.28231057738E+02 -0.12388155303E+02  0.38206261838E+02  0.47000000000E+01 0.  1.
         -5    1    3    3    0  501  0.44193402413E+01  0.12068594053E+03 -0.40372342090E+03  0.42142534024E+03  0.47000000000E+01 0.  1.
          5    1    4    4  502    0 -0.22173879363E+02 -0.10879593462E+03 -0.21701259269E+03  0.24381302611E+03  0.47000000000E+01 0.  1.
         -5    1    4    4    0  502  0.39826454100E+02 -0.40121063641E+02 -0.13594689692E+02  0.58333110510E+02  0.47000000000E+01 0.  1.
<mgrwt>
<rscale>  0 0.40256682E+03</rscale>
<asrwt>0</asrwt>
<pdfrwt beam="1">  1       21 0.88506825E-02 0.40256682E+03</pdfrwt>
<pdfrwt beam="2">  1       21 0.10834590E+00 0.40256682E+03</pdfrwt>
<totfact> 0.63358461E+04</totfact>
</mgrwt>
</event>
<event>
 8    1  0.9529436E-006  0.2735267E+03  0.7546771E-02  0.1099278E+00
         21   -1    0    0  504  503  0.00000000000E+00  0.00000000000E+00  0.14898984214E+04  0.14898984214E+04  0.00000000000E+00 0.  1.
         21   -1    0    0  503  504 -0.00000000000E+00 -0.00000000000E+00 -0.12554020779E+02  0.12554020779E+02  0.00000000000E+00 0.  1.
         25    2    1    2    0    0  0.75533580415E+01 -0.26237834981E+02  0.47329900809E+03  0.49028747667E+03  0.12499752605E+03 0.  0.
         25    2    1    2    0    0 -0.75533580415E+01  0.26237834981E+02  0.10040453925E+04  0.10121649655E+04  0.12500115973E+03 0.  0.
          5    1    3    3  501    0 -0.41813058922E+02 -0.20967071076E+02  0.39273009765E+03  0.39553377803E+03  0.47000000000E+01 0.  1.
         -5    1    3    3    0  501  0.49366416963E+02 -0.52707639057E+01  0.80568910440E+02  0.94753698637E+02  0.47000000000E+01 0.  1.
          5    1    4    4  502    0  0.10810722636E+02 -0.42889943207E+02  0.61246385268E+03  0.61407693312E+03  0.47000000000E+01 0. -1.
         -5    1    4    4    0  502 -0.18364080678E+02  0.69127778188E+02  0.39158153981E+03  0.39808803235E+03  0.47000000000E+01 0. -1.
<mgrwt>
<rscale>  0 0.27352671E+03</rscale>
<asrwt>0</asrwt>
<pdfrwt beam="1">  1       21 0.22921500E+00 0.27352671E+03</pdfrwt>
<pdfrwt beam="2">  1       21 0.19313890E-02 0.27352671E+03</pdfrwt>
<totfact> 0.11017444E+05</totfact>
</mgrwt>
</event>
<event>
 8    1  0.9529436E-006  0.2981056E+03  0.7546771E-02  0.1086191E+00
         21   -1    0    0  504  503  0.00000000000E+00  0.00000000000E+00  0.73330326273E+02  0.73330326273E+02  0.00000000000E+00 0.  1.
         21   -1    0    0  503  504 -0.00000000000E+00 -0.00000000000E+00 -0.30296786020E+03  0.30296786020E+03  0.00000000000E+00 0.  1.
         25    2    1    2    0    0 -0.76989385592E+02 -0.24132456265E+02 -0.12630518926E+03  0.19516070010E+03  0.12499982836E+03 0.  0.
         25    2    1    2    0    0  0.76989385592E+02  0.24132456265E+02 -0.10333234467E+03  0.18113748638E+03  0.12499389815E+03 0.  0.
          5    1    3    3  501    0 -0.32275948153E+02 -0.21765310349E+01 -0.13961131704E+03  0.14338718200E+03  0.47000000000E+01 0.  1.
         -5    1    3    3    0  501 -0.44713437440E+02 -0.21955925230E+02  0.13306127778E+02  0.51773518104E+02  0.47000000000E+01 0.  1.
          5    1    4    4  502    0 -0.17377532250E+01 -0.38753695597E+02 -0.59434459718E+02  0.71129555817E+02  0.47000000000E+01 0.  1.
         -5    1    4    4    0  502  0.78727138817E+02  0.62886151861E+02 -0.43897884955E+02  0.11000793056E+03  0.47000000000E+01 0.  1.
<mgrwt>
<rscale>  0 0.29810557E+03</rscale>
<asrwt>0</asrwt>
<pdfrwt beam="1">  1       21 0.11281589E-01 0.29810557E+03</pdfrwt>
<pdfrwt beam="2">  1       21 0.46610440E-01 0.29810557E+03</pdfrwt>
<totfact> 0.28154830E+05</totfact>
</mgrwt>
</event>
<event>
 8    1  0.9529436E-006  0.3054514E+03  0.7546771E-02  0.1082547E+00
         21   -1    0    0  504  503  0.00000000000E+00  0.00000000000E+00  0.23789027428E+02  0.23789027428E+02  0.00000000000E+00 0.  1.
         21   -1    0    0  503  504 -0.00000000000E+00 -0.00000000000E+00 -0.98050001266E+03  0.98050001266E+03  0.00000000000E+00 0.  1.
         25    2    1    2    0    0  0.75049686186E+02  0.32760627526E+02 -0.58203515910E+03  0.60091232620E+03  0.12499993293E+03 0.  0.
         25    2    1    2    0    0 -0.75049686186E+02 -0.32760627526E+02 -0.37467582613E+03  0.40337671389E+03  0.12500033804E+03 0.  0.
          5    1    3    3  501    0  0.32204181441E+02  0.63634515044E+02 -0.48587837689E+03  0.49110726724E+03  0.47000000000E+01 0. -1.
         -5    1    3    3    0  501  0.42845504745E+02 -0.30873887518E+02 -0.96156782209E+02  0.10980505896E+03  0.47000000000E+01 0. -1.
          5    1    4    4  502    0  0.77181618526E+01  0.31249913151E+02 -0.17397712856E+03  0.17699225507E+03  0.47000000000E+01 0.  1.
         -5    1    4    4    0  502 -0.82767848039E+02 -0.64010540676E+02 -0.20069869757E+03  0.22638445881E+03  0.47000000000E+01 0.  1.
<mgrwt>
<rscale>  0 0.30545141E+03</rscale>
<asrwt>0</asrwt>
<pdfrwt beam="1">  1       21 0.36598500E-02 0.30545141E+03</pdfrwt>
<pdfrwt beam="2">  1       21 0.15084617E+00 0.30545141E+03</pdfrwt>
<totfact> 0.12822133E+05</totfact>
</mgrwt>
</event>
<event>
 8    1  0.9529436E-006  0.2825840E+03  0.7546771E-02  0.1094286E+00
         21   -1    0    0  504  503  0.00000000000E+00  0.00000000000E+00  0.48605828467E+03  0.48605828467E+03  0.00000000000E+00 0. -1.
         21   -1    0    0  503  504 -0.00000000000E+00 -0.00000000000E+00 -0.41072094177E+02  0.41072094177E+02  0.00000000000E+00 0. -1.
         25    2    1    2    0    0 -0.39935020093E+02 -0.51878771786E+01  0.31963654749E+03  0.34558475459E+03  0.12505830728E+03 0.  0.
         25    2    1    2    0    0  0.39935020093E+02  0.51878771786E+01  0.12534964300E+03  0.18154562425E+03  0.12499824312E+03 0.  0.
          5    1    3    3  501    0  0.28255804302E+02 -0.37401198381E+01  0.13462162305E+02  0.31870029606E+02  0.47000000000E+01 0. -1.
         -5    1    3    3    0  501 -0.68190824395E+02 -0.14477573405E+01  0.30617438518E+03  0.31371472499E+03  0.47000000000E+01 0. -1.
          5    1    4    4  502    0  0.75149373137E+02  0.36394786100E+02  0.86835681493E+02  0.12055925646E+03  0.47000000000E+01 0.  1.
         -5    1    4    4    0  502 -0.35214353044E+02 -0.31206908922E+02  0.38513961509E+02  0.60986367787E+02  0.47000000000E+01 0.  1.
<mgrwt>
<rscale>  0 0.28258402E+03</rscale>
<asrwt>0</asrwt>
<pdfrwt beam="1">  1       21 0.74778194E-01 0.28258402E+03</pdfrwt>
<pdfrwt beam="2">  1       21 0.63187840E-02 0.28258402E+03</pdfrwt>
<totfact> 0.28211368E+05</totfact>
</mgrwt>
</event>
<event>
 8    1  0.9529436E-006  0.3689647E+03  0.7546771E-02  0.1055090E+00
         21   -1    0    0  504  503  0.00000000000E+00  0.00000000000E+00  0.38951491998E+02  0.38951491998E+02  0.00000000000E+00 0. -1.
         21   -1    0    0  503  504 -0.00000000000E+00 -0.00000000000E+00 -0.87374655887E+03  0.87374655887E+03  0.00000000000E+00 0. -1.
         25    2    1    2    0    0 -0.59254576144E+02 -0.11635580300E+03 -0.50857744921E+03  0.53974712354E+03  0.12500463125E+03 0.  0.
         25    2    1    2    0    0  0.59254576144E+02  0.11635580300E+03 -0.32621761766E+03  0.37295092733E+03  0.12499872974E+03 0.  0.
          5    1    3    3  501    0 -0.30203952820E+02 -0.98675479905E+02 -0.48988299604E+03  0.50065613839E+03  0.47000000000E+01 0. -1.
         -5    1    3    3    0  501 -0.29050623324E+02 -0.17680323097E+02 -0.18694453173E+02  0.39090985147E+02  0.47000000000E+01 0. -1.
          5    1    4    4  502    0 -0.31984034903E+02  0.58947793710E+02 -0.82556127045E+02  0.10646795285E+03  0.47000000000E+01 0. -1.
         -5    1    4    4    0  502  0.91238611047E+02  0.57408009292E+02 -0.24366149061E+03  0.26648297447E+03  0.47000000000E+01 0. -1.
<mgrwt>
<rscale>  0 0.36896467E+03</rscale>
<asrwt>0</asrwt>
<pdfrwt beam="1">  1       21 0.59925376E-02 0.36896467E+03</pdfrwt>
<pdfrwt beam="2">  1       21 0.13442254E+00 0.36896467E+03</pdfrwt>
<totfact> 0.73478227E+04</totfact>
</mgrwt>
</event>
<event>
 8    1  0.9529436E-006  0.2926688E+03  0.7546771E-02  0.1088964E+00
         21   -1    0    0  504  503  0.00000000000E+00  0.00000000000E+00  0.70073727833E+02  0.70073727833E+02  0.00000000000E+00 0.  1.
         21   -1    0    0  503  504 -0.00000000000E+00 -0.00000000000E+00 -0.30558886974E+03  0.30558886974E+03  0.00000000000E+00 0.  1.
         25    2    1    2    0    0  0.43021112104E+02 -0.44794092450E+02 -0.17420896307E+03  0.22322584697E+03  0.12499475643E+03 0.  0.
         25    2    1    2    0    0 -0.43021112104E+02  0.44794092450E+02 -0.61306178838E+02  0.15243675060E+03  0.12498475333E+03 0.  0.
          5    1    3    3  501    0  0.11363132710E+02 -0.82291561201E+02 -0.73170079216E+02  0.11080149964E+03  0.47000000000E+01 0. -1.
         -5    1    3    3    0  501  0.31657979395E+02  0.37497468751E+02 -0.10103888385E+03  0.11242434733E+03  0.47000000000E+01 0. -1.
          5    1    4    4  502    0 -0.20657127788E+02  0.85590728260E+02 -0.58040486493E+02  0.10556172490E+03  0.47000000000E+01 0. -1.
         -5    1    4    4    0  502 -0.22363984317E+02 -0.40796635810E+02 -0.32656923450E+01  0.46875025700E+02  0.47000000000E+01 0. -1.
<mgrwt>
<rscale>  0 0.29266876E+03</rscale>
<asrwt>0</asrwt>
<pdfrwt beam="1">  1       21 0.10780573E-01 0.29266876E+03</pdfrwt>
<pdfrwt beam="2">  1       21 0.47013672E-01 0.29266876E+03</pdfrwt>
<totfact> 0.30036208E+05</totfact>
</mgrwt>
</event>
<event>
 8    1  0.9529436E-006  0.2958946E+03  0.7546771E-02  0.1087311E+00
         21   -1    0    0  504  503  0.00000000000E+00  0.00000000000E+00  0.43488790036E+03  0.43488790036E+03  0.00000000000E+00 0. -1.
         21   -1    0    0  503  504 -0.00000000000E+00 -0.00000000000E+00 -0.50331138966E+02  0.50331138966E+02  0.00000000000E+00 0. -1.
         25    2    1    2    0    0 -0.21092142198E+02  0.76113182227E+02  0.19938865801E+03  0.24823033986E+03  0.12499747883E+03 0.  0.
         25    2    1    2    0    0  0.21092142198E+02 -0.76113182227E+02  0.18516810339E+03  0.23698869947E+03  0.12505327741E+03 0.  0.
          5    1    3    3  501    0 -0.49381325699E+02 -0.85134981497E+01  0.11409565052E+03  0.12470325756E+03  0.47000000000E+01 0. -1.
         -5    1    3    3    0  501  0.28289183501E+02  0.84626680377E+02  0.85293007485E+02  0.12352708230E+03  0.47000000000E+01 0. -1.
          5    1    4    4  502    0 -0.21063991298E+02  0.25994530524E+02  0.23610978651E+02  0.41218632431E+02  0.47000000000E+01 0.  1.
         -5    1    4    4    0  502  0.42156133496E+02 -0.10210771275E+03  0.16155712473E+03  0.19577006703E+03  0.47000000000E+01 0.  1.
<mgrwt>
<rscale>  0 0.29589460E+03</rscale>
<asrwt>0</asrwt>
<pdfrwt beam="1">  1       21 0.66905828E-01 0.29589460E+03</pdfrwt>
<pdfrwt beam="2">  1       21 0.77432524E-02 0.29589460E+03</pdfrwt>
<totfact> 0.25301852E+05</totfact>
</mgrwt>
</event>
<event>
 8    1  0.9529436E-006  0.2978862E+03  0.7546771E-02  0.1086302E+00
         21   -1    0    0  504  503  0.00000000000E+00  0.00000000000E+00  0.21075999172E+02  0.21075999172E+02  0.00000000000E+00 0.  1.
         21   -1    0    0  503  504 -0.00000000000E+00 -0.00000000000E+00 -0.10525735698E+04  0.10525735698E+04  0.00000000000E+00 0.  1.
         25    2    1    2    0    0  0.71654918706E+02 -0.35217642797E+02 -0.46731583320E+03  0.49029052508E+03  0.12500400506E+03 0.  0.
         25    2    1    2    0    0 -0.71654918706E+02  0.35217642797E+02 -0.56418173744E+03  0.58335904390E+03  0.12502812287E+03 0.  0.
          5    1    3    3  501    0  0.69695438964E+02 -0.38543052504E+02 -0.12739305326E+03  0.15031334314E+03  0.47000000000E+01 0.  1.
         -5    1    3    3    0  501  0.19594797416E+01  0.33254097073E+01 -0.33992277995E+03  0.33997718194E+03  0.47000000000E+01 0.  1.
          5    1    4    4  502    0  0.36000157811E+02  0.10240838663E+02 -0.14643099440E+03  0.15121181256E+03  0.47000000000E+01 0. -1.
         -5    1    4    4    0  502 -0.10765507652E+03  0.24976804134E+02 -0.41775074304E+03  0.43214723134E+03  0.47000000000E+01 0. -1.
<mgrwt>
<rscale>  0 0.29788615E+03</rscale>
<asrwt>0</asrwt>
<pdfrwt beam="1">  1       21 0.32424606E-02 0.29788615E+03</pdfrwt>
<pdfrwt beam="2">  1       21 0.16193443E+00 0.29788615E+03</pdfrwt>
<totfact> 0.12990614E+05</totfact>
</mgrwt>
</event>
<event>
 8    1  0.9529436E-006  0.2735000E+03  0.7546771E-02  0.1099293E+00
         21   -1    0    0  504  503  0.00000000000E+00  0.00000000000E+00  0.57489429780E+03  0.57489429780E+03  0.00000000000E+00 0.  1.
         21   -1    0    0  503  504 -0.00000000000E+00 -0.00000000000E+00 -0.32528698266E+02  0.32528698266E+02  0.00000000000E+00 0.  1.
         25    2    1    2    0    0 -0.34665316280E+01  0.51798698133E+02  0.31459166492E+03  0.34246989063E+03  0.12499035316E+03 0.  0.
         25    2    1    2    0    0  0.34665316280E+01 -0.51798698133E+02  0.22777393461E+03  0.26495310543E+03  0.12499624322E+03 0.  0.
          5    1    3    3  501    0  0.24945521329E+02 -0.13437849947E+02  0.11229392798E+02  0.30839003035E+02  0.47000000000E+01 0.  1.
         -5    1    3    3    0  501 -0.28412052957E+02  0.65236548081E+02  0.30336227212E+03  0.31163088760E+03  0.47000000000E+01 0.  1.
          5    1    4    4  502    0 -0.33437204292E+02 -0.37865579684E+02  0.21829425503E+03  0.22411229447E+03  0.47000000000E+01 0. -1.
         -5    1    4    4    0  502  0.36903735920E+02 -0.13933118449E+02  0.94796795838E+01  0.40840810957E+02  0.47000000000E+01 0. -1.
<mgrwt>
<rscale>  0 0.27350000E+03</rscale>
<asrwt>0</asrwt>
<pdfrwt beam="1">  1       21 0.88445269E-01 0.27350000E+03</pdfrwt>
<pdfrwt beam="2">  1       21 0.50044156E-02 0.27350000E+03</pdfrwt>
<totfact> 0.28740311E+05</totfact>
</mgrwt>
</event>
<event>
 8    1  0.9529436E-006  0.3091090E+03  0.7546771E-02  0.1080774E+00
         21   -1    0    0  504  503  0.00000000000E+00  0.00000000000E+00  0.48007759897E+03  0.48007759897E+03  0.00000000000E+00 0.  1.
         21   -1    0    0  503  504 -0.00000000000E+00 -0.00000000000E+00 -0.49756740295E+02  0.49756740295E+02  0.00000000000E+00 0.  1.
         25    2    1    2    0    0  0.75910994144E+02 -0.81925732772E+01  0.13064907843E+03  0.19627501886E+03  0.12500041619E+03 0.  0.
         25    2    1    2    0    0 -0.75910994144E+02  0.81925732772E+01  0.29967178025E+03  0.33355932040E+03  0.12501618719E+03 0.  0.
          5    1    3    3  501    0  0.29767748619E+02  0.47361159931E+02  0.10577643976E+03  0.11974950328E+03  0.47000000000E+01 0.  1.
         -5    1    3    3    0  501  0.46143245525E+02 -0.55553733209E+02  0.24872638668E+02  0.76525515583E+02  0.47000000000E+01 0.  1.
          5    1    4    4  502    0 -0.85315961843E+02 -0.30959088109E+02  0.26521942571E+03  0.28035818564E+03  0.47000000000E+01 0.  1.
         -5    1    4    4    0  502  0.94049676984E+01  0.39151661386E+02  0.34452354543E+02  0.53201134764E+02  0.47000000000E+01 0.  1.
<mgrwt>
<rscale>  0 0.30910902E+03</rscale>
<asrwt>0</asrwt>
<pdfrwt beam="1">  1       21 0.73858089E-01 0.30910902E+03</pdfrwt>
<pdfrwt beam="2">  1       21 0.76548835E-02 0.30910902E+03</pdfrwt>
<totfact> 0.20643304E+05</totfact>
</mgrwt>
</event>
<event>
 8    1  0.9529436E-006  0.2709532E+03  0.7546771E-02  0.1100735E+00
         21   -1    0    0  504  503  0.00000000000E+00  0.00000000000E+00  0.18977920553E+02  0.18977920553E+02  0.00000000000E+00 0. -1.
         21   -1    0    0  503  504 -0.00000000000E+00 -0.00000000000E+00 -0.96711912914E+03  0.96711912914E+03  0.00000000000E+00 0. -1.
         25    2    1    2    0    0 -0.33420706663E+02  0.14173965184E+02 -0.61076540186E+03  0.62448020687E+03  0.12499323080E+03 0.  0.
         25    2    1    2    0    0  0.33420706663E+02 -0.14173965184E+02 -0.33737580673E+03  0.36161684282E+03  0.12500584435E+03 0.  0.
          5    1    3    3  501    0 -0.40002418044E+02 -0.24730178764E+02 -0.54904027989E+03  0.55107086126E+03  0.47000000000E+01 0. -1.
         -5    1    3    3    0  501  0.65817113808E+01  0.38904143949E+02 -0.61725121974E+02  0.73409345616E+02  0.47000000000E+01 0. -1.
          5    1    4    4  502    0  0.72678470449E+02  0.22182798639E+02 -0.21022496738E+03  0.22358636705E+03  0.47000000000E+01 0. -1.
         -5    1    4    4    0  502 -0.39257763785E+02 -0.36356763823E+02 -0.12715083935E+03  0.13803047577E+03  0.47000000000E+01 0. -1.
<mgrwt>
<rscale>  0 0.27095321E+03</rscale>
<asrwt>0</asrwt>
<pdfrwt beam="1">  1       21 0.29196794E-02 0.27095321E+03</pdfrwt>
<pdfrwt beam="2">  1       21 0.14878759E+00 0.27095321E+03</pdfrwt>
<totfact> 0.19634233E+05</totfact>
</mgrwt>
</event>
<event>
 8    1  0.9529436E-006  0.2820119E+03  0.7546771E-02  0.1094595E+00
         21   -1    0    0  504  503  0.00000000000E+00  0.00000000000E+00  0.70743462983E+01  0.70743462983E+01  0.00000000000E+00 0.  1.
         21   -1    0    0  503  504 -0.00000000000E+00 -0.00000000000E+00 -0.28105327102E+04  0.28105327102E+04  0.00000000000E+00 0.  1.
         25    2    1    2    0    0  0.61286918745E+02  0.17252736465E+02 -0.12592419221E+04  0.12670315694E+04  0.12500014493E+03 0.  0.
         25    2    1    2    0    0 -0.61286918745E+02 -0.17252736465E+02 -0.15442164419E+04  0.15505754871E+04  0.12500471449E+03 0.  0.
          5    1    3    3  501    0 -0.11564979484E+01 -0.20204323416E+02 -0.91053933203E+03  0.91077632674E+03  0.47000000000E+01 0. -1.
         -5    1    3    3    0  501  0.62443416694E+02  0.37457059881E+02 -0.34870259004E+03  0.35625524266E+03  0.47000000000E+01 0. -1.
          5    1    4    4  502    0 -0.95215628214E+02  0.10144756817E+02 -0.99332977947E+03  0.99794542573E+03  0.47000000000E+01 0.  1.
         -5    1    4    4    0  502  0.33928709469E+02 -0.27397493282E+02 -0.55088666240E+03  0.55263006141E+03  0.47000000000E+01 0.  1.
<mgrwt>
<rscale>  0 0.28201193E+03</rscale>
<asrwt>0</asrwt>
<pdfrwt beam="1">  1       21 0.10883582E-02 0.28201193E+03</pdfrwt>
<pdfrwt beam="2">  1       21 0.43239073E+00 0.28201193E+03</pdfrwt>
<totfact> 0.16208508E+04</totfact>
</mgrwt>
</event>
<event>
 8    1  0.9529436E-006  0.4241353E+03  0.7546771E-02  0.1035729E+00
         21   -1    0    0  504  503  0.00000000000E+00  0.00000000000E+00  0.45862802171E+03  0.45862802171E+03  0.00000000000E+00 0. -1.
         21   -1    0    0  503  504 -0.00000000000E+00 -0.00000000000E+00 -0.98059193610E+02  0.98059193610E+02  0.00000000000E+00 0. -1.
         25    2    1    2    0    0 -0.15836343707E+03 -0.31537141594E+02  0.10514576004E+03  0.22967948575E+03  0.12499386314E+03 0.  0.
         25    2    1    2    0    0  0.15836343707E+03  0.31537141594E+02  0.25542306806E+03  0.32700772957E+03  0.12497816609E+03 0.  0.
          5    1    3    3  501    0 -0.29241966387E+01  0.94876332946E+00  0.65764673209E+02  0.66004040181E+02  0.47000000000E+01 0. -1.
         -5    1    3    3    0  501 -0.15543924043E+03 -0.32485904923E+02  0.39381086830E+02  0.16367544557E+03  0.47000000000E+01 0. -1.
          5    1    4    4  502    0 -0.15725895141E+02  0.21196449224E+02  0.17648027687E+02  0.32095733656E+02  0.47000000000E+01 0.  1.
         -5    1    4    4    0  502  0.17408933221E+03  0.10340692370E+02  0.23777504037E+03  0.29491199591E+03  0.47000000000E+01 0.  1.
<mgrwt>
<rscale>  0 0.42413533E+03</rscale>
<asrwt>0</asrwt>
<pdfrwt beam="1">  1       21 0.70558156E-01 0.42413533E+03</pdfrwt>
<pdfrwt beam="2">  1       21 0.15086030E-01 0.42413533E+03</pdfrwt>
<totfact> 0.65697694E+04</totfact>
</mgrwt>
</event>
<event>
 8    1  0.9529436E-006  0.3040279E+03  0.7546771E-02  0.1083244E+00
         21   -1    0    0  504  503  0.00000000000E+00  0.00000000000E+00  0.16162827446E+03  0.16162827446E+03  0.00000000000E+00 0. -1.
         21   -1    0    0  503  504 -0.00000000000E+00 -0.00000000000E+00 -0.14297152651E+03  0.14297152651E+03  0.00000000000E+00 0. -1.
         25    2    1    2    0    0  0.19698071882E+02 -0.56072108752E+02  0.72316902265E+02  0.15615638303E+03  0.12499194451E+03 0.  0.
         25    2    1    2    0    0 -0.19698071882E+02  0.56072108752E+02 -0.53660154315E+02  0.14844341794E+03  0.12499576295E+03 0.  0.
          5    1    3    3  501    0 -0.12325296986E+02  0.37112409563E+02  0.15566435007E+02  0.42351479173E+02  0.47000000000E+01 0. -1.
         -5    1    3    3    0  501  0.32023368869E+02 -0.93184518314E+02  0.56750467259E+02  0.11380490385E+03  0.47000000000E+01 0. -1.
          5    1    4    4  502    0  0.42312947835E+02  0.14882189479E+02  0.14526974648E+02  0.47381305497E+02  0.47000000000E+01 0.  1.
         -5    1    4    4    0  502 -0.62011019718E+02  0.41189919272E+02 -0.68187128963E+02  0.10106211245E+03  0.47000000000E+01 0.  1.
<mgrwt>
<rscale>  0 0.30402790E+03</rscale>
<asrwt>0</asrwt>
<pdfrwt beam="1">  1       21 0.24865888E-01 0.30402790E+03</pdfrwt>
<pdfrwt beam="2">  1       21 0.21995620E-01 0.30402790E+03</pdfrwt>
<totfact> 0.28797676E+05</totfact>
</mgrwt>
</event>
<event>
 8    1  0.9529436E-006  0.3713885E+03  0.7546771E-02  0.1054163E+00
         21   -1    0    0  504  503  0.00000000000E+00  0.00000000000E+00  0.29005016756E+02  0.29005016756E+02  0.00000000000E+00 0.  1.
         21   -1    0    0  503  504 -0.00000000000E+00 -0.00000000000E+00 -0.11888409489E+04  0.11888409489E+04  0.00000000000E+00 0.  1.
         25    2    1    2    0    0 -0.28529999128E+02  0.92864483480E+02 -0.89816058036E+03  0.91200824192E+03  0.12501532737E+03 0.  0.
         25    2    1    2    0    0  0.28529999128E+02 -0.92864483480E+02 -0.26167535180E+03  0.30583772375E+03  0.12499980155E+03 0.  0.
          5    1    3    3  501    0  0.29323399724E+02  0.94792955940E+02 -0.51824598502E+03  0.52768035519E+03  0.47000000000E+01 0. -1.
         -5    1    3    3    0  501 -0.57853398852E+02 -0.19284724601E+01 -0.37991459534E+03  0.38432788673E+03  0.47000000000E+01 0. -1.
          5    1    4    4  502    0 -0.28458468863E+02 -0.94335235713E+02 -0.13861540412E+03  0.17013330481E+03  0.47000000000E+01 0.  1.
         -5    1    4    4    0  502  0.56988467991E+02  0.14707522330E+01 -0.12305994768E+03  0.13570441894E+03  0.47000000000E+01 0.  1.
<mgrwt>
<rscale>  0 0.37138848E+03</rscale>
<asrwt>0</asrwt>
<pdfrwt beam="1">  1       21 0.44623113E-02 0.37138848E+03</pdfrwt>
<pdfrwt beam="2">  1       21 0.18289857E+00 0.37138848E+03</pdfrwt>
<totfact> 0.52309562E+04</totfact>
</mgrwt>
</event>
<event>
 8    1  0.9529436E-006  0.4142904E+03  0.7546771E-02  0.1038941E+00
         21   -1    0    0  504  503  0.00000000000E+00  0.00000000000E+00  0.15177073550E+03  0.15177073550E+03  0.00000000000E+00 0. -1.
         21   -1    0    0  503  504 -0.00000000000E+00 -0.00000000000E+00 -0.28272339598E+03  0.28272339598E+03  0.00000000000E+00 0. -1.
         25    2    1    2    0    0 -0.14848954936E+03  0.51774016437E+02 -0.12471397277E+02  0.20127133285E+03  0.12499967452E+03 0.  0.
         25    2    1    2    0    0  0.14848954936E+03 -0.51774016437E+02 -0.11848126320E+03  0.23322279864E+03  0.12500147610E+03 0.  0.
          5    1    3    3  501    0 -0.11005940296E+03  0.67794110975E+02 -0.55912408733E+02  0.14091629115E+03  0.47000000000E+01 0.  1.
         -5    1    3    3    0  501 -0.38430146402E+02 -0.16020094538E+02  0.43441011456E+02  0.60355041694E+02  0.47000000000E+01 0.  1.
          5    1    4    4  502    0  0.16513104948E+03 -0.28320247298E+02 -0.11629334342E+03  0.20400130302E+03  0.47000000000E+01 0. -1.
         -5    1    4    4    0  502 -0.16641500121E+02 -0.23453769139E+02 -0.21879197814E+01  0.29221495617E+02  0.47000000000E+01 0. -1.
<mgrwt>
<rscale>  0 0.41429042E+03</rscale>
<asrwt>0</asrwt>
<pdfrwt beam="1">  1       21 0.23349344E-01 0.41429042E+03</pdfrwt>
<pdfrwt beam="2">  1       21 0.43495907E-01 0.41429042E+03</pdfrwt>
<totfact> 0.82049610E+04</totfact>
</mgrwt>
</event>
<event>
 8    1  0.9529436E-006  0.3831388E+03  0.7546771E-02  0.1049780E+00
         21   -1    0    0  504  503  0.00000000000E+00  0.00000000000E+00  0.34491723460E+03  0.34491723460E+03  0.00000000000E+00 0. -1.
         21   -1    0    0  503  504 -0.00000000000E+00 -0.00000000000E+00 -0.10639897906E+03  0.10639897906E+03  0.00000000000E+00 0. -1.
         25    2    1    2    0    0  0.13775969335E+03  0.12506676243E+02  0.67404188340E+02  0.19825543232E+03  0.12501096662E+03 0.  0.
         25    2    1    2    0    0 -0.13775969335E+03 -0.12506676243E+02  0.17111406719E+03  0.25306078135E+03  0.12500233999E+03 0.  0.
          5    1    3    3  501    0  0.93203620373E+02 -0.50178999611E+02  0.57548618246E+02  0.12057686476E+03  0.47000000000E+01 0. -1.
         -5    1    3    3    0  501  0.44556072976E+02  0.62685675854E+02  0.98555700936E+01  0.77678567560E+02  0.47000000000E+01 0. -1.
          5    1    4    4  502    0 -0.61439144367E+02  0.47951094066E+02  0.34807350792E+02  0.85485189079E+02  0.47000000000E+01 0.  1.
         -5    1    4    4    0  502 -0.76320548982E+02 -0.60457770309E+02  0.13630671640E+03  0.16757559227E+03  0.47000000000E+01 0.  1.
<mgrwt>
<rscale>  0 0.38313883E+03</rscale>
<asrwt>0</asrwt>
<pdfrwt beam="1">  1       21 0.53064189E-01 0.38313883E+03</pdfrwt>
<pdfrwt beam="2">  1       21 0.16369074E-01 0.38313883E+03</pdfrwt>
<totfact> 0.10642908E+05</totfact>
</mgrwt>
</event>
<event>
 8    1  0.9529436E-006  0.3620533E+03  0.7546771E-02  0.1057774E+00
         21   -1    0    0  504  503  0.00000000000E+00  0.00000000000E+00  0.76640662023E+02  0.76640662023E+02  0.00000000000E+00 0.  1.
         21   -1    0    0  503  504 -0.00000000000E+00 -0.00000000000E+00 -0.42758830216E+03  0.42758830216E+03  0.00000000000E+00 0.  1.
         25    2    1    2    0    0  0.19044935760E+02 -0.10396739644E+03 -0.67829444802E+02  0.17719170466E+03  0.12499655002E+03 0.  0.
         25    2    1    2    0    0 -0.19044935760E+02  0.10396739644E+03 -0.28311819533E+03  0.32703725952E+03  0.12500210992E+03 0.  0.
          5    1    3    3  501    0 -0.50131245398E+02 -0.18569127805E+02 -0.20716389497E+02  0.57525760024E+02  0.47000000000E+01 0.  1.
         -5    1    3    3    0  501  0.69176181158E+02 -0.85398268638E+02 -0.47113055305E+02  0.11966594464E+03  0.47000000000E+01 0.  1.
          5    1    4    4  502    0  0.38376151767E+02 -0.41568180378E+01 -0.93724829642E+02  0.10147138440E+03  0.47000000000E+01 0. -1.
         -5    1    4    4    0  502 -0.57421087527E+02  0.10812421448E+03 -0.18939336569E+03  0.22556587512E+03  0.47000000000E+01 0. -1.
<mgrwt>
<rscale>  0 0.36205331E+03</rscale>
<asrwt>0</asrwt>
<pdfrwt beam="1">  1       21 0.11790871E-01 0.36205331E+03</pdfrwt>
<pdfrwt beam="2">  1       21 0.65782814E-01 0.36205331E+03</pdfrwt>
<totfact> 0.12235967E+05</totfact>
</mgrwt>
</event>
<event>
 8    1  0.9529436E-006  0.3130045E+03  0.7546771E-02  0.1078915E+00
         21   -1    0    0  504  503  0.00000000000E+00  0.00000000000E+00  0.39922474110E+03  0.39922474110E+03  0.00000000000E+00 0.  1.
         21   -1    0    0  503  504 -0.00000000000E+00 -0.00000000000E+00 -0.61351299621E+02  0.61351299621E+02  0.00000000000E+00 0.  1.
         25    2    1    2    0    0  0.69041121469E+02 -0.63184680062E+02  0.18424838338E+03  0.24152212193E+03  0.12500595327E+03 0.  0.
         25    2    1    2    0    0 -0.69041121469E+02  0.63184680062E+02  0.15362505810E+03  0.21905391880E+03  0.12499992246E+03 0.  0.
          5    1    3    3  501    0  0.96861782951E+02 -0.14841843387E+02  0.97734711995E+02  0.13847977917E+03  0.47000000000E+01 0.  1.
         -5    1    3    3    0  501 -0.27820661482E+02 -0.48342836675E+02  0.86513671387E+02  0.10304234275E+03  0.47000000000E+01 0.  1.
          5    1    4    4  502    0  0.26885210795E+02 -0.53648938519E+01  0.33900300289E+01  0.28021044754E+02  0.47000000000E+01 0. -1.
         -5    1    4    4    0  502 -0.95926332264E+02  0.68549573913E+02  0.15023502807E+03  0.19103287404E+03  0.47000000000E+01 0. -1.
<mgrwt>
<rscale>  0 0.31300452E+03</rscale>
<asrwt>0</asrwt>
<pdfrwt beam="1">  1       21 0.61419189E-01 0.31300452E+03</pdfrwt>
<pdfrwt beam="2">  1       21 0.94386617E-02 0.31300452E+03</pdfrwt>
<totfact> 0.21444673E+05</totfact>
</mgrwt>
</event>
<event>
 8    1  0.9529436E-006  0.2849972E+03  0.7546771E-02  0.1092990E+00
         21   -1    0    0  504  503  0.00000000000E+00  0.00000000000E+00  0.32528585927E+02  0.32528585927E+02  0.00000000000E+00 0. -1.
         21   -1    0    0  503  504 -0.00000000000E+00 -0.00000000000E+00 -0.62424618446E+03  0.62424618446E+03  0.00000000000E+00 0. -1.
         25    2    1    2    0    0  0.38518051827E+02  0.69958106416E+01 -0.42517497816E+03  0.44489393841E+03  0.12499709075E+03 0.  0.
         25    2    1    2    0    0 -0.38518051827E+02 -0.69958106416E+01 -0.16654262037E+03  0.21188083197E+03  0.12499784348E+03 0.  0.
          5    1    3    3  501    0  0.65312900536E+02 -0.27007114900E+02 -0.35728356250E+03  0.36423727605E+03  0.47000000000E+01 0. -1.
         -5    1    3    3    0  501 -0.26794848709E+02  0.34002925541E+02 -0.67891415666E+02  0.80656662365E+02  0.47000000000E+01 0. -1.
          5    1    4    4  502    0 -0.16102882622E+02 -0.65637002414E+02 -0.79351185024E+02  0.10433704749E+03  0.47000000000E+01 0.  1.
         -5    1    4    4    0  502 -0.22415169205E+02  0.58641191772E+02 -0.87191435343E+02  0.10754378448E+03  0.47000000000E+01 0.  1.
<mgrwt>
<rscale>  0 0.28499716E+03</rscale>
<asrwt>0</asrwt>
<pdfrwt beam="1">  1       21 0.50043979E-02 0.28499716E+03</pdfrwt>
<pdfrwt beam="2">  1       21 0.96037873E-01 0.28499716E+03</pdfrwt>
<totfact> 0.23616094E+05</totfact>
</mgrwt>
</event>
<event>
 8    1  0.9529436E-006  0.3088587E+03  0.7546771E-02  0.1080894E+00
         21   -1    0    0  504  503  0.00000000000E+00  0.00000000000E+00  0.44256762647E+03  0.44256762647E+03  0.00000000000E+00 0. -1.
         21   -1    0    0  503  504 -0.00000000000E+00 -0.00000000000E+00 -0.53886506196E+02  0.53886506196E+02  0.00000000000E+00 0. -1.
         25    2    1    2    0    0  0.89794524161E+02  0.12455818609E+02  0.19789782197E+03  0.25101140573E+03  0.12499989551E+03 0.  0.
         25    2    1    2    0    0 -0.89794524161E+02 -0.12455818609E+02  0.19078329830E+03  0.24544272694E+03  0.12500264522E+03 0.  0.
          5    1    3    3  501    0 -0.12642721113E+02  0.44812932755E+02  0.63874778554E+02  0.79184055684E+02  0.47000000000E+01 0.  1.
         -5    1    3    3    0  501  0.10243724527E+03 -0.32357114146E+02  0.13402304342E+03  0.17182735004E+03  0.47000000000E+01 0.  1.
          5    1    4    4  502    0 -0.22835281090E+02  0.49823798114E+02  0.36445672886E+02  0.65986650112E+02  0.47000000000E+01 0.  1.
         -5    1    4    4    0  502 -0.66959243071E+02 -0.62279616723E+02  0.15433762541E+03  0.17945607683E+03  0.47000000000E+01 0.  1.
<mgrwt>
<rscale>  0 0.30885869E+03</rscale>
<asrwt>0</asrwt>
<pdfrwt beam="1">  1       21 0.68087325E-01 0.30885869E+03</pdfrwt>
<pdfrwt beam="2">  1       21 0.82902320E-02 0.30885869E+03</pdfrwt>
<totfact> 0.21525450E+05</totfact>
</mgrwt>
</event>
<event>
 8    1  0.9529436E-006  0.4069544E+03  0.7546771E-02  0.1041398E+00
         21   -1    0    0  504  503  0.00000000000E+00  0.00000000000E+00  0.28586971068E+03  0.28586971068E+03  0.00000000000E+00 0. -1.
         21   -1    0    0  503  504 -0.00000000000E+00 -0.00000000000E+00 -0.14483157971E+03  0.14483157971E+03  0.00000000000E+00 0. -1.
         25    2    1    2    0    0  0.52311292939E+02  0.98571937205E+02 -0.51648383348E+02  0.17534723617E+03  0.12500479814E+03 0.  0.
         25    2    1    2    0    0 -0.52311292939E+02 -0.98571937205E+02  0.19268651431E+03  0.25535405423E+03  0.12499880814E+03 0.  0.
          5    1    3    3  501    0 -0.12791801765E+02  0.61861369875E+02 -0.73794900814E+02  0.97253466063E+02  0.47000000000E+01 0. -1.
         -5    1    3    3    0  501  0.65103094704E+02  0.36710567330E+02  0.22146517466E+02  0.78093770107E+02  0.47000000000E+01 0. -1.
          5    1    4    4  502    0 -0.47958150700E+02 -0.60020795135E+02  0.21718725787E+02  0.79976703589E+02  0.47000000000E+01 0. -1.
         -5    1    4    4    0  502 -0.43531422391E+01 -0.38551142070E+02  0.17096778853E+03  0.17537735064E+03  0.47000000000E+01 0. -1.
<mgrwt>
<rscale>  0 0.40695436E+03</rscale>
<asrwt>0</asrwt>
<pdfrwt beam="1">  1       21 0.43979955E-01 0.40695436E+03</pdfrwt>
<pdfrwt beam="2">  1       21 0.22281782E-01 0.40695436E+03</pdfrwt>
<totfact> 0.87871078E+04</totfact>
</mgrwt>
</event>
<event>
 8    1  0.9529436E-006  0.6262888E+03  0.7546771E-02  0.9852318E-01
         21   -1    0    0  504  503  0.00000000000E+00  0.00000000000E+00  0.89477484197E+03  0.89477484197E+03  0.00000000000E+00 0.  1.
         21   -1    0    0  503  504 -0.00000000000E+00 -0.00000000000E+00 -0.10959115960E+03  0.10959115960E+03  0.00000000000E+00 0.  1.
         25    2    1    2    0    0 -0.13681500203E+03 -0.84737388467E+02  0.77390312701E+03  0.80028234197E+03  0.12500802812E+03 0.  0.
         25    2    1    2    0    0  0.13681500203E+03  0.84737388467E+02  0.11280555355E+02  0.20408365959E+03  0.12499647755E+03 0.  0.
          5    1    3    3  501    0 -0.36161862023E+02  0.31067336728E+01  0.39645844415E+02  0.53955676610E+02  0.47000000000E+01 0.  1.
         -5    1    3    3    0  501 -0.10065314000E+03 -0.87844122140E+02  0.73425728260E+03  0.74632666536E+03  0.47000000000E+01 0.  1.
          5    1    4    4  502    0  0.30254981979E+02  0.90969259884E+02  0.15130081963E+02  0.97168819889E+02  0.47000000000E+01 0. -1.
         -5    1    4    4    0  502  0.10656002005E+03 -0.62318714171E+01 -0.38495266083E+01  0.10691483970E+03  0.47000000000E+01 0. -1.
<mgrwt>
<rscale>  0 0.62628879E+03</rscale>
<asrwt>0</asrwt>
<pdfrwt beam="1">  1       21 0.13765766E+00 0.62628879E+03</pdfrwt>
<pdfrwt beam="2">  1       21 0.16860179E-01 0.62628879E+03</pdfrwt>
<totfact> 0.10008158E+04</totfact>
</mgrwt>
</event>
<event>
 8    1  0.9529436E-006  0.4377287E+03  0.7546771E-02  0.1031446E+00
         21   -1    0    0  504  503  0.00000000000E+00  0.00000000000E+00  0.88074780110E+02  0.88074780110E+02  0.00000000000E+00 0.  1.
         21   -1    0    0  503  504 -0.00000000000E+00 -0.00000000000E+00 -0.54387434111E+03  0.54387434111E+03  0.00000000000E+00 0.  1.
         25    2    1    2    0    0  0.84899232583E+02  0.10897117960E+03 -0.62076588287E+02  0.19637528213E+03  0.12500860347E+03 0.  0.
         25    2    1    2    0    0 -0.84899232583E+02 -0.10897117960E+03 -0.39372297271E+03  0.43557383909E+03  0.12499676948E+03 0.  0.
          5    1    3    3  501    0 -0.39719236617E+01 -0.54054458691E+01 -0.50315211985E+02  0.50977500721E+02  0.47000000000E+01 0.  1.
         -5    1    3    3    0  501  0.88871156245E+02  0.11437662547E+03 -0.11761376302E+02  0.14539778141E+03  0.47000000000E+01 0. -1.
          5    1    4    4  502    0 -0.51774286124E+02 -0.86261887444E+02 -0.11063461167E+03  0.14961215602E+03  0.47000000000E+01 0. -1.
         -5    1    4    4    0  502 -0.33124946459E+02 -0.22709292156E+02 -0.28308836104E+03  0.28596168307E+03  0.47000000000E+01 0. -1.
<mgrwt>
<rscale>  0 0.43772874E+03</rscale>
<asrwt>0</asrwt>
<pdfrwt beam="1">  1       21 0.13549966E-01 0.43772874E+03</pdfrwt>
<pdfrwt beam="2">  1       21 0.83672979E-01 0.43772874E+03</pdfrwt>
<totfact> 0.54050602E+04</totfact>
</mgrwt>
</event>
<event>
 8    1  0.9529436E-006  0.5676919E+03  0.7546771E-02  0.9974799E-01
         21   -1    0    0  504  503  0.00000000000E+00  0.00000000000E+00  0.24958293972E+03  0.24958293972E+03  0.00000000000E+00 0.  1.
         21   -1    0    0  503  504 -0.00000000000E+00 -0.00000000000E+00 -0.32281258758E+03  0.32281258758E+03  0.00000000000E+00 0.  1.
         25    2    1    2    0    0  0.90115271725E+02 -0.59919755069E+02  0.19601794464E+03  0.25643627643E+03  0.12500155999E+03 0.  0.
         25    2    1    2    0    0 -0.90115271725E+02  0.59919755069E+02 -0.26924759251E+03  0.31595925087E+03  0.12499937157E+03 0.  0.
          5    1    3    3  501    0  0.50830787771E+02  0.19396658544E+02  0.17873463745E+02  0.57459116373E+02  0.47000000000E+01 0.  1.
         -5    1    3    3    0  501  0.39284483954E+02 -0.79316413613E+02  0.17814448090E+03  0.19897716005E+03  0.47000000000E+01 0.  1.
          5    1    4    4  502    0 -0.58319665284E+02 -0.26987338979E+02 -0.64249027226E+02  0.90991908011E+02  0.47000000000E+01 0.  1.
         -5    1    4    4    0  502 -0.31795606440E+02  0.86907094049E+02 -0.20499856528E+03  0.22496734286E+03  0.47000000000E+01 0.  1.
<mgrwt>
<rscale>  0 0.56769187E+03</rscale>
<asrwt>0</asrwt>
<pdfrwt beam="1">  1       21 0.38397375E-01 0.56769187E+03</pdfrwt>
<pdfrwt beam="2">  1       21 0.49663475E-01 0.56769187E+03</pdfrwt>
<totfact> 0.22333743E+04</totfact>
</mgrwt>
</event>
<event>
 8    1  0.9529436E-006  0.7334336E+03  0.7546771E-02  0.9661705E-01
         21   -1    0    0  504  503  0.00000000000E+00  0.00000000000E+00  0.33610494438E+03  0.33610494438E+03  0.00000000000E+00 0.  1.
         21   -1    0    0  503  504 -0.00000000000E+00 -0.00000000000E+00 -0.40011668411E+03  0.40011668411E+03  0.00000000000E+00 0.  1.
         25    2    1    2    0    0  0.67773377271E+02  0.85124766447E+02  0.29636570715E+03  0.33956584357E+03  0.12503148888E+03 0.  0.
         25    2    1    2    0    0 -0.67773377271E+02 -0.85124766447E+02 -0.36037744689E+03  0.39665578492E+03  0.12499780380E+03 0.  0.
          5    1    3    3  501    0  0.92062674912E+02  0.10069197359E+03  0.24344029042E+03  0.27910513190E+03  0.47000000000E+01 0.  1.
         -5    1    3    3    0  501 -0.24289297641E+02 -0.15567207140E+02  0.52925416739E+02  0.60460711665E+02  0.47000000000E+01 0.  1.
          5    1    4    4  502    0 -0.15792809210E+02 -0.67615085674E+02 -0.32227751094E+03  0.32970607621E+03  0.47000000000E+01 0.  1.
         -5    1    4    4    0  502 -0.51980568061E+02 -0.17509680772E+02 -0.38099935947E+02  0.66949708706E+02  0.47000000000E+01 0.  1.
<mgrwt>
<rscale>  0 0.73343356E+03</rscale>
<asrwt>0</asrwt>
<pdfrwt beam="1">  1       21 0.51708453E-01 0.73343356E+03</pdfrwt>
<pdfrwt beam="2">  1       21 0.61556412E-01 0.73343356E+03</pdfrwt>
<totfact> 0.72362934E+03</totfact>
</mgrwt>
</event>
<event>
 8    1  0.9529436E-006  0.4081967E+03  0.7546771E-02  0.1040978E+00
         21   -1    0    0  504  503  0.00000000000E+00  0.00000000000E+00  0.82791083815E+03  0.82791083815E+03  0.00000000000E+00 0. -1.
         21   -1    0    0  503  504 -0.00000000000E+00 -0.00000000000E+00 -0.50314754965E+02  0.50314754965E+02  0.00000000000E+00 0. -1.
         25    2    1    2    0    0  0.98776311332E+02 -0.12546958576E+03  0.33915859595E+03  0.39516179900E+03  0.12499967019E+03 0.  0.
         25    2    1    2    0    0 -0.98776311332E+02  0.12546958576E+03  0.43843748723E+03  0.48306379411E+03  0.12499528930E+03 0.  0.
          5    1    3    3  501    0  0.62876353158E+02 -0.22767835845E+02  0.23535784714E+03  0.24471864732E+03  0.47000000000E+01 0. -1.
         -5    1    3    3    0  501  0.35899958173E+02 -0.10270174991E+03  0.10380074881E+03  0.15044315168E+03  0.47000000000E+01 0. -1.
          5    1    4    4  502    0 -0.15603463782E+02  0.51352656590E+02  0.30242905053E+03  0.30719046864E+03  0.47000000000E+01 0. -1.
         -5    1    4    4    0  502 -0.83172847550E+02  0.74116929170E+02  0.13600843670E+03  0.17587332547E+03  0.47000000000E+01 0. -1.
<mgrwt>
<rscale>  0 0.40819667E+03</rscale>
<asrwt>0</asrwt>
<pdfrwt beam="1">  1       21 0.12737089E+00 0.40819667E+03</pdfrwt>
<pdfrwt beam="2">  1       21 0.77407322E-02 0.40819667E+03</pdfrwt>
<totfact> 0.53392569E+04</totfact>
</mgrwt>
</event>
<event>
 8    1  0.9529436E-006  0.2738730E+03  0.7546771E-02  0.1099083E+00
         21   -1    0    0  504  503  0.00000000000E+00  0.00000000000E+00  0.85650067638E+02  0.85650067638E+02  0.00000000000E+00 0. -1.
         21   -1    0    0  503  504 -0.00000000000E+00 -0.00000000000E+00 -0.21893271445E+03  0.21893271445E+03  0.00000000000E+00 0. -1.
         25    2    1    2    0    0  0.13412456560E+02  0.41149667908E+02 -0.27262137840E+02  0.13505778160E+03  0.12499676417E+03 0.  0.
         25    2    1    2    0    0 -0.13412456560E+02 -0.41149667908E+02 -0.10602050897E+03  0.16952500049E+03  0.12500075323E+03 0.  0.
          5    1    3    3  501    0  0.91953360575E+01 -0.19498534894E+02  0.39124647254E+02  0.44917425249E+02  0.47000000000E+01 0.  1.
         -5    1    3    3    0  501  0.42171205024E+01  0.60648202802E+02 -0.66386785094E+02  0.90140356354E+02  0.47000000000E+01 0.  1.
          5    1    4    4  502    0 -0.28659229674E+02  0.51208638740E+00 -0.11945343338E+03  0.12293423617E+03  0.47000000000E+01 0.  1.
         -5    1    4    4    0  502  0.15246773114E+02 -0.41661754296E+02  0.13432924403E+02  0.46590764314E+02  0.47000000000E+01 0.  1.
<mgrwt>
<rscale>  0 0.27387298E+03</rscale>
<asrwt>0</asrwt>
<pdfrwt beam="1">  1       21 0.13176933E-01 0.27387298E+03</pdfrwt>
<pdfrwt beam="2">  1       21 0.33681956E-01 0.27387298E+03</pdfrwt>
<totfact> 0.41413376E+05</totfact>
</mgrwt>
</event>
<event>
 8    1  0.9529436E-006  0.3166146E+03  0.7546771E-02  0.1077218E+00
         21   -1    0    0  504  503  0.00000000000E+00  0.00000000000E+00  0.13551762371E+02  0.13551762371E+02  0.00000000000E+00 0. -1.
         21   -1    0    0  503  504 -0.00000000000E+00 -0.00000000000E+00 -0.18492945153E+04  0.18492945153E+04  0.00000000000E+00 0. -1.
         25    2    1    2    0    0  0.49748097361E+01 -0.72305329880E+02 -0.53724827139E+03  0.55633707134E+03  0.12498968909E+03 0.  0.
         25    2    1    2    0    0 -0.49748097361E+01  0.72305329880E+02 -0.12984944815E+04  0.13065092063E+04  0.12500231266E+03 0.  0.
          5    1    3    3  501    0 -0.23230931095E+02 -0.66887581518E+02 -0.51457280971E+03  0.51944286617E+03  0.47000000000E+01 0.  1.
         -5    1    3    3    0  501  0.28205740831E+02 -0.54177483626E+01 -0.22675461682E+02  0.36894205177E+02  0.47000000000E+01 0.  1.
          5    1    4    4  502    0  0.53378520098E+02  0.35098375967E+01 -0.53560019092E+03  0.53828546319E+03  0.47000000000E+01 0. -1.
         -5    1    4    4    0  502 -0.58353329834E+02  0.68795492284E+02 -0.76289429058E+03  0.76822374310E+03  0.47000000000E+01 0. -1.
<mgrwt>
<rscale>  0 0.31661459E+03</rscale>
<asrwt>0</asrwt>
<pdfrwt beam="1">  1       21 0.20848889E-02 0.31661459E+03</pdfrwt>
<pdfrwt beam="2">  1       21 0.28450652E+00 0.31661459E+03</pdfrwt>
<totfact> 0.44316047E+04</totfact>
</mgrwt>
</event>
<event>
 8    1  0.9529436E-006  0.3688150E+03  0.7546771E-02  0.1055147E+00
         21   -1    0    0  504  503  0.00000000000E+00  0.00000000000E+00  0.59924848213E+03  0.59924848213E+03  0.00000000000E+00 0.  1.
         21   -1    0    0  503  504 -0.00000000000E+00 -0.00000000000E+00 -0.56747940081E+02  0.56747940081E+02  0.00000000000E+00 0.  1.
         25    2    1    2    0    0 -0.65142831674E+02  0.11515370946E+03  0.32388508919E+03  0.37152933997E+03  0.12501413577E+03 0.  0.
         25    2    1    2    0    0  0.65142831674E+02 -0.11515370946E+03  0.21861545286E+03  0.28446708224E+03  0.12499935729E+03 0.  0.
          5    1    3    3  501    0  0.22098819630E+02 -0.58141687826E+01  0.13046809976E+02  0.26729602283E+02  0.47000000000E+01 0. -1.
         -5    1    3    3    0  501 -0.87241651305E+02  0.12096787824E+03  0.31083827921E+03  0.34479973769E+03  0.47000000000E+01 0. -1.
          5    1    4    4  502    0  0.38876705987E+02 -0.99336687081E+02  0.22824630455E+03  0.25198738304E+03  0.47000000000E+01 0.  1.
         -5    1    4    4    0  502  0.26266125687E+02 -0.15817022380E+02 -0.96308516908E+01  0.32479699196E+02  0.47000000000E+01 0.  1.
<mgrwt>
<rscale>  0 0.36881495E+03</rscale>
<asrwt>0</asrwt>
<pdfrwt beam="1">  1       21 0.92192070E-01 0.36881495E+03</pdfrwt>
<pdfrwt beam="2">  1       21 0.87304527E-02 0.36881495E+03</pdfrwt>
<totfact> 0.96736928E+04</totfact>
</mgrwt>
</event>
<event>
 8    1  0.9529436E-006  0.2846240E+03  0.7546771E-02  0.1093190E+00
         21   -1    0    0  504  503  0.00000000000E+00  0.00000000000E+00  0.44746463823E+03  0.44746463823E+03  0.00000000000E+00 0. -1.
         21   -1    0    0  503  504 -0.00000000000E+00 -0.00000000000E+00 -0.45261027324E+02  0.45261027324E+02  0.00000000000E+00 0. -1.
         25    2    1    2    0    0  0.50084321147E+02  0.22389381533E+02  0.13145904079E+03  0.18951673040E+03  0.12500155226E+03 0.  0.
         25    2    1    2    0    0 -0.50084321147E+02 -0.22389381533E+02  0.27074457013E+03  0.30320893515E+03  0.12499324972E+03 0.  0.
          5    1    3    3  501    0 -0.20960436304E+02 -0.23329765630E+02  0.89734780974E+02  0.95173729416E+02  0.47000000000E+01 0.  1.
         -5    1    3    3    0  501  0.71044757452E+02  0.45719147163E+02  0.41724259811E+02  0.94343000988E+02  0.47000000000E+01 0.  1.
          5    1    4    4  502    0 -0.37012239712E+02  0.48714239745E+02  0.15446997293E+03  0.16621084675E+03  0.47000000000E+01 0. -1.
         -5    1    4    4    0  502 -0.13072081435E+02 -0.71103621278E+02  0.11627459720E+03  0.13699808840E+03  0.47000000000E+01 0. -1.
<mgrwt>
<rscale>  0 0.28462403E+03</rscale>
<asrwt>0</asrwt>
<pdfrwt beam="1">  1       21 0.68840711E-01 0.28462403E+03</pdfrwt>
<pdfrwt beam="2">  1       21 0.69632353E-02 0.28462403E+03</pdfrwt>
<totfact> 0.28665912E+05</totfact>
</mgrwt>
</event>
<event>
 8    1  0.9529436E-006  0.4756695E+03  0.7546771E-02  0.1020332E+00
         21   -1    0    0  504  503  0.00000000000E+00  0.00000000000E+00  0.47110477477E+02  0.47110477477E+02  0.00000000000E+00 0.  1.
         21   -1    0    0  503  504 -0.00000000000E+00 -0.00000000000E+00 -0.12006961945E+04  0.12006961945E+04  0.00000000000E+00 0.  1.
         25    2    1    2    0    0 -0.54690160549E+02 -0.14745617220E+03 -0.24287707937E+03  0.31520335866E+03  0.12501817967E+03 0.  0.
         25    2    1    2    0    0  0.54690160549E+02  0.14745617220E+03 -0.91070863768E+03  0.93260331334E+03  0.12499752369E+03 0.  0.
          5    1    3    3  501    0  0.13294267549E+02 -0.17008773209E+02  0.86952048377E+01  0.23743051676E+02  0.47000000000E+01 0. -1.
         -5    1    3    3    0  501 -0.67984428098E+02 -0.13044739899E+03 -0.25157228421E+03  0.29146030699E+03  0.47000000000E+01 0. -1.
          5    1    4    4  502    0 -0.23441026460E+02  0.60507101170E+01 -0.39774340502E+02  0.46799369406E+02  0.47000000000E+01 0. -1.
         -5    1    4    4    0  502  0.78131187009E+02  0.14140546208E+03 -0.87093429718E+03  0.88580394393E+03  0.47000000000E+01 0. -1.
<mgrwt>
<rscale>  0 0.47566951E+03</rscale>
<asrwt>0</asrwt>
<pdfrwt beam="1">  1       21 0.72477666E-02 0.47566951E+03</pdfrwt>
<pdfrwt beam="2">  1       21 0.18472247E+00 0.47566951E+03</pdfrwt>
<totfact> 0.21193516E+04</totfact>
</mgrwt>
</event>
<event>
 8    1  0.9529436E-006  0.4403420E+03  0.7546771E-02  0.1030642E+00
         21   -1    0    0  504  503  0.00000000000E+00  0.00000000000E+00  0.20684948878E+03  0.20684948878E+03  0.00000000000E+00 0.  1.
         21   -1    0    0  503  504 -0.00000000000E+00 -0.00000000000E+00 -0.23435039144E+03  0.23435039144E+03  0.00000000000E+00 0.  1.
         25    2    1    2    0    0  0.17213644449E+03  0.34800173205E+02  0.31121121417E+02  0.21779855043E+03  0.12500270715E+03 0.  0.
         25    2    1    2    0    0 -0.17213644449E+03 -0.34800173205E+02 -0.58622024082E+02  0.22340132979E+03  0.12501841812E+03 0.  0.
          5    1    3    3  501    0  0.59462379034E+02 -0.30272273067E+02  0.53545435837E+02  0.85681904367E+02  0.47000000000E+01 0.  1.
         -5    1    3    3    0  501  0.11267406545E+03  0.65072446272E+02 -0.22424314419E+02  0.13211664606E+03  0.47000000000E+01 0.  1.
          5    1    4    4  502    0 -0.12752133965E+03 -0.23737294368E+02  0.20862004125E+02  0.13146278723E+03  0.47000000000E+01 0.  1.
         -5    1    4    4    0  502 -0.44615104834E+02 -0.11062878837E+02 -0.79484028208E+02  0.91938542558E+02  0.47000000000E+01 0.  1.
<mgrwt>
<rscale>  0 0.44034195E+03</rscale>
<asrwt>0</asrwt>
<pdfrwt beam="1">  1       21 0.31822998E-01 0.44034195E+03</pdfrwt>
<pdfrwt beam="2">  1       21 0.36053906E-01 0.44034195E+03</pdfrwt>
<totfact> 0.65345337E+04</totfact>
</mgrwt>
</event>
<event>
 8    1  0.9529436E-006  0.3115276E+03  0.7546771E-02  0.1079616E+00
         21   -1    0    0  504  503  0.00000000000E+00  0.00000000000E+00  0.32044475449E+02  0.32044475449E+02  0.00000000000E+00 0.  1.
         21   -1    0    0  503  504 -0.00000000000E+00 -0.00000000000E+00 -0.75714626308E+03  0.75714626308E+03  0.00000000000E+00 0.  1.
         25    2    1    2    0    0  0.71004586676E+02  0.53606067676E+02 -0.29438749927E+03  0.33196580341E+03  0.12498813179E+03 0.  0.
         25    2    1    2    0    0 -0.71004586676E+02 -0.53606067676E+02 -0.43071428836E+03  0.45722493511E+03  0.12499832509E+03 0.  0.
          5    1    3    3  501    0  0.83005460479E+02  0.84559920167E+02 -0.24607612750E+03  0.27315899600E+03  0.47000000000E+01 0. -1.
         -5    1    3    3    0  501 -0.12000873803E+02 -0.30953852492E+02 -0.48311371768E+02  0.58806807414E+02  0.47000000000E+01 0. -1.
          5    1    4    4  502    0 -0.21727767619E+02  0.14272161778E+02 -0.10067075553E+02  0.28270594223E+02  0.47000000000E+01 0. -1.
         -5    1    4    4    0  502 -0.49276819057E+02 -0.67878229454E+02 -0.42064721280E+03  0.42895434089E+03  0.47000000000E+01 0. -1.
<mgrwt>
<rscale>  0 0.31152756E+03</rscale>
<asrwt>0</asrwt>
<pdfrwt beam="1">  1       21 0.49299195E-02 0.31152756E+03</pdfrwt>
<pdfrwt beam="2">  1       21 0.11648404E+00 0.31152756E+03</pdfrwt>
<totfact> 0.15049648E+05</totfact>
</mgrwt>
</event>
<event>
 8    1  0.9529436E-006  0.2746571E+03  0.7546771E-02  0.1098643E+00
         21   -1    0    0  504  503  0.00000000000E+00  0.00000000000E+00  0.25687567954E+02  0.25687567954E+02  0.00000000000E+00 0.  1.
         21   -1    0    0  503  504 -0.00000000000E+00 -0.00000000000E+00 -0.73417336529E+03  0.73417336529E+03  0.00000000000E+00 0.  1.
         25    2    1    2    0    0 -0.30287925880E+02 -0.34736145036E+02 -0.26207656442E+03  0.29399620949E+03  0.12500274937E+03 0.  0.
         25    2    1    2    0    0  0.30287925880E+02  0.34736145036E+02 -0.44640923292E+03  0.46586472376E+03  0.12499911752E+03 0.  0.
          5    1    3    3  501    0  0.22072107188E+02 -0.57060684830E+02 -0.20195297568E+03  0.21106916888E+03  0.47000000000E+01 0. -1.
         -5    1    3    3    0  501 -0.52360033068E+02  0.22324539794E+02 -0.60123588742E+02  0.82927040602E+02  0.47000000000E+01 0. -1.
          5    1    4    4  502    0 -0.60667381532E+01  0.56091301170E+02 -0.39578997454E+03  0.39981850048E+03  0.47000000000E+01 0. -1.
         -5    1    4    4    0  502  0.36354664034E+02 -0.21355156134E+02 -0.50619258374E+02  0.66046223275E+02  0.47000000000E+01 0. -1.
<mgrwt>
<rscale>  0 0.27465708E+03</rscale>
<asrwt>0</asrwt>
<pdfrwt beam="1">  1       21 0.39519332E-02 0.27465708E+03</pdfrwt>
<pdfrwt beam="2">  1       21 0.11294976E+00 0.27465708E+03</pdfrwt>
<totfact> 0.23881987E+05</totfact>
</mgrwt>
</event>
<event>
 8    1  0.9529436E-006  0.3117874E+03  0.7546771E-02  0.1079492E+00
         21   -1    0    0  504  503  0.00000000000E+00  0.00000000000E+00  0.29607649932E+03  0.29607649932E+03  0.00000000000E+00 0. -1.
         21   -1    0    0  503  504 -0.00000000000E+00 -0.00000000000E+00 -0.82082990552E+02  0.82082990552E+02  0.00000000000E+00 0. -1.
         25    2    1    2    0    0  0.71728230331E+02  0.59323892933E+02  0.11171835912E+03  0.19175989365E+03  0.12500640683E+03 0.  0.
         25    2    1    2    0    0 -0.71728230331E+02 -0.59323892933E+02  0.10227514964E+03  0.18639959622E+03  0.12498135836E+03 0.  0.
          5    1    3    3  501    0  0.10289718210E+03  0.66460388765E+02  0.79387419877E+02  0.14604542373E+03  0.47000000000E+01 0.  1.
         -5    1    3    3    0  501 -0.31168951770E+02 -0.71364958319E+01  0.32330939242E+02  0.45714469914E+02  0.47000000000E+01 0.  1.
          5    1    4    4  502    0  0.34172982525E+02 -0.30336336540E+02  0.30474240523E+02  0.55125814142E+02  0.47000000000E+01 0. -1.
         -5    1    4    4    0  502 -0.10590121286E+03 -0.28987556393E+02  0.71800909121E+02  0.13127378208E+03  0.47000000000E+01 0. -1.
<mgrwt>
<rscale>  0 0.31178739E+03</rscale>
<asrwt>0</asrwt>
<pdfrwt beam="1">  1       21 0.45550230E-01 0.31178739E+03</pdfrwt>
<pdfrwt beam="2">  1       21 0.12628153E-01 0.31178739E+03</pdfrwt>
<totfact> 0.24026124E+05</totfact>
</mgrwt>
</event>
<event>
 8    1  0.9529436E-006  0.3116008E+03  0.7546771E-02  0.1079581E+00
         21   -1    0    0  504  503  0.00000000000E+00  0.00000000000E+00  0.86972172163E+03  0.86972172163E+03  0.00000000000E+00 0. -1.
         21   -1    0    0  503  504 -0.00000000000E+00 -0.00000000000E+00 -0.27909798835E+02  0.27909798835E+02  0.00000000000E+00 0. -1.
         25    2    1    2    0    0 -0.28875381577E+02  0.74256212472E+02  0.55908217877E+03  0.57839944990E+03  0.12500107309E+03 0.  0.
         25    2    1    2    0    0  0.28875381577E+02 -0.74256212472E+02  0.28272974403E+03  0.31923207057E+03  0.12500093587E+03 0.  0.
          5    1    3    3  501    0 -0.67747606291E+02  0.83350350213E+02  0.42764812532E+03  0.44095581199E+03  0.47000000000E+01 0.  1.
         -5    1    3    3    0  501  0.38872224714E+02 -0.90941377405E+01  0.13143405345E+03  0.13744363791E+03  0.47000000000E+01 0.  1.
          5    1    4    4  502    0  0.15709563104E+02  0.30327141580E+02  0.12345254790E+03  0.12817623598E+03  0.47000000000E+01 0. -1.
         -5    1    4    4    0  502  0.13165818473E+02 -0.10458335405E+03  0.15927719613E+03  0.19105583458E+03  0.47000000000E+01 0. -1.
<mgrwt>
<rscale>  0 0.31160076E+03</rscale>
<asrwt>0</asrwt>
<pdfrwt beam="1">  1       21 0.13380332E+00 0.31160076E+03</pdfrwt>
<pdfrwt beam="2">  1       21 0.42938159E-02 0.31160076E+03</pdfrwt>
<totfact> 0.13396789E+05</totfact>
</mgrwt>
</event>
<event>
 8    1  0.9529436E-006  0.2708796E+03  0.7546771E-02  0.1100777E+00
         21   -1    0    0  504  503  0.00000000000E+00  0.00000000000E+00  0.18758539145E+03  0.18758539145E+03  0.00000000000E+00 0. -1.
         21   -1    0    0  503  504 -0.00000000000E+00 -0.00000000000E+00 -0.97789819246E+02  0.97789819246E+02  0.00000000000E+00 0. -1.
         25    2    1    2    0    0  0.17969590700E+02  0.35353835868E+02  0.80517393581E+02  0.15388504855E+03  0.12499903039E+03 0.  0.
         25    2    1    2    0    0 -0.17969590700E+02 -0.35353835868E+02  0.92781786236E+01  0.13149016214E+03  0.12502311083E+03 0.  0.
          5    1    3    3  501    0  0.63716041510E+02  0.19116214076E+02  0.89576679107E+01  0.67286650984E+02  0.47000000000E+01 0. -1.
         -5    1    3    3    0  501 -0.45746450810E+02  0.16237621793E+02  0.71559725671E+02  0.86598397568E+02  0.47000000000E+01 0. -1.
          5    1    4    4  502    0  0.28611119038E+02  0.23899306508E+02  0.35359740748E+02  0.51596261976E+02  0.47000000000E+01 0. -1.
         -5    1    4    4    0  502 -0.46580709738E+02 -0.59253142376E+02 -0.26081562125E+02  0.79893900168E+02  0.47000000000E+01 0. -1.
<mgrwt>
<rscale>  0 0.27087962E+03</rscale>
<asrwt>0</asrwt>
<pdfrwt beam="1">  1       21 0.28859291E-01 0.27087962E+03</pdfrwt>
<pdfrwt beam="2">  1       21 0.15044588E-01 0.27087962E+03</pdfrwt>
<totfact> 0.44128642E+05</totfact>
</mgrwt>
</event>
<event>
 8    1  0.9529436E-006  0.2928591E+03  0.7546771E-02  0.1088866E+00
         21   -1    0    0  504  503  0.00000000000E+00  0.00000000000E+00  0.31275400890E+03  0.31275400890E+03  0.00000000000E+00 0.  1.
         21   -1    0    0  503  504 -0.00000000000E+00 -0.00000000000E+00 -0.68557430955E+02  0.68557430955E+02  0.00000000000E+00 0.  1.
         25    2    1    2    0    0  0.54552143669E+02 -0.30284937733E+02  0.65100835304E+02  0.15416544642E+03  0.12504300173E+03 0.  0.
         25    2    1    2    0    0 -0.54552143669E+02  0.30284937733E+02  0.17909574264E+03  0.22714599343E+03  0.12500761364E+03 0.  0.
          5    1    3    3  501    0  0.32617168169E+02 -0.43370924202E+01 -0.35049770577E+02  0.48303896815E+02  0.47000000000E+01 0. -1.
         -5    1    3    3    0  501  0.21934975499E+02 -0.25947845313E+02  0.10015060588E+03  0.10586154961E+03  0.47000000000E+01 0. -1.
          5    1    4    4  502    0 -0.38663963097E+02 -0.39458111098E+02  0.12686749423E+03  0.13845322555E+03  0.47000000000E+01 0.  1.
         -5    1    4    4    0  502 -0.15888180572E+02  0.69743048832E+02  0.52228248408E+02  0.88692767879E+02  0.47000000000E+01 0.  1.
<mgrwt>
<rscale>  0 0.29285909E+03</rscale>
<asrwt>0</asrwt>
<pdfrwt beam="1">  1       21 0.48116001E-01 0.29285909E+03</pdfrwt>
<pdfrwt beam="2">  1       21 0.10547297E-01 0.29285909E+03</pdfrwt>
<totfact> 0.29757488E+05</totfact>
</mgrwt>
</event>
<event>
 8    1  0.9529436E-006  0.3845796E+03  0.7546771E-02  0.1049254E+00
         21   -1    0    0  504  503  0.00000000000E+00  0.00000000000E+00  0.13087907166E+03  0.13087907166E+03  0.00000000000E+00 0.  1.
         21   -1    0    0  503  504 -0.00000000000E+00 -0.00000000000E+00 -0.28251548797E+03  0.28251548797E+03  0.00000000000E+00 0.  1.
         25    2    1    2    0    0 -0.70262515045E+02  0.16198226743E+02 -0.21242240788E+03  0.25680916949E+03  0.12501386562E+03 0.  0.
         25    2    1    2    0    0  0.70262515045E+02 -0.16198226743E+02  0.60785991564E+02  0.15658539015E+03  0.12499937627E+03 0.  0.
          5    1    3    3  501    0 -0.10128448102E+02  0.65025405370E+02 -0.11062040731E+03  0.12880160448E+03  0.47000000000E+01 0.  1.
         -5    1    3    3    0  501 -0.60134066943E+02 -0.48827178627E+02 -0.10180200057E+03  0.12800756501E+03  0.47000000000E+01 0.  1.
          5    1    4    4  502    0  0.57271232064E+02  0.16625699925E+02 -0.24129996545E+02  0.64503911923E+02  0.47000000000E+01 0.  1.
         -5    1    4    4    0  502  0.12991282982E+02 -0.32823926667E+02  0.84915988110E+02  0.92081478225E+02  0.47000000000E+01 0.  1.
<mgrwt>
<rscale>  0 0.38457959E+03</rscale>
<asrwt>0</asrwt>
<pdfrwt beam="1">  1       21 0.20135242E-01 0.38457959E+03</pdfrwt>
<pdfrwt beam="2">  1       21 0.43463921E-01 0.38457959E+03</pdfrwt>
<totfact> 0.10978264E+05</totfact>
</mgrwt>
</event>
<event>
 8    1  0.9529436E-006  0.2576732E+03  0.7546771E-02  0.1108549E+00
         21   -1    0    0  504  503  0.00000000000E+00  0.00000000000E+00  0.77913581657E+02  0.77913581657E+02  0.00000000000E+00 0. -1.
         21   -1    0    0  503  504 -0.00000000000E+00 -0.00000000000E+00 -0.21304209671E+03  0.21304209671E+03  0.00000000000E+00 0. -1.
         25    2    1    2    0    0  0.53783546467E+01  0.27072936022E+02 -0.51153733331E+02  0.13785879844E+03  0.12500589310E+03 0.  0.
         25    2    1    2    0    0 -0.53783546467E+01 -0.27072936022E+02 -0.83974781726E+02  0.15309687993E+03  0.12500008046E+03 0.  0.
          5    1    3    3  501    0  0.32408436642E+02  0.46642460889E+02 -0.76710896371E+02  0.95563997119E+02  0.47000000000E+01 0. -1.
         -5    1    3    3    0  501 -0.27030081996E+02 -0.19569524867E+02  0.25557163039E+02  0.42294801322E+02  0.47000000000E+01 0. -1.
          5    1    4    4  502    0 -0.45342256248E+02 -0.58899261276E+02 -0.35471667259E+02  0.82494680790E+02  0.47000000000E+01 0.  1.
         -5    1    4    4    0  502  0.39963901602E+02  0.31826325254E+02 -0.48503114467E+02  0.70602199140E+02  0.47000000000E+01 0.  1.
<mgrwt>
<rscale>  0 0.25767323E+03</rscale>
<asrwt>0</asrwt>
<pdfrwt beam="1">  1       21 0.11986705E-01 0.25767323E+03</pdfrwt>
<pdfrwt beam="2">  1       21 0.32775707E-01 0.25767323E+03</pdfrwt>
<totfact> 0.52033961E+05</totfact>
</mgrwt>
</event>
<event>
 8    1  0.9529436E-006  0.2532645E+03  0.7546771E-02  0.1111259E+00
         21   -1    0    0  504  503  0.00000000000E+00  0.00000000000E+00  0.24163496849E+02  0.24163496849E+02  0.00000000000E+00 0. -1.
         21   -1    0    0  503  504 -0.00000000000E+00 -0.00000000000E+00 -0.66363460567E+03  0.66363460567E+03  0.00000000000E+00 0. -1.
         25    2    1    2    0    0 -0.67420600867E+01  0.85823940888E+01 -0.27325063185E+03  0.30067939036E+03  0.12499230024E+03 0.  0.
         25    2    1    2    0    0  0.67420600867E+01 -0.85823940888E+01 -0.36622047697E+03  0.38711871216E+03  0.12499738672E+03 0.  0.
          5    1    3    3  501    0  0.49749726510E+02 -0.25689959023E+02 -0.93166295953E+02  0.10879824440E+03  0.47000000000E+01 0. -1.
         -5    1    3    3    0  501 -0.56491786597E+02  0.34272353112E+02 -0.18008433590E+03  0.19188114596E+03  0.47000000000E+01 0. -1.
          5    1    4    4  502    0 -0.10985312277E+02 -0.46228185903E+02 -0.53915090625E+02  0.72018395253E+02  0.47000000000E+01 0. -1.
         -5    1    4    4    0  502  0.17727372364E+02  0.37645791814E+02 -0.31230538634E+03  0.31510031690E+03  0.47000000000E+01 0. -1.
<mgrwt>
<rscale>  0 0.25326455E+03</rscale>
<asrwt>0</asrwt>
<pdfrwt beam="1">  1       21 0.37174602E-02 0.25326455E+03</pdfrwt>
<pdfrwt beam="2">  1       21 0.10209766E+00 0.25326455E+03</pdfrwt>
<totfact> 0.34037277E+05</totfact>
</mgrwt>
</event>
<event>
 8    1  0.9529436E-006  0.3153762E+03  0.7546771E-02  0.1077797E+00
         21   -1    0    0  504  503  0.00000000000E+00  0.00000000000E+00  0.17138921315E+04  0.17138921315E+04  0.00000000000E+00 0. -1.
         21   -1    0    0  503  504 -0.00000000000E+00 -0.00000000000E+00 -0.14508230002E+02  0.14508230002E+02  0.00000000000E+00 0. -1.
         25    2    1    2    0    0 -0.43781511919E+02  0.81821973976E+02  0.71223171896E+03  0.72904835257E+03  0.12500329065E+03 0.  0.
         25    2    1    2    0    0  0.43781511919E+02 -0.81821973976E+02  0.98715218251E+03  0.99935200891E+03  0.12499340009E+03 0.  0.
          5    1    3    3  501    0  0.26277251772E+02 -0.51092149610E+01  0.45363563636E+02  0.52882331113E+02  0.47000000000E+01 0.  1.
         -5    1    3    3    0  501 -0.70058763691E+02  0.86931188937E+02  0.66686815533E+03  0.67616602145E+03  0.47000000000E+01 0.  1.
          5    1    4    4  502    0 -0.14010325196E+02 -0.31085379745E+02  0.61319519033E+02  0.70319012083E+02  0.47000000000E+01 0. -1.
         -5    1    4    4    0  502  0.57791837114E+02 -0.50736594231E+02  0.92583266348E+03  0.92903299683E+03  0.47000000000E+01 0. -1.
<mgrwt>
<rscale>  0 0.31537623E+03</rscale>
<asrwt>0</asrwt>
<pdfrwt beam="1">  1       21 0.26367555E+00 0.31537623E+03</pdfrwt>
<pdfrwt beam="2">  1       21 0.22320367E-02 0.31537623E+03</pdfrwt>
<totfact> 0.52688589E+04</totfact>
</mgrwt>
</event>
<event>
 8    1  0.9529436E-006  0.3088811E+03  0.7546771E-02  0.1080883E+00
         21   -1    0    0  504  503  0.00000000000E+00  0.00000000000E+00  0.67250707421E+03  0.67250707421E+03  0.00000000000E+00 0.  1.
         21   -1    0    0  503  504 -0.00000000000E+00 -0.00000000000E+00 -0.35467101222E+02  0.35467101222E+02  0.00000000000E+00 0.  1.
         25    2    1    2    0    0  0.26870552914E+02 -0.65541334541E+02  0.44834918944E+03  0.47080239037E+03  0.12498080637E+03 0.  0.
         25    2    1    2    0    0 -0.26870552914E+02  0.65541334541E+02  0.18869078355E+03  0.23717178506E+03  0.12501420194E+03 0.  0.
          5    1    3    3  501    0  0.74837084621E+02 -0.34230437163E+02  0.20942686940E+03  0.22506447007E+03  0.47000000000E+01 0. -1.
         -5    1    3    3    0  501 -0.47966531707E+02 -0.31310897378E+02  0.23892232004E+03  0.24573792030E+03  0.47000000000E+01 0. -1.
          5    1    4    4  502    0 -0.75561155027E+02  0.24247670510E+02  0.98652011935E+02  0.12669548979E+03  0.47000000000E+01 0.  1.
         -5    1    4    4    0  502  0.48690602113E+02  0.41293664031E+02  0.90038771611E+02  0.11047629527E+03  0.47000000000E+01 0.  1.
<mgrwt>
<rscale>  0 0.30888105E+03</rscale>
<asrwt>0</asrwt>
<pdfrwt beam="1">  1       21 0.10346262E+00 0.30888105E+03</pdfrwt>
<pdfrwt beam="2">  1       21 0.54564776E-02 0.30888105E+03</pdfrwt>
<totfact> 0.16926282E+05</totfact>
</mgrwt>
</event>
<event>
 8    1  0.9529436E-006  0.4138260E+03  0.7546771E-02  0.1039095E+00
         21   -1    0    0  504  503  0.00000000000E+00  0.00000000000E+00  0.39426796336E+03  0.39426796336E+03  0.00000000000E+00 0.  1.
         21   -1    0    0  503  504 -0.00000000000E+00 -0.00000000000E+00 -0.10858854106E+03  0.10858854106E+03  0.00000000000E+00 0.  1.
         25    2    1    2    0    0 -0.14195969719E+03  0.14959993817E+02  0.42538258571E+02  0.19444177777E+03  0.12498697716E+03 0.  0.
         25    2    1    2    0    0  0.14195969719E+03 -0.14959993817E+02  0.24314116373E+03  0.30841472664E+03  0.12500264425E+03 0.  0.
          5    1    3    3  501    0 -0.99909307271E+02  0.24941802104E+02 -0.32186556540E+02  0.10799086810E+03  0.47000000000E+01 0. -1.
         -5    1    3    3    0  501 -0.42050389919E+02 -0.99818082873E+01  0.74724815111E+02  0.86450909668E+02  0.47000000000E+01 0. -1.
          5    1    4    4  502    0  0.13400033347E+03  0.99846040247E+01  0.24730197834E+03  0.28148914753E+03  0.47000000000E+01 0.  1.
         -5    1    4    4    0  502  0.79593637172E+01 -0.24944597842E+02 -0.41608146098E+01  0.26925579112E+02  0.47000000000E+01 0.  1.
<mgrwt>
<rscale>  0 0.41382597E+03</rscale>
<asrwt>0</asrwt>
<pdfrwt beam="1">  1       21 0.60656609E-01 0.41382597E+03</pdfrwt>
<pdfrwt beam="2">  1       21 0.16705930E-01 0.41382597E+03</pdfrwt>
<totfact> 0.76201522E+04</totfact>
</mgrwt>
</event>
<event>
 8    1  0.9529436E-006  0.3363828E+03  0.7546771E-02  0.1068347E+00
         21   -1    0    0  504  503  0.00000000000E+00  0.00000000000E+00  0.11977665556E+03  0.11977665556E+03  0.00000000000E+00 0.  1.
         21   -1    0    0  503  504 -0.00000000000E+00 -0.00000000000E+00 -0.23617579500E+03  0.23617579500E+03  0.00000000000E+00 0.  1.
         25    2    1    2    0    0 -0.10662827638E+03  0.69193167574E+01 -0.20857089214E+02  0.16576415278E+03  0.12500107963E+03 0.  0.
         25    2    1    2    0    0  0.10662827638E+03 -0.69193167574E+01 -0.95542050229E+02  0.19018829778E+03  0.12500335588E+03 0.  0.
          5    1    3    3  501    0  0.10729126063E+02 -0.24102454659E+02 -0.34317970512E+02  0.43541423573E+02  0.47000000000E+01 0.  1.
         -5    1    3    3    0  501 -0.11735740244E+03  0.31021771416E+02  0.13460881298E+02  0.12222272921E+03  0.47000000000E+01 0.  1.
          5    1    4    4  502    0  0.10857800410E+02  0.50522652543E+02 -0.21820080363E+02  0.56290640046E+02  0.47000000000E+01 0.  1.
         -5    1    4    4    0  502  0.95770475972E+02 -0.57441969300E+02 -0.73721969866E+02  0.13389765773E+03  0.47000000000E+01 0.  1.
<mgrwt>
<rscale>  0 0.33638280E+03</rscale>
<asrwt>0</asrwt>
<pdfrwt beam="1">  1       21 0.18427178E-01 0.33638280E+03</pdfrwt>
<pdfrwt beam="2">  1       21 0.36334738E-01 0.33638280E+03</pdfrwt>
<totfact> 0.18920561E+05</totfact>
</mgrwt>
</event>
<event>
 8    1  0.9529436E-006  0.2658599E+03  0.7546771E-02  0.1103673E+00
         21   -1    0    0  504  503  0.00000000000E+00  0.00000000000E+00  0.43782396786E+02  0.43782396786E+02  0.00000000000E+00 0. -1.
         21   -1    0    0  503  504 -0.00000000000E+00 -0.00000000000E+00 -0.40359522204E+03  0.40359522204E+03  0.00000000000E+00 0. -1.
         25    2    1    2    0    0 -0.12591776197E+02  0.43001696307E+02 -0.19137303513E+03  0.23289677978E+03  0.12493827574E+03 0.  0.
         25    2    1    2    0    0  0.12591776197E+02 -0.43001696307E+02 -0.16843979013E+03  0.21448083905E+03  0.12498947439E+03 0.  0.
          5    1    3    3  501    0 -0.33602175114E+02  0.33927572738E+02 -0.87352935871E+01  0.48770705535E+02  0.47000000000E+01 0. -1.
         -5    1    3    3    0  501  0.21010398917E+02  0.90741235692E+01 -0.18263774154E+03  0.18412607425E+03  0.47000000000E+01 0. -1.
          5    1    4    4  502    0  0.32888251773E+02 -0.52090258711E+02 -0.20932508926E+02  0.65232599881E+02  0.47000000000E+01 0.  1.
         -5    1    4    4    0  502 -0.20296475577E+02  0.90885624032E+01 -0.14750728120E+03  0.14924823917E+03  0.47000000000E+01 0.  1.
<mgrwt>
<rscale>  0 0.26585986E+03</rscale>
<asrwt>0</asrwt>
<pdfrwt beam="1">  1       21 0.67357530E-02 0.26585986E+03</pdfrwt>
<pdfrwt beam="2">  1       21 0.62091576E-01 0.26585986E+03</pdfrwt>
<totfact> 0.38255034E+05</totfact>
</mgrwt>
</event>
<event>
 8    1  0.9529436E-006  0.4500308E+03  0.7546771E-02  0.1027713E+00
         21   -1    0    0  504  503  0.00000000000E+00  0.00000000000E+00  0.11846087056E+03  0.11846087056E+03  0.00000000000E+00 0.  1.
         21   -1    0    0  503  504 -0.00000000000E+00 -0.00000000000E+00 -0.42741481740E+03  0.42741481740E+03  0.00000000000E+00 0.  1.
         25    2    1    2    0    0  0.11240400182E+03  0.13923184870E+03 -0.22074206982E+03  0.31044303029E+03  0.12501058496E+03 0.  0.
         25    2    1    2    0    0 -0.11240400182E+03 -0.13923184870E+03 -0.88211877017E+02  0.23543265767E+03  0.12500813468E+03 0.  0.
          5    1    3    3  501    0  0.11647743922E+03  0.15795431191E+03 -0.21178650287E+03  0.28877702696E+03  0.47000000000E+01 0. -1.
         -5    1    3    3    0  501 -0.40734374086E+01 -0.18722463213E+02 -0.89555669498E+01  0.21666003334E+02  0.47000000000E+01 0. -1.
          5    1    4    4  502    0  0.17534254599E+02 -0.44364333225E+02 -0.51479871880E+02  0.70341391483E+02  0.47000000000E+01 0. -1.
         -5    1    4    4    0  502 -0.12993825641E+03 -0.94867515471E+02 -0.36732005137E+02  0.16509126619E+03  0.47000000000E+01 0. -1.
<mgrwt>
<rscale>  0 0.45003080E+03</rscale>
<asrwt>0</asrwt>
<pdfrwt beam="1">  1       21 0.18224749E-01 0.45003080E+03</pdfrwt>
<pdfrwt beam="2">  1       21 0.65756127E-01 0.45003080E+03</pdfrwt>
<totfact> 0.53726252E+04</totfact>
</mgrwt>
</event>
<event>
 8    1  0.9529436E-006  0.4095114E+03  0.7546771E-02  0.1040535E+00
         21   -1    0    0  504  503  0.00000000000E+00  0.00000000000E+00  0.34108888903E+03  0.34108888903E+03  0.00000000000E+00 0.  1.
         21   -1    0    0  503  504 -0.00000000000E+00 -0.00000000000E+00 -0.12291488518E+03  0.12291488518E+03  0.00000000000E+00 0.  1.
         25    2    1    2    0    0 -0.10567408883E+03 -0.12156998156E+03  0.13032115053E+03  0.24198298026E+03  0.12500354792E+03 0.  0.
         25    2    1    2    0    0  0.10567408883E+03  0.12156998156E+03  0.87852853325E+02  0.22202079396E+03  0.12501534164E+03 0.  0.
          5    1    3    3  501    0 -0.61328477523E+01 -0.67481520590E+02  0.10619650202E+03  0.12606012250E+03  0.47000000000E+01 0. -1.
         -5    1    3    3    0  501 -0.99541241079E+02 -0.54088460967E+02  0.24124648507E+02  0.11592285776E+03  0.47000000000E+01 0. -1.
          5    1    4    4  502    0  0.27844636530E+02  0.26917412423E+02 -0.32066951106E+02  0.50500002260E+02  0.47000000000E+01 0. -1.
         -5    1    4    4    0  502  0.77829452301E+02  0.94652569134E+02  0.11991980443E+03  0.17152079169E+03  0.47000000000E+01 0. -1.
<mgrwt>
<rscale>  0 0.40951142E+03</rscale>
<asrwt>0</asrwt>
<pdfrwt beam="1">  1       21 0.52475213E-01 0.40951142E+03</pdfrwt>
<pdfrwt beam="2">  1       21 0.18909982E-01 0.40951142E+03</pdfrwt>
<totfact> 0.82690102E+04</totfact>
</mgrwt>
</event>
<event>
 8    1  0.9529436E-006  0.8000836E+03  0.7546771E-02  0.9559896E-01
         21   -1    0    0  504  503  0.00000000000E+00  0.00000000000E+00  0.35299785317E+03  0.35299785317E+03  0.00000000000E+00 0. -1.
         21   -1    0    0  503  504 -0.00000000000E+00 -0.00000000000E+00 -0.45335524183E+03  0.45335524183E+03  0.00000000000E+00 0. -1.
         25    2    1    2    0    0  0.15609083106E+03  0.20260561526E+03 -0.33344041888E+03  0.43843103407E+03  0.12500350320E+03 0.  0.
         25    2    1    2    0    0 -0.15609083106E+03 -0.20260561526E+03  0.23308303022E+03  0.36792206093E+03  0.12500224425E+03 0.  0.
          5    1    3    3  501    0  0.53116346161E+02  0.16579207386E+03 -0.18606908669E+03  0.25485712273E+03  0.47000000000E+01 0. -1.
         -5    1    3    3    0  501  0.10297448490E+03  0.36813541396E+02 -0.14737133219E+03  0.18357391133E+03  0.47000000000E+01 0. -1.
          5    1    4    4  502    0 -0.11139781967E+03 -0.81439295521E+02  0.56695165749E+02  0.14925905300E+03  0.47000000000E+01 0. -1.
         -5    1    4    4    0  502 -0.44693011393E+02 -0.12116631974E+03  0.17638786447E+03  0.21866300794E+03  0.47000000000E+01 0. -1.
<mgrwt>
<rscale>  0 0.80008356E+03</rscale>
<asrwt>0</asrwt>
<pdfrwt beam="1">  1       21 0.54307362E-01 0.80008356E+03</pdfrwt>
<pdfrwt beam="2">  1       21 0.69746960E-01 0.80008356E+03</pdfrwt>
<totfact> 0.48521279E+03</totfact>
</mgrwt>
</event>
<event>
 8    1  0.9529436E-006  0.4248147E+03  0.7546771E-02  0.1035511E+00
         21   -1    0    0  504  503  0.00000000000E+00  0.00000000000E+00  0.13426684136E+03  0.13426684136E+03  0.00000000000E+00 0. -1.
         21   -1    0    0  503  504 -0.00000000000E+00 -0.00000000000E+00 -0.33602401013E+03  0.33602401013E+03  0.00000000000E+00 0. -1.
         25    2    1    2    0    0  0.46551665172E+02  0.13676529982E+03  0.19075745012E+01  0.19105250859E+03  0.12500246969E+03 0.  0.
         25    2    1    2    0    0 -0.46551665172E+02 -0.13676529982E+03 -0.20366474328E+03  0.27923834290E+03  0.12499167863E+03 0.  0.
          5    1    3    3  501    0  0.62514104065E+02  0.50744871521E+02 -0.44278389137E+02  0.92009352445E+02  0.47000000000E+01 0.  1.
         -5    1    3    3    0  501 -0.15962438893E+02  0.86020428304E+02  0.46185963638E+02  0.99043156140E+02  0.47000000000E+01 0.  1.
          5    1    4    4  502    0 -0.66132544108E+01 -0.62502239241E+02 -0.48294341234E+01  0.63211379339E+02  0.47000000000E+01 0. -1.
         -5    1    4    4    0  502 -0.39938410762E+02 -0.74263060584E+02 -0.19883530915E+03  0.21602696357E+03  0.47000000000E+01 0. -1.
<mgrwt>
<rscale>  0 0.42481470E+03</rscale>
<asrwt>0</asrwt>
<pdfrwt beam="1">  1       21 0.20656437E-01 0.42481470E+03</pdfrwt>
<pdfrwt beam="2">  1       21 0.51696001E-01 0.42481470E+03</pdfrwt>
<totfact> 0.71960251E+04</totfact>
</mgrwt>
</event>
<event>
 8    1  0.9529436E-006  0.2667061E+03  0.7546771E-02  0.1103180E+00
         21   -1    0    0  504  503  0.00000000000E+00  0.00000000000E+00  0.13310230846E+02  0.13310230846E+02  0.00000000000E+00 0. -1.
         21   -1    0    0  503  504 -0.00000000000E+00 -0.00000000000E+00 -0.13360430294E+04  0.13360430294E+04  0.00000000000E+00 0. -1.
         25    2    1    2    0    0 -0.64578396638E+01  0.18263139050E+02 -0.44773989339E+03  0.46526465386E+03  0.12499976022E+03 0.  0.
         25    2    1    2    0    0  0.64578396638E+01 -0.18263139050E+02 -0.87499290513E+03  0.88408860635E+03  0.12499933566E+03 0.  0.
          5    1    3    3  501    0 -0.52648273918E+02 -0.26962972531E+02 -0.16986671193E+03  0.17993229965E+03  0.47000000000E+01 0. -1.
         -5    1    3    3    0  501  0.46190434254E+02  0.45226111581E+02 -0.27787318146E+03  0.28533235421E+03  0.47000000000E+01 0. -1.
          5    1    4    4  502    0  0.46125530319E+01  0.40862671822E+02 -0.65271390855E+03  0.65402490014E+03  0.47000000000E+01 0. -1.
         -5    1    4    4    0  502  0.18452866319E+01 -0.59125810872E+02 -0.22227899658E+03  0.23006370621E+03  0.47000000000E+01 0. -1.
<mgrwt>
<rscale>  0 0.26670614E+03</rscale>
<asrwt>0</asrwt>
<pdfrwt beam="1">  1       21 0.20477272E-02 0.26670614E+03</pdfrwt>
<pdfrwt beam="2">  1       21 0.20554514E+00 0.26670614E+03</pdfrwt>
<totfact> 0.14139379E+05</totfact>
</mgrwt>
</event>
<event>
 8    1  0.9529436E-006  0.4166727E+03  0.7546771E-02  0.1038155E+00
         21   -1    0    0  504  503  0.00000000000E+00  0.00000000000E+00  0.42145009570E+02  0.42145009570E+02  0.00000000000E+00 0.  1.
         21   -1    0    0  503  504 -0.00000000000E+00 -0.00000000000E+00 -0.10298736523E+04  0.10298736523E+04  0.00000000000E+00 0.  1.
         25    2    1    2    0    0 -0.21801636260E+02  0.24004061058E+02 -0.91447328908E+03  0.92354616561E+03  0.12499846909E+03 0.  0.
         25    2    1    2    0    0  0.21801636260E+02 -0.24004061058E+02 -0.73255353678E+02  0.14847249629E+03  0.12500491599E+03 0.  0.
          5    1    3    3  501    0 -0.26933443318E+02  0.77953728652E+01 -0.90074652509E+03  0.90119507914E+03  0.47000000000E+01 0. -1.
         -5    1    3    3    0  501  0.51318070579E+01  0.16208688192E+02 -0.13726763994E+02  0.22351086469E+02  0.47000000000E+01 0. -1.
          5    1    4    4  502    0  0.46250467708E+02 -0.42998424523E+02 -0.92215569378E+02  0.11186496999E+03  0.47000000000E+01 0. -1.
         -5    1    4    4    0  502 -0.24448831448E+02  0.18994363465E+02  0.18960215700E+02  0.36607526303E+02  0.47000000000E+01 0. -1.
<mgrwt>
<rscale>  0 0.41667270E+03</rscale>
<asrwt>0</asrwt>
<pdfrwt beam="1">  1       21 0.64838477E-02 0.41667270E+03</pdfrwt>
<pdfrwt beam="2">  1       21 0.15844210E+00 0.41667270E+03</pdfrwt>
<totfact> 0.40659166E+04</totfact>
</mgrwt>
</event>
<event>
 8    1  0.9529436E-006  0.3578297E+03  0.7546771E-02  0.1059447E+00
         21   -1    0    0  504  503  0.00000000000E+00  0.00000000000E+00  0.24624549596E+03  0.24624549596E+03  0.00000000000E+00 0.  1.
         21   -1    0    0  503  504 -0.00000000000E+00 -0.00000000000E+00 -0.12999433611E+03  0.12999433611E+03  0.00000000000E+00 0.  1.
         25    2    1    2    0    0  0.10086540863E+03  0.29355884030E+02  0.13499086195E+03  0.21185396550E+03  0.12499588514E+03 0.  0.
         25    2    1    2    0    0 -0.10086540863E+03 -0.29355884030E+02 -0.18739702092E+02  0.16438586657E+03  0.12504374478E+03 0.  0.
          5    1    3    3  501    0  0.35833770080E+01  0.28317194669E+02 -0.15327994737E+02  0.32737463667E+02  0.47000000000E+01 0.  1.
         -5    1    3    3    0  501  0.97282031625E+02  0.10386893616E+01  0.15031885668E+03  0.17911650183E+03  0.47000000000E+01 0.  1.
          5    1    4    4  502    0 -0.25088362013E+02 -0.65760333658E+02 -0.34817703195E+02  0.78665175567E+02  0.47000000000E+01 0. -1.
         -5    1    4    4    0  502 -0.75777046620E+02  0.36404449627E+02  0.16078001103E+02  0.85720691006E+02  0.47000000000E+01 0. -1.
<mgrwt>
<rscale>  0 0.35782968E+03</rscale>
<asrwt>0</asrwt>
<pdfrwt beam="1">  1       21 0.37883922E-01 0.35782968E+03</pdfrwt>
<pdfrwt beam="2">  1       21 0.19999129E-01 0.35782968E+03</pdfrwt>
<totfact> 0.14832649E+05</totfact>
</mgrwt>
</event>
<event>
 8    1  0.9529436E-006  0.2726860E+03  0.7546771E-02  0.1099752E+00
         21   -1    0    0  504  503  0.00000000000E+00  0.00000000000E+00  0.15663985052E+03  0.15663985052E+03  0.00000000000E+00 0.  1.
         21   -1    0    0  503  504 -0.00000000000E+00 -0.00000000000E+00 -0.11867612754E+03  0.11867612754E+03  0.00000000000E+00 0.  1.
         25    2    1    2    0    0 -0.46881712276E+02 -0.25478214470E+02  0.80121552283E+01  0.13614463986E+03  0.12499653585E+03 0.  0.
         25    2    1    2    0    0  0.46881712276E+02  0.25478214470E+02  0.29951567749E+02  0.13917133819E+03  0.12499812240E+03 0.  0.
          5    1    3    3  501    0 -0.27855754505E+02  0.49924361984E+02  0.99168271820E+01  0.58213558901E+02  0.47000000000E+01 0.  1.
         -5    1    3    3    0  501 -0.19025957772E+02 -0.75402576454E+02 -0.19046719538E+01  0.77931080964E+02  0.47000000000E+01 0.  1.
          5    1    4    4  502    0  0.35925711167E+02  0.46781202503E+02  0.70377216694E+02  0.91946616359E+02  0.47000000000E+01 0. -1.
         -5    1    4    4    0  502  0.10956001110E+02 -0.21302988033E+02 -0.40425648945E+02  0.47224721831E+02  0.47000000000E+01 0. -1.
<mgrwt>
<rscale>  0 0.27268598E+03</rscale>
<asrwt>0</asrwt>
<pdfrwt beam="1">  1       21 0.24098438E-01 0.27268598E+03</pdfrwt>
<pdfrwt beam="2">  1       21 0.18257866E-01 0.27268598E+03</pdfrwt>
<totfact> 0.43711930E+05</totfact>
</mgrwt>
</event>
<event>
 8    1  0.9529436E-006  0.3234490E+03  0.7546771E-02  0.1074073E+00
         21   -1    0    0  504  503  0.00000000000E+00  0.00000000000E+00  0.20493429532E+03  0.20493429532E+03  0.00000000000E+00 0. -1.
         21   -1    0    0  503  504 -0.00000000000E+00 -0.00000000000E+00 -0.12762533281E+03  0.12762533281E+03  0.00000000000E+00 0. -1.
         25    2    1    2    0    0 -0.51703787131E+02  0.45088253832E+02 -0.39802919655E+02  0.14804211001E+03  0.12500384668E+03 0.  0.
         25    2    1    2    0    0  0.51703787131E+02 -0.45088253832E+02  0.11711188216E+03  0.18451751813E+03  0.12500115726E+03 0.  0.
          5    1    3    3  501    0 -0.69031826500E+02  0.62455651283E+02 -0.64156231958E+02  0.11315570488E+03  0.47000000000E+01 0. -1.
         -5    1    3    3    0  501  0.17328039369E+02 -0.17367397452E+02  0.24353312304E+02  0.34886405128E+02  0.47000000000E+01 0. -1.
          5    1    4    4  502    0  0.64995093853E+02 -0.79495467865E+02  0.10061808534E+03  0.14384012213E+03  0.47000000000E+01 0.  1.
         -5    1    4    4    0  502 -0.13291306722E+02  0.34407214033E+02  0.16493796818E+02  0.40677396000E+02  0.47000000000E+01 0.  1.
<mgrwt>
<rscale>  0 0.32344896E+03</rscale>
<asrwt>0</asrwt>
<pdfrwt beam="1">  1       21 0.31528353E-01 0.32344896E+03</pdfrwt>
<pdfrwt beam="2">  1       21 0.19634667E-01 0.32344896E+03</pdfrwt>
<totfact> 0.22364314E+05</totfact>
</mgrwt>
</event>
<event>
 8    1  0.9529436E-006  0.2846234E+03  0.7546771E-02  0.1093190E+00
         21   -1    0    0  504  503  0.00000000000E+00  0.00000000000E+00  0.15803858715E+02  0.15803858715E+02  0.00000000000E+00 0. -1.
         21   -1    0    0  503  504 -0.00000000000E+00 -0.00000000000E+00 -0.12814988321E+04  0.12814988321E+04  0.00000000000E+00 0. -1.
         25    2    1    2    0    0 -0.63627705227E+02 -0.91597390798E+01 -0.53137287991E+03  0.54964887018E+03  0.12499742915E+03 0.  0.
         25    2    1    2    0    0  0.63627705227E+02  0.91597390798E+01 -0.73432209346E+03  0.74765382062E+03  0.12499965140E+03 0.  0.
          5    1    3    3  501    0 -0.47045605373E+02  0.17871621617E+02 -0.50664911725E+03  0.50916412075E+03  0.47000000000E+01 0. -1.
         -5    1    3    3    0  501 -0.16582099854E+02 -0.27031360697E+02 -0.24723762656E+02  0.40484749432E+02  0.47000000000E+01 0. -1.
          5    1    4    4  502    0  0.41561217457E+02  0.16437898270E+02 -0.71671895009E+03  0.71812650885E+03  0.47000000000E+01 0.  1.
         -5    1    4    4    0  502  0.22066487770E+02 -0.72781591898E+01 -0.17603143367E+02  0.29527311766E+02  0.47000000000E+01 0.  1.
<mgrwt>
<rscale>  0 0.28462345E+03</rscale>
<asrwt>0</asrwt>
<pdfrwt beam="1">  1       21 0.24313625E-02 0.28462345E+03</pdfrwt>
<pdfrwt beam="2">  1       21 0.19715370E+00 0.28462345E+03</pdfrwt>
<totfact> 0.11994678E+05</totfact>
</mgrwt>
</event>
<event>
 8    1  0.9529436E-006  0.5280061E+03  0.7546771E-02  0.1006717E+00
         21   -1    0    0  504  503  0.00000000000E+00  0.00000000000E+00  0.12788074093E+04  0.12788074093E+04  0.00000000000E+00 0.  1.
         21   -1    0    0  503  504 -0.00000000000E+00 -0.00000000000E+00 -0.54502038457E+02  0.54502038457E+02  0.00000000000E+00 0.  1.
         25    2    1    2    0    0  0.10281483986E+03 -0.19343655387E+03  0.80909245542E+03  0.84749262877E+03  0.12499825096E+03 0.  0.
         25    2    1    2    0    0 -0.10281483986E+03  0.19343655387E+03  0.41521291540E+03  0.48581681896E+03  0.12501049877E+03 0.  0.
          5    1    3    3  501    0  0.10726053640E+03 -0.11186364108E+03  0.65409651341E+03  0.67222216247E+03  0.47000000000E+01 0.  1.
         -5    1    3    3    0  501 -0.44456965413E+01 -0.81572912787E+02  0.15499594201E+03  0.17527046630E+03  0.47000000000E+01 0.  1.
          5    1    4    4  502    0 -0.57466951862E+02  0.17049601934E+03  0.22103502615E+03  0.28504370884E+03  0.47000000000E+01 0.  1.
         -5    1    4    4    0  502 -0.45347887997E+02  0.22940534522E+02  0.19417788925E+03  0.20077311011E+03  0.47000000000E+01 0.  1.
<mgrwt>
<rscale>  0 0.52800610E+03</rscale>
<asrwt>0</asrwt>
<pdfrwt beam="1">  1       21 0.19673958E+00 0.52800610E+03</pdfrwt>
<pdfrwt beam="2">  1       21 0.83849300E-02 0.52800610E+03</pdfrwt>
<totfact> 0.13333397E+04</totfact>
</mgrwt>
</event>
<event>
 8    1  0.9529436E-006  0.2623950E+03  0.7546771E-02  0.1105713E+00
         21   -1    0    0  504  503  0.00000000000E+00  0.00000000000E+00  0.34521581205E+02  0.34521581205E+02  0.00000000000E+00 0.  1.
         21   -1    0    0  503  504 -0.00000000000E+00 -0.00000000000E+00 -0.49860921689E+03  0.49860921689E+03  0.00000000000E+00 0.  1.
         25    2    1    2    0    0 -0.36061100396E+02  0.94824966431E+01 -0.20339624529E+03  0.24162999687E+03  0.12499880834E+03 0.  0.
         25    2    1    2    0    0  0.36061100396E+02 -0.94824966431E+01 -0.26069139039E+03  0.29150080122E+03  0.12498958110E+03 0.  0.
          5    1    3    3  501    0  0.31065284224E+02  0.43584496303E+02 -0.10154991860E+03  0.11488749353E+03  0.47000000000E+01 0.  1.
         -5    1    3    3    0  501 -0.67126384620E+02 -0.34101999660E+02 -0.10184632669E+03  0.12674250334E+03  0.47000000000E+01 0.  1.
          5    1    4    4  502    0 -0.11191781662E+01 -0.48386570550E+02 -0.36254391520E+02  0.60654626153E+02  0.47000000000E+01 0. -1.
         -5    1    4    4    0  502  0.37180278562E+02  0.38904073907E+02 -0.22443699887E+03  0.23084617507E+03  0.47000000000E+01 0. -1.
<mgrwt>
<rscale>  0 0.26239496E+03</rscale>
<asrwt>0</asrwt>
<pdfrwt beam="1">  1       21 0.53110128E-02 0.26239496E+03</pdfrwt>
<pdfrwt beam="2">  1       21 0.76709106E-01 0.26239496E+03</pdfrwt>
<totfact> 0.36079311E+05</totfact>
</mgrwt>
</event>
<event>
 8    1  0.9529436E-006  0.2662748E+03  0.7546771E-02  0.1103431E+00
         21   -1    0    0  504  503  0.00000000000E+00  0.00000000000E+00  0.50596828353E+03  0.50596828353E+03  0.00000000000E+00 0. -1.
         21   -1    0    0  503  504 -0.00000000000E+00 -0.00000000000E+00 -0.35032968738E+02  0.35032968738E+02  0.00000000000E+00 0. -1.
         25    2    1    2    0    0  0.17465044238E+02  0.39859740686E+02  0.26449075197E+03  0.29575764296E+03  0.12499359501E+03 0.  0.
         25    2    1    2    0    0 -0.17465044238E+02 -0.39859740686E+02  0.20644456282E+03  0.24524360931E+03  0.12502497226E+03 0.  0.
          5    1    3    3  501    0 -0.25608651663E+02  0.70667185384E+02  0.18875245171E+03  0.20322212517E+03  0.47000000000E+01 0.  1.
         -5    1    3    3    0  501  0.43073695901E+02 -0.30807444697E+02  0.75738300258E+02  0.92535517793E+02  0.47000000000E+01 0.  1.
          5    1    4    4  502    0 -0.37285890784E+01 -0.19035516935E+02 -0.13334597786E+02  0.24003224358E+02  0.47000000000E+01 0.  1.
         -5    1    4    4    0  502 -0.13736455160E+02 -0.20824223752E+02  0.21977916061E+03  0.22124038495E+03  0.47000000000E+01 0.  1.
<mgrwt>
<rscale>  0 0.26627483E+03</rscale>
<asrwt>0</asrwt>
<pdfrwt beam="1">  1       21 0.77841269E-01 0.26627483E+03</pdfrwt>
<pdfrwt beam="2">  1       21 0.53896879E-02 0.26627483E+03</pdfrwt>
<totfact> 0.34004888E+05</totfact>
</mgrwt>
</event>
<event>
 8    1  0.9529436E-006  0.3473050E+03  0.7546771E-02  0.1063727E+00
         21   -1    0    0  504  503  0.00000000000E+00  0.00000000000E+00  0.40912740870E+03  0.40912740870E+03  0.00000000000E+00 0.  1.
         21   -1    0    0  503  504 -0.00000000000E+00 -0.00000000000E+00 -0.73706120093E+02  0.73706120093E+02  0.00000000000E+00 0.  1.
         25    2    1    2    0    0  0.68844413530E+02 -0.79010997068E+02  0.84899483311E+02  0.18388810962E+03  0.12499849463E+03 0.  0.
         25    2    1    2    0    0 -0.68844413530E+02  0.79010997068E+02  0.25052180529E+03  0.29894541917E+03  0.12499959114E+03 0.  0.
          5    1    3    3  501    0  0.76672303947E+02 -0.30610929030E+02  0.10239892689E+03  0.13161801319E+03  0.47000000000E+01 0.  1.
         -5    1    3    3    0  501 -0.78278904172E+01 -0.48400068039E+02 -0.17499443579E+02  0.52270096424E+02  0.47000000000E+01 0.  1.
          5    1    4    4  502    0 -0.48674472739E+02  0.75832931393E+02  0.26053863635E+03  0.27572143335E+03  0.47000000000E+01 0.  1.
         -5    1    4    4    0  502 -0.20169940791E+02  0.31780656754E+01 -0.10016831056E+02  0.23223985819E+02  0.47000000000E+01 0.  1.
<mgrwt>
<rscale>  0 0.34730502E+03</rscale>
<asrwt>0</asrwt>
<pdfrwt beam="1">  1       21 0.62942677E-01 0.34730502E+03</pdfrwt>
<pdfrwt beam="2">  1       21 0.11339403E-01 0.34730502E+03</pdfrwt>
<totfact> 0.14521033E+05</totfact>
</mgrwt>
</event>
<event>
 8    1  0.9529436E-006  0.3435568E+03  0.7546771E-02  0.1065291E+00
         21   -1    0    0  504  503  0.00000000000E+00  0.00000000000E+00  0.30992212928E+03  0.30992212928E+03  0.00000000000E+00 0. -1.
         21   -1    0    0  503  504 -0.00000000000E+00 -0.00000000000E+00 -0.95210428542E+02  0.95210428542E+02  0.00000000000E+00 0. -1.
         25    2    1    2    0    0  0.10672104089E+03  0.33716534021E+02  0.15078514236E+03  0.22558311337E+03  0.12500158657E+03 0.  0.
         25    2    1    2    0    0 -0.10672104089E+03 -0.33716534021E+02  0.63926558387E+02  0.17954944446E+03  0.12500085161E+03 0.  0.
          5    1    3    3  501    0  0.62687312618E+02 -0.44877387345E+02  0.62475261835E+02  0.99342475304E+02  0.47000000000E+01 0. -1.
         -5    1    3    3    0  501  0.44033728272E+02  0.78593921365E+02  0.88309880520E+02  0.12624063806E+03  0.47000000000E+01 0. -1.
          5    1    4    4  502    0 -0.81034723636E+02  0.28470989414E+02  0.71263486584E+02  0.11170406525E+03  0.47000000000E+01 0. -1.
         -5    1    4    4    0  502 -0.25686317254E+02 -0.62187523434E+02 -0.73369281975E+01  0.67845379211E+02  0.47000000000E+01 0. -1.
<mgrwt>
<rscale>  0 0.34355680E+03</rscale>
<asrwt>0</asrwt>
<pdfrwt beam="1">  1       21 0.47680327E-01 0.34355680E+03</pdfrwt>
<pdfrwt beam="2">  1       21 0.14647758E-01 0.34355680E+03</pdfrwt>
<totfact> 0.16539400E+05</totfact>
</mgrwt>
</event>
<event>
 8    1  0.9529436E-006  0.3351446E+03  0.7546771E-02  0.1068883E+00
         21   -1    0    0  504  503  0.00000000000E+00  0.00000000000E+00  0.65416996546E+03  0.65416996546E+03  0.00000000000E+00 0.  1.
         21   -1    0    0  503  504 -0.00000000000E+00 -0.00000000000E+00 -0.42925348908E+02  0.42925348908E+02  0.00000000000E+00 0.  1.
         25    2    1    2    0    0 -0.11097279083E+03 -0.98578767990E+01  0.29190045884E+03  0.33651659462E+03  0.12500161018E+03 0.  0.
         25    2    1    2    0    0  0.11097279083E+03  0.98578767990E+01  0.31934415772E+03  0.36057871975E+03  0.12499673606E+03 0.  0.
          5    1    3    3  501    0 -0.38598132292E+02  0.53798227906E+02  0.15879597389E+03  0.17211134903E+03  0.47000000000E+01 0.  1.
         -5    1    3    3    0  501 -0.72374658539E+02 -0.63656104705E+02  0.13310448495E+03  0.16440524559E+03  0.47000000000E+01 0.  1.
          5    1    4    4  502    0 -0.17307831804E+02  0.16476097567E+02  0.11409796319E+02  0.26894168231E+02  0.47000000000E+01 0.  1.
         -5    1    4    4    0  502  0.12828062264E+03 -0.66182207684E+01  0.30793436140E+03  0.33368455152E+03  0.47000000000E+01 0.  1.
<mgrwt>
<rscale>  0 0.33514459E+03</rscale>
<asrwt>0</asrwt>
<pdfrwt beam="1">  1       21 0.10064153E+00 0.33514459E+03</pdfrwt>
<pdfrwt beam="2">  1       21 0.66039003E-02 0.33514459E+03</pdfrwt>
<totfact> 0.12921471E+05</totfact>
</mgrwt>
</event>
<event>
 8    1  0.9529436E-006  0.2651953E+03  0.7546771E-02  0.1104061E+00
         21   -1    0    0  504  503  0.00000000000E+00  0.00000000000E+00  0.10649723366E+04  0.10649723366E+04  0.00000000000E+00 0. -1.
         21   -1    0    0  503  504 -0.00000000000E+00 -0.00000000000E+00 -0.16509473540E+02  0.16509473540E+02  0.00000000000E+00 0. -1.
         25    2    1    2    0    0 -0.26488989767E+02  0.66046420760E+01  0.66615364069E+03  0.67832972157E+03  0.12500100116E+03 0.  0.
         25    2    1    2    0    0  0.26488989767E+02 -0.66046420760E+01  0.38230922238E+03  0.40315208857E+03  0.12500390846E+03 0.  0.
          5    1    3    3  501    0  0.17392461813E+02  0.32540132385E+02  0.64145075806E+02  0.74148760567E+02  0.47000000000E+01 0. -1.
         -5    1    3    3    0  501 -0.43881451580E+02 -0.25935490309E+02  0.60200856488E+03  0.60418096101E+03  0.47000000000E+01 0. -1.
          5    1    4    4  502    0  0.53931407401E+01  0.50696172444E+02  0.82067811784E+02  0.96728504581E+02  0.47000000000E+01 0. -1.
         -5    1    4    4    0  502  0.21095849027E+02 -0.57300814520E+02  0.30024141059E+03  0.30642358399E+03  0.47000000000E+01 0. -1.
<mgrwt>
<rscale>  0 0.26519527E+03</rscale>
<asrwt>0</asrwt>
<pdfrwt beam="1">  1       21 0.16384184E+00 0.26519527E+03</pdfrwt>
<pdfrwt beam="2">  1       21 0.25399198E-02 0.26519527E+03</pdfrwt>
<totfact> 0.19097462E+05</totfact>
</mgrwt>
</event>
<event>
 8    1  0.9529436E-006  0.2693864E+03  0.7546771E-02  0.1101631E+00
         21   -1    0    0  504  503  0.00000000000E+00  0.00000000000E+00  0.13893965494E+03  0.13893965494E+03  0.00000000000E+00 0. -1.
         21   -1    0    0  503  504 -0.00000000000E+00 -0.00000000000E+00 -0.13057656805E+03  0.13057656805E+03  0.00000000000E+00 0. -1.
         25    2    1    2    0    0  0.36021613685E+02  0.11862640167E+02 -0.28676860838E+02  0.13373763288E+03  0.12500045287E+03 0.  0.
         25    2    1    2    0    0 -0.36021613685E+02 -0.11862640167E+02  0.37039947725E+02  0.13577859011E+03  0.12500235566E+03 0.  0.
          5    1    3    3  501    0 -0.37774078198E+02 -0.27020482032E+02 -0.52805002608E+01  0.46978304737E+02  0.47000000000E+01 0. -1.
         -5    1    3    3    0  501  0.73795691883E+02  0.38883122199E+02 -0.23396360577E+02  0.86759328148E+02  0.47000000000E+01 0. -1.
          5    1    4    4  502    0  0.13457419495E+02  0.44437058713E+02 -0.92274844250E+01  0.47570902822E+02  0.47000000000E+01 0. -1.
         -5    1    4    4    0  502 -0.49479033179E+02 -0.56299698880E+02  0.46267432150E+02  0.88207687285E+02  0.47000000000E+01 0. -1.
<mgrwt>
<rscale>  0 0.26938644E+03</rscale>
<asrwt>0</asrwt>
<pdfrwt beam="1">  1       21 0.21375331E-01 0.26938644E+03</pdfrwt>
<pdfrwt beam="2">  1       21 0.20088703E-01 0.26938644E+03</pdfrwt>
<totfact> 0.45950062E+05</totfact>
</mgrwt>
</event>
<event>
 8    1  0.9529436E-006  0.3225220E+03  0.7546771E-02  0.1074494E+00
         21   -1    0    0  504  503  0.00000000000E+00  0.00000000000E+00  0.13167843162E+04  0.13167843162E+04  0.00000000000E+00 0.  1.
         21   -1    0    0  503  504 -0.00000000000E+00 -0.00000000000E+00 -0.19748953673E+02  0.19748953673E+02  0.00000000000E+00 0.  1.
         25    2    1    2    0    0  0.84462428983E+02 -0.54697919096E+02  0.71474394932E+03  0.73253631862E+03  0.12499912300E+03 0.  0.
         25    2    1    2    0    0 -0.84462428983E+02  0.54697919096E+02  0.58229141325E+03  0.60399695129E+03  0.12499305166E+03 0.  0.
          5    1    3    3  501    0  0.11388378792E+03 -0.59330972226E+02  0.53045242332E+03  0.54579441626E+03  0.47000000000E+01 0. -1.
         -5    1    3    3    0  501 -0.29421358932E+02  0.46330531302E+01  0.18429152599E+03  0.18674190236E+03  0.47000000000E+01 0. -1.
          5    1    4    4  502    0 -0.10215832292E+03  0.32429399587E+02  0.27237555720E+03  0.29274310079E+03  0.47000000000E+01 0.  1.
         -5    1    4    4    0  502  0.17695893935E+02  0.22268519509E+02  0.30991585604E+03  0.31125385050E+03  0.47000000000E+01 0.  1.
<mgrwt>
<rscale>  0 0.32252201E+03</rscale>
<asrwt>0</asrwt>
<pdfrwt beam="1">  1       21 0.20258213E+00 0.32252201E+03</pdfrwt>
<pdfrwt beam="2">  1       21 0.30383016E-02 0.32252201E+03</pdfrwt>
<totfact> 0.75165886E+04</totfact>
</mgrwt>
</event>
<event>
 8    1  0.9529436E-006  0.3798264E+03  0.7546771E-02  0.1050998E+00
         21   -1    0    0  504  503  0.00000000000E+00  0.00000000000E+00  0.40793393778E+03  0.40793393778E+03  0.00000000000E+00 0.  1.
         21   -1    0    0  503  504 -0.00000000000E+00 -0.00000000000E+00 -0.88413904613E+02  0.88413904613E+02  0.00000000000E+00 0.  1.
         25    2    1    2    0    0  0.60864248232E+02  0.39446564881E+02 -0.12434179766E+01  0.14453468437E+03  0.12501296215E+03 0.  0.
         25    2    1    2    0    0 -0.60864248232E+02 -0.39446564881E+02  0.32076345115E+03  0.35181315802E+03  0.12499127319E+03 0.  0.
          5    1    3    3  501    0 -0.37540019448E+02  0.22432941304E+02 -0.62967136028E+01  0.44432291387E+02  0.47000000000E+01 0. -1.
         -5    1    3    3    0  501  0.98404267680E+02  0.17013623577E+02  0.50532956263E+01  0.10010239299E+03  0.47000000000E+01 0. -1.
          5    1    4    4  502    0 -0.69607306721E+02  0.25524719145E+01  0.29132387312E+03  0.29957199688E+03  0.47000000000E+01 0.  1.
         -5    1    4    4    0  502  0.87430584894E+01 -0.41999036796E+02  0.29439578021E+02  0.52241161143E+02  0.47000000000E+01 0.  1.
<mgrwt>
<rscale>  0 0.37982645E+03</rscale>
<asrwt>0</asrwt>
<pdfrwt beam="1">  1       21 0.62759066E-01 0.37982645E+03</pdfrwt>
<pdfrwt beam="2">  1       21 0.13602139E-01 0.37982645E+03</pdfrwt>
<totfact> 0.10421585E+05</totfact>
</mgrwt>
</event>
<event>
 8    1  0.9529436E-006  0.3419850E+03  0.7546771E-02  0.1065954E+00
         21   -1    0    0  504  503  0.00000000000E+00  0.00000000000E+00  0.30552181348E+03  0.30552181348E+03  0.00000000000E+00 0. -1.
         21   -1    0    0  503  504 -0.00000000000E+00 -0.00000000000E+00 -0.95699964524E+02  0.95699964524E+02  0.00000000000E+00 0. -1.
         25    2    1    2    0    0  0.10515321033E+03  0.50138602293E+02  0.97433887312E+02  0.19669479830E+03  0.12499761677E+03 0.  0.
         25    2    1    2    0    0 -0.10515321033E+03 -0.50138602293E+02  0.11238796164E+03  0.20452697971E+03  0.12501661659E+03 0.  0.
          5    1    3    3  501    0  0.66231951857E+02  0.37524448055E+02  0.12549991817E+03  0.14685732910E+03  0.47000000000E+01 0.  1.
         -5    1    3    3    0  501  0.38921258469E+02  0.12614154238E+02 -0.28066030859E+02  0.49837469198E+02  0.47000000000E+01 0.  1.
          5    1    4    4  502    0 -0.11730997457E+03 -0.67723684694E+02  0.60920865134E+02  0.14859868577E+03  0.47000000000E+01 0. -1.
         -5    1    4    4    0  502  0.12156764249E+02  0.17585082401E+02  0.51467096508E+02  0.55928293940E+02  0.47000000000E+01 0. -1.
<mgrwt>
<rscale>  0 0.34198495E+03</rscale>
<asrwt>0</asrwt>
<pdfrwt beam="1">  1       21 0.47003355E-01 0.34198495E+03</pdfrwt>
<pdfrwt beam="2">  1       21 0.14723072E-01 0.34198495E+03</pdfrwt>
<totfact> 0.16888347E+05</totfact>
</mgrwt>
</event>
<event>
 8    1  0.9529436E-006  0.2657108E+03  0.7546771E-02  0.1103760E+00
         21   -1    0    0  504  503  0.00000000000E+00  0.00000000000E+00  0.29880195372E+02  0.29880195372E+02  0.00000000000E+00 0.  1.
         21   -1    0    0  503  504 -0.00000000000E+00 -0.00000000000E+00 -0.59071071256E+03  0.59071071256E+03  0.00000000000E+00 0.  1.
         25    2    1    2    0    0 -0.41213687997E+01 -0.38868562604E+02 -0.33253336898E+03  0.35739379782E+03  0.12499653753E+03 0.  0.
         25    2    1    2    0    0  0.41213687997E+01  0.38868562604E+02 -0.22829714820E+03  0.26319711011E+03  0.12500152020E+03 0.  0.
          5    1    3    3  501    0 -0.55394536554E+02 -0.40004537673E+02 -0.11503072379E+03  0.13387708964E+03  0.47000000000E+01 0.  1.
         -5    1    3    3    0  501  0.51273167754E+02  0.11359750686E+01 -0.21750264519E+03  0.22351670818E+03  0.47000000000E+01 0.  1.
          5    1    4    4  502    0 -0.36598851131E+02  0.13868141829E+02 -0.11379093582E+02  0.41028953590E+02  0.47000000000E+01 0. -1.
         -5    1    4    4    0  502  0.40720219931E+02  0.25000420775E+02 -0.21691805462E+03  0.22216815652E+03  0.47000000000E+01 0. -1.
<mgrwt>
<rscale>  0 0.26571076E+03</rscale>
<asrwt>0</asrwt>
<pdfrwt beam="1">  1       21 0.45969535E-02 0.26571076E+03</pdfrwt>
<pdfrwt beam="2">  1       21 0.90878565E-01 0.26571076E+03</pdfrwt>
<totfact> 0.31234017E+05</totfact>
</mgrwt>
</event>
<event>
 8    1  0.9529436E-006  0.4631981E+03  0.7546771E-02  0.1023858E+00
         21   -1    0    0  504  503  0.00000000000E+00  0.00000000000E+00  0.12529659267E+03  0.12529659267E+03  0.00000000000E+00 0. -1.
         21   -1    0    0  503  504 -0.00000000000E+00 -0.00000000000E+00 -0.42808917435E+03  0.42808917435E+03  0.00000000000E+00 0. -1.
         25    2    1    2    0    0  0.10722075236E+03  0.16240334855E+03 -0.13716929216E+03  0.26891026452E+03  0.12500471310E+03 0.  0.
         25    2    1    2    0    0 -0.10722075236E+03 -0.16240334855E+03 -0.16562328952E+03  0.28447550249E+03  0.12499640047E+03 0.  0.
          5    1    3    3  501    0  0.84454937706E+02  0.13321937250E+03 -0.37092789482E+02  0.16210491277E+03  0.47000000000E+01 0.  1.
         -5    1    3    3    0  501  0.22765814649E+02  0.29183976057E+02 -0.10007650268E+03  0.10680535176E+03  0.47000000000E+01 0.  1.
          5    1    4    4  502    0 -0.42116410641E+02 -0.14176846697E+03 -0.62336166692E+02  0.16056144603E+03  0.47000000000E+01 0.  1.
         -5    1    4    4    0  502 -0.65104341714E+02 -0.20634881582E+02 -0.10328712282E+03  0.12391405646E+03  0.47000000000E+01 0.  1.
<mgrwt>
<rscale>  0 0.46319808E+03</rscale>
<asrwt>0</asrwt>
<pdfrwt beam="1">  1       21 0.19276399E-01 0.46319808E+03</pdfrwt>
<pdfrwt beam="2">  1       21 0.65859873E-01 0.46319808E+03</pdfrwt>
<totfact> 0.48010151E+04</totfact>
</mgrwt>
</event>
<event>
 8    1  0.9529436E-006  0.2706590E+03  0.7546771E-02  0.1100903E+00
         21   -1    0    0  504  503  0.00000000000E+00  0.00000000000E+00  0.36970756568E+02  0.36970756568E+02  0.00000000000E+00 0.  1.
         21   -1    0    0  503  504 -0.00000000000E+00 -0.00000000000E+00 -0.49536642069E+03  0.49536642069E+03  0.00000000000E+00 0.  1.
         25    2    1    2    0    0 -0.33005545158E+02  0.23074619769E+02 -0.29344507554E+03  0.32149021169E+03  0.12499655901E+03 0.  0.
         25    2    1    2    0    0  0.33005545158E+02 -0.23074619769E+02 -0.16495058858E+03  0.21084696557E+03  0.12500376845E+03 0.  0.
          5    1    3    3  501    0 -0.13327079640E+01  0.77765845932E+01 -0.28482340568E+03  0.28497142629E+03  0.47000000000E+01 0.  1.
         -5    1    3    3    0  501 -0.31672837194E+02  0.15298035176E+02 -0.86216698647E+01  0.36518785404E+02  0.47000000000E+01 0.  1.
          5    1    4    4  502    0 -0.26507481209E+02  0.13012644541E+02  0.19402001092E+01  0.29963809077E+02  0.47000000000E+01 0. -1.
         -5    1    4    4    0  502  0.59513026366E+02 -0.36087264309E+02 -0.16689078869E+03  0.18088315649E+03  0.47000000000E+01 0. -1.
<mgrwt>
<rscale>  0 0.27065898E+03</rscale>
<asrwt>0</asrwt>
<pdfrwt beam="1">  1       21 0.56878089E-02 0.27065898E+03</pdfrwt>
<pdfrwt beam="2">  1       21 0.76210216E-01 0.27065898E+03</pdfrwt>
<totfact> 0.32493977E+05</totfact>
</mgrwt>
</event>
<event>
 8    1  0.9529436E-006  0.2582759E+03  0.7546771E-02  0.1108184E+00
         21   -1    0    0  504  503  0.00000000000E+00  0.00000000000E+00  0.11885411765E+03  0.11885411765E+03  0.00000000000E+00 0. -1.
         21   -1    0    0  503  504 -0.00000000000E+00 -0.00000000000E+00 -0.14031158446E+03  0.14031158446E+03  0.00000000000E+00 0. -1.
         25    2    1    2    0    0 -0.26105688733E+02  0.18078218378E+02 -0.17338290654E+02  0.13012444541E+03  0.12499370387E+03 0.  0.
         25    2    1    2    0    0  0.26105688733E+02 -0.18078218378E+02 -0.41191761617E+01  0.12904125671E+03  0.12500539731E+03 0.  0.
          5    1    3    3  501    0 -0.55956683165E+02  0.26772633163E+02 -0.53608664471E+02  0.82121271201E+02  0.47000000000E+01 0.  1.
         -5    1    3    3    0  501  0.29850994432E+02 -0.86944147850E+01  0.36270373817E+02  0.48003174207E+02  0.47000000000E+01 0.  1.
          5    1    4    4  502    0 -0.11762194062E+02 -0.23941976642E+02  0.53336370007E+02  0.59819945003E+02  0.47000000000E+01 0. -1.
         -5    1    4    4    0  502  0.37867882794E+02  0.58637582638E+01 -0.57455546169E+02  0.69221311703E+02  0.47000000000E+01 0. -1.
<mgrwt>
<rscale>  0 0.25827590E+03</rscale>
<asrwt>0</asrwt>
<pdfrwt beam="1">  1       21 0.18285249E-01 0.25827590E+03</pdfrwt>
<pdfrwt beam="2">  1       21 0.21586397E-01 0.25827590E+03</pdfrwt>
<totfact> 0.53898492E+05</totfact>
</mgrwt>
</event>
<event>
 8    1  0.9529436E-006  0.3485169E+03  0.7546771E-02  0.1063225E+00
         21   -1    0    0  504  503  0.00000000000E+00  0.00000000000E+00  0.32662648656E+03  0.32662648656E+03  0.00000000000E+00 0.  1.
         21   -1    0    0  503  504 -0.00000000000E+00 -0.00000000000E+00 -0.92968616304E+02  0.92968616304E+02  0.00000000000E+00 0.  1.
         25    2    1    2    0    0  0.22233521024E+02  0.59290168229E+02  0.24153731391E+03  0.27924025164E+03  0.12500076247E+03 0.  0.
         25    2    1    2    0    0 -0.22233521024E+02 -0.59290168229E+02 -0.78794436588E+01  0.14035485122E+03  0.12501098001E+03 0.  0.
          5    1    3    3  501    0  0.22337803413E+02 -0.87962381653E+01  0.19524845124E+03  0.19677499582E+03  0.47000000000E+01 0.  1.
         -5    1    3    3    0  501 -0.10428238822E+00  0.68086406394E+02  0.46288862672E+02  0.82465255823E+02  0.47000000000E+01 0.  1.
          5    1    4    4  502    0 -0.39497820991E+02  0.13263958311E+02 -0.40974898660E+02  0.58626297626E+02  0.47000000000E+01 0.  1.
         -5    1    4    4    0  502  0.17264299967E+02 -0.72554126540E+02  0.33095455001E+02  0.81728553597E+02  0.47000000000E+01 0.  1.
<mgrwt>
<rscale>  0 0.34851693E+03</rscale>
<asrwt>0</asrwt>
<pdfrwt beam="1">  1       21 0.50250228E-01 0.34851693E+03</pdfrwt>
<pdfrwt beam="2">  1       21 0.14302864E-01 0.34851693E+03</pdfrwt>
<totfact> 0.15453970E+05</totfact>
</mgrwt>
</event>
<event>
 8    1  0.9529436E-006  0.2821876E+03  0.7546771E-02  0.1094500E+00
         21   -1    0    0  504  503  0.00000000000E+00  0.00000000000E+00  0.40655317869E+03  0.40655317869E+03  0.00000000000E+00 0.  1.
         21   -1    0    0  503  504 -0.00000000000E+00 -0.00000000000E+00 -0.48966426713E+02  0.48966426713E+02  0.00000000000E+00 0.  1.
         25    2    1    2    0    0 -0.62161524449E+02  0.15751497837E+02  0.15772436390E+03  0.21122067457E+03  0.12500013438E+03 0.  0.
         25    2    1    2    0    0  0.62161524449E+02 -0.15751497837E+02  0.19986238808E+03  0.24429893083E+03  0.12499931451E+03 0.  0.
          5    1    3    3  501    0 -0.78443410187E+02  0.12096183465E+02  0.34313169869E+02  0.86597747561E+02  0.47000000000E+01 0.  1.
         -5    1    3    3    0  501  0.16281885738E+02  0.36553143725E+01  0.12341119403E+03  0.12462292701E+03  0.47000000000E+01 0.  1.
          5    1    4    4  502    0 -0.37796570395E+02 -0.90203886803E+01  0.43322094432E+02  0.58385289342E+02  0.47000000000E+01 0. -1.
         -5    1    4    4    0  502  0.99958094844E+02 -0.67311091570E+01  0.15654029365E+03  0.18591364149E+03  0.47000000000E+01 0. -1.
<mgrwt>
<rscale>  0 0.28218757E+03</rscale>
<asrwt>0</asrwt>
<pdfrwt beam="1">  1       21 0.62546640E-01 0.28218757E+03</pdfrwt>
<pdfrwt beam="2">  1       21 0.75332967E-02 0.28218757E+03</pdfrwt>
<totfact> 0.30876547E+05</totfact>
</mgrwt>
</event>
<event>
 8    1  0.9529436E-006  0.3075167E+03  0.7546771E-02  0.1081542E+00
         21   -1    0    0  504  503  0.00000000000E+00  0.00000000000E+00  0.28115545515E+03  0.28115545515E+03  0.00000000000E+00 0.  1.
         21   -1    0    0  503  504 -0.00000000000E+00 -0.00000000000E+00 -0.84087402961E+02  0.84087402961E+02  0.00000000000E+00 0.  1.
         25    2    1    2    0    0  0.69397922051E+02  0.43997164346E+02  0.14079057752E+03  0.20542689264E+03  0.12500559766E+03 0.  0.
         25    2    1    2    0    0 -0.69397922051E+02 -0.43997164346E+02  0.56277474664E+02  0.15981596546E+03  0.12498866591E+03 0.  0.
          5    1    3    3  501    0 -0.18857494189E+02  0.45728316061E+01 -0.12925804549E+02  0.23784076589E+02  0.47000000000E+01 0.  1.
         -5    1    3    3    0  501  0.88255416240E+02  0.39424332740E+02  0.15371638207E+03  0.18164281605E+03  0.47000000000E+01 0.  1.
          5    1    4    4  502    0 -0.24464784688E+02  0.42914672270E+02  0.31509368375E+02  0.58780312021E+02  0.47000000000E+01 0. -1.
         -5    1    4    4    0  502 -0.44933137363E+02 -0.86911836616E+02  0.24768106289E+02  0.10103565344E+03  0.47000000000E+01 0. -1.
<mgrwt>
<rscale>  0 0.30751671E+03</rscale>
<asrwt>0</asrwt>
<pdfrwt beam="1">  1       21 0.43254685E-01 0.30751671E+03</pdfrwt>
<pdfrwt beam="2">  1       21 0.12936524E-01 0.30751671E+03</pdfrwt>
<totfact> 0.25620426E+05</totfact>
</mgrwt>
</event>
<event>
 8    1  0.9529436E-006  0.2697306E+03  0.7546771E-02  0.1101434E+00
         21   -1    0    0  504  503  0.00000000000E+00  0.00000000000E+00  0.30465441720E+03  0.30465441720E+03  0.00000000000E+00 0.  1.
         21   -1    0    0  503  504 -0.00000000000E+00 -0.00000000000E+00 -0.59702552709E+02  0.59702552709E+02  0.00000000000E+00 0.  1.
         25    2    1    2    0    0  0.22101774171E+02  0.35850929584E+02  0.16042012447E+03  0.20768431268E+03  0.12499751927E+03 0.  0.
         25    2    1    2    0    0 -0.22101774171E+02 -0.35850929584E+02  0.84531740026E+02  0.15667265724E+03  0.12500771528E+03 0.  0.
          5    1    3    3  501    0  0.40162589556E+01 -0.30391560564E+02  0.12781582013E+03  0.13152471694E+03  0.47000000000E+01 0.  1.
         -5    1    3    3    0  501  0.18085515216E+02  0.66242490148E+02  0.32604304335E+02  0.76159595736E+02  0.47000000000E+01 0.  1.
          5    1    4    4  502    0 -0.33651918897E+02 -0.18096208769E+02  0.11385973726E+03  0.12019173926E+03  0.47000000000E+01 0.  1.
         -5    1    4    4    0  502  0.11550144726E+02 -0.17754720815E+02 -0.29327997237E+02  0.36480917975E+02  0.47000000000E+01 0.  1.
<mgrwt>
<rscale>  0 0.26973058E+03</rscale>
<asrwt>0</asrwt>
<pdfrwt beam="1">  1       21 0.46869909E-01 0.26973058E+03</pdfrwt>
<pdfrwt beam="2">  1       21 0.91850083E-02 0.26973058E+03</pdfrwt>
<totfact> 0.40389565E+05</totfact>
</mgrwt>
</event>
<event>
 8    1  0.9529436E-006  0.2861718E+03  0.7546771E-02  0.1092365E+00
         21   -1    0    0  504  503  0.00000000000E+00  0.00000000000E+00  0.47941559275E+02  0.47941559275E+02  0.00000000000E+00 0.  1.
         21   -1    0    0  503  504 -0.00000000000E+00 -0.00000000000E+00 -0.42705281145E+03  0.42705281145E+03  0.00000000000E+00 0.  1.
         25    2    1    2    0    0  0.41980450004E+02 -0.47229456536E+02 -0.14099132345E+03  0.19873744258E+03  0.12500015218E+03 0.  0.
         25    2    1    2    0    0 -0.41980450004E+02  0.47229456536E+02 -0.23811992873E+03  0.27625692815E+03  0.12499524050E+03 0.  0.
          5    1    3    3  501    0  0.73186894301E+02 -0.27729754220E+02 -0.14134990309E+03  0.16163893674E+03  0.47000000000E+01 0. -1.
         -5    1    3    3    0  501 -0.31206444296E+02 -0.19499702315E+02  0.35857963985E+00  0.37098505837E+02  0.47000000000E+01 0. -1.
          5    1    4    4  502    0 -0.30464208811E+02 -0.22275966191E+02 -0.18236508423E+03  0.18628848766E+03  0.47000000000E+01 0.  1.
         -5    1    4    4    0  502 -0.11516241194E+02  0.69505422726E+02 -0.55754844499E+02  0.89968440493E+02  0.47000000000E+01 0.  1.
<mgrwt>
<rscale>  0 0.28617182E+03</rscale>
<asrwt>0</asrwt>
<pdfrwt beam="1">  1       21 0.73756246E-02 0.28617182E+03</pdfrwt>
<pdfrwt beam="2">  1       21 0.65700431E-01 0.28617182E+03</pdfrwt>
<totfact> 0.28739068E+05</totfact>
</mgrwt>
</event>
<event>
 8    1  0.9529436E-006  0.3339361E+03  0.7546771E-02  0.1069408E+00
         21   -1    0    0  504  503  0.00000000000E+00  0.00000000000E+00  0.19854149169E+02  0.19854149169E+02  0.00000000000E+00 0. -1.
         21   -1    0    0  503  504 -0.00000000000E+00 -0.00000000000E+00 -0.14041567466E+04  0.14041567466E+04  0.00000000000E+00 0. -1.
         25    2    1    2    0    0 -0.68227422803E+02  0.84229075845E+02 -0.78776301797E+03  0.80495133576E+03  0.12500624797E+03 0.  0.
         25    2    1    2    0    0  0.68227422803E+02 -0.84229075845E+02 -0.59653957951E+03  0.61905956005E+03  0.12500300208E+03 0.  0.
          5    1    3    3  501    0  0.34447442472E+00  0.94093649119E+02 -0.39353802314E+03  0.40465787911E+03  0.47000000000E+01 0. -1.
         -5    1    3    3    0  501 -0.68571897227E+02 -0.98645732744E+01 -0.39422499483E+03  0.40029345665E+03  0.47000000000E+01 0. -1.
          5    1    4    4  502    0 -0.34309673169E+02 -0.35546117282E+02 -0.23113018193E+03  0.23639782386E+03  0.47000000000E+01 0. -1.
         -5    1    4    4    0  502  0.10253709597E+03 -0.48682958563E+02 -0.36540939759E+03  0.38266173620E+03  0.47000000000E+01 0. -1.
<mgrwt>
<rscale>  0 0.33393615E+03</rscale>
<asrwt>0</asrwt>
<pdfrwt beam="1">  1       21 0.30544844E-02 0.33393615E+03</pdfrwt>
<pdfrwt beam="2">  1       21 0.21602412E+00 0.33393615E+03</pdfrwt>
<totfact> 0.60760150E+04</totfact>
</mgrwt>
</event>
<event>
 8    1  0.9529436E-006  0.3149435E+03  0.7546771E-02  0.1078000E+00
         21   -1    0    0  504  503  0.00000000000E+00  0.00000000000E+00  0.15219010477E+03  0.15219010477E+03  0.00000000000E+00 0.  1.
         21   -1    0    0  503  504 -0.00000000000E+00 -0.00000000000E+00 -0.16293664092E+03  0.16293664092E+03  0.00000000000E+00 0.  1.
         25    2    1    2    0    0  0.45655036355E+02 -0.75274787469E+02 -0.43091279795E+02  0.15884852292E+03  0.12500127546E+03 0.  0.
         25    2    1    2    0    0 -0.45655036355E+02  0.75274787469E+02  0.32344743643E+02  0.15627822277E+03  0.12500409793E+03 0.  0.
          5    1    3    3  501    0  0.31882815037E+02 -0.80523199295E+02 -0.80521062529E+02  0.11834792364E+03  0.47000000000E+01 0.  1.
         -5    1    3    3    0  501  0.13772221318E+02  0.52484118261E+01  0.37429782734E+02  0.40500599282E+02  0.47000000000E+01 0.  1.
          5    1    4    4  502    0  0.28304473213E+02  0.50233429923E+02 -0.21057117412E+02  0.61563242925E+02  0.47000000000E+01 0. -1.
         -5    1    4    4    0  502 -0.73959509568E+02  0.25041357546E+02  0.53401861055E+02  0.94714979847E+02  0.47000000000E+01 0. -1.
<mgrwt>
<rscale>  0 0.31494345E+03</rscale>
<asrwt>0</asrwt>
<pdfrwt beam="1">  1       21 0.23413862E-01 0.31494345E+03</pdfrwt>
<pdfrwt beam="2">  1       21 0.25067176E-01 0.31494345E+03</pdfrwt>
<totfact> 0.25107676E+05</totfact>
</mgrwt>
</event>
<event>
 8    1  0.9529436E-006  0.2599543E+03  0.7546771E-02  0.1107171E+00
         21   -1    0    0  504  503  0.00000000000E+00  0.00000000000E+00  0.36143788994E+03  0.36143788994E+03  0.00000000000E+00 0. -1.
         21   -1    0    0  503  504 -0.00000000000E+00 -0.00000000000E+00 -0.46741247171E+02  0.46741247171E+02  0.00000000000E+00 0. -1.
         25    2    1    2    0    0  0.90560134053E+01 -0.33778585712E+02  0.16798404995E+03  0.21229019988E+03  0.12500193477E+03 0.  0.
         25    2    1    2    0    0 -0.90560134053E+01  0.33778585712E+02  0.14671259282E+03  0.19588893723E+03  0.12499954642E+03 0.  0.
          5    1    3    3  501    0 -0.35275562336E+02  0.33542411194E+02  0.58388417912E+02  0.76162694235E+02  0.47000000000E+01 0. -1.
         -5    1    3    3    0  501  0.44331575741E+02 -0.67320996906E+02  0.10959563204E+03  0.13612750565E+03  0.47000000000E+01 0. -1.
          5    1    4    4  502    0  0.39885014391E+02 -0.26463055035E+02  0.33771323296E+02  0.58768188094E+02  0.47000000000E+01 0. -1.
         -5    1    4    4    0  502 -0.48941027796E+02  0.60241640746E+02  0.11294126953E+03  0.13712074914E+03  0.47000000000E+01 0. -1.
<mgrwt>
<rscale>  0 0.25995429E+03</rscale>
<asrwt>0</asrwt>
<pdfrwt beam="1">  1       21 0.55605827E-01 0.25995429E+03</pdfrwt>
<pdfrwt beam="2">  1       21 0.71909613E-02 0.25995429E+03</pdfrwt>
<totfact> 0.43365173E+05</totfact>
</mgrwt>
</event>
<event>
 8    1  0.9529436E-006  0.2703820E+03  0.7546771E-02  0.1101061E+00
         21   -1    0    0  504  503  0.00000000000E+00  0.00000000000E+00  0.14617854951E+03  0.14617854951E+03  0.00000000000E+00 0. -1.
         21   -1    0    0  503  504 -0.00000000000E+00 -0.00000000000E+00 -0.12502930958E+03  0.12502930958E+03  0.00000000000E+00 0. -1.
         25    2    1    2    0    0 -0.13055390668E+02  0.49783929644E+02  0.12182392374E+02  0.13572893777E+03  0.12500020395E+03 0.  0.
         25    2    1    2    0    0  0.13055390668E+02 -0.49783929644E+02  0.89668475576E+01  0.13547892132E+03  0.12500100356E+03 0.  0.
          5    1    3    3  501    0  0.25392809521E+02  0.33223732756E+01  0.55516418244E+02  0.61318803268E+02  0.47000000000E+01 0.  1.
         -5    1    3    3    0  501 -0.38448200189E+02  0.46461556369E+02 -0.43334025870E+02  0.74410134499E+02  0.47000000000E+01 0.  1.
          5    1    4    4  502    0 -0.11785425826E+02 -0.25285928734E+00 -0.51668520063E+02  0.53204193117E+02  0.47000000000E+01 0. -1.
         -5    1    4    4    0  502  0.24840816494E+02 -0.49531070357E+02  0.60635367620E+02  0.82274728205E+02  0.47000000000E+01 0. -1.
<mgrwt>
<rscale>  0 0.27038198E+03</rscale>
<asrwt>0</asrwt>
<pdfrwt beam="1">  1       21 0.22489008E-01 0.27038198E+03</pdfrwt>
<pdfrwt beam="2">  1       21 0.19235278E-01 0.27038198E+03</pdfrwt>
<totfact> 0.45264406E+05</totfact>
</mgrwt>
</event>
<event>
 8    1  0.9529436E-006  0.4409592E+03  0.7546771E-02  0.1030453E+00
         21   -1    0    0  504  503  0.00000000000E+00  0.00000000000E+00  0.37255878688E+03  0.37255878688E+03  0.00000000000E+00 0. -1.
         21   -1    0    0  503  504 -0.00000000000E+00 -0.00000000000E+00 -0.13047942701E+03  0.13047942701E+03  0.00000000000E+00 0. -1.
         25    2    1    2    0    0  0.95766540574E+02  0.15081812843E+03  0.15834174072E+03  0.26946902301E+03  0.12499643735E+03 0.  0.
         25    2    1    2    0    0 -0.95766540574E+02 -0.15081812843E+03  0.83737619145E+02  0.23356919089E+03  0.12500095965E+03 0.  0.
          5    1    3    3  501    0  0.41710915566E+02 -0.14214562947E+02  0.32192263039E+02  0.54774867200E+02  0.47000000000E+01 0. -1.
         -5    1    3    3    0  501  0.54055625008E+02  0.16503269138E+03  0.12614947768E+03  0.21469415581E+03  0.47000000000E+01 0. -1.
          5    1    4    4  502    0 -0.10316312613E+03 -0.91563030877E+02  0.10123787439E+03  0.17116546505E+03  0.47000000000E+01 0. -1.
         -5    1    4    4    0  502  0.73965855548E+01 -0.59255097554E+02 -0.17500255247E+02  0.62403725832E+02  0.47000000000E+01 0. -1.
<mgrwt>
<rscale>  0 0.44095921E+03</rscale>
<asrwt>0</asrwt>
<pdfrwt beam="1">  1       21 0.57316736E-01 0.44095921E+03</pdfrwt>
<pdfrwt beam="2">  1       21 0.20073758E-01 0.44095921E+03</pdfrwt>
<totfact> 0.60639095E+04</totfact>
</mgrwt>
</event>
<event>
 8    1  0.9529436E-006  0.2747878E+03  0.7546771E-02  0.1098570E+00
         21   -1    0    0  504  503  0.00000000000E+00  0.00000000000E+00  0.35419848578E+03  0.35419848578E+03  0.00000000000E+00 0. -1.
         21   -1    0    0  503  504 -0.00000000000E+00 -0.00000000000E+00 -0.53295223198E+02  0.53295223198E+02  0.00000000000E+00 0. -1.
         25    2    1    2    0    0  0.53081112175E+02 -0.19306878013E+02  0.16205919024E+03  0.21231934483E+03  0.12500385211E+03 0.  0.
         25    2    1    2    0    0 -0.53081112175E+02  0.19306878013E+02  0.13884407234E+03  0.19517436415E+03  0.12499998394E+03 0.  0.
          5    1    3    3  501    0  0.40699801070E+02 -0.58841320092E+02  0.15397329719E+03  0.16984887696E+03  0.47000000000E+01 0. -1.
         -5    1    3    3    0  501  0.12381311105E+02  0.39534442078E+02  0.80858930524E+01  0.42470467876E+02  0.47000000000E+01 0. -1.
          5    1    4    4  502    0 -0.72263267470E+01  0.16866993986E+02  0.14707236010E+03  0.14828716866E+03  0.47000000000E+01 0.  1.
         -5    1    4    4    0  502 -0.45854785428E+02  0.24398840276E+01 -0.82282877574E+01  0.46887195482E+02  0.47000000000E+01 0.  1.
<mgrwt>
<rscale>  0 0.27478783E+03</rscale>
<asrwt>0</asrwt>
<pdfrwt beam="1">  1       21 0.54492073E-01 0.27478783E+03</pdfrwt>
<pdfrwt beam="2">  1       21 0.81992653E-02 0.27478783E+03</pdfrwt>
<totfact> 0.35886613E+05</totfact>
</mgrwt>
</event>
<event>
 8    1  0.9529436E-006  0.3154315E+03  0.7546771E-02  0.1077771E+00
         21   -1    0    0  504  503  0.00000000000E+00  0.00000000000E+00  0.13585932217E+04  0.13585932217E+04  0.00000000000E+00 0.  1.
         21   -1    0    0  503  504 -0.00000000000E+00 -0.00000000000E+00 -0.18308835942E+02  0.18308835942E+02  0.00000000000E+00 0.  1.
         25    2    1    2    0    0 -0.68792647018E+02 -0.66184924605E+02  0.72120482837E+03  0.73815576037E+03  0.12499859828E+03 0.  0.
         25    2    1    2    0    0  0.68792647018E+02  0.66184924605E+02  0.61907955739E+03  0.63874629727E+03  0.12499784549E+03 0.  0.
          5    1    3    3  501    0  0.32600231068E+01 -0.71318888071E+02  0.50761947542E+03  0.51263694109E+03  0.47000000000E+01 0. -1.
         -5    1    3    3    0  501 -0.72052670125E+02  0.51339634664E+01  0.21358535295E+03  0.22551881928E+03  0.47000000000E+01 0. -1.
          5    1    4    4  502    0  0.13322594782E+02  0.29718193521E+02  0.25980823374E+02  0.41925597683E+02  0.47000000000E+01 0.  1.
         -5    1    4    4    0  502  0.55470052236E+02  0.36466731084E+02  0.59309873401E+03  0.59682069959E+03  0.47000000000E+01 0.  1.
<mgrwt>
<rscale>  0 0.31543152E+03</rscale>
<asrwt>0</asrwt>
<pdfrwt beam="1">  1       21 0.20901426E+00 0.31543152E+03</pdfrwt>
<pdfrwt beam="2">  1       21 0.28167451E-02 0.31543152E+03</pdfrwt>
<totfact> 0.77713999E+04</totfact>
</mgrwt>
</event>
<event>
 8    1  0.9529436E-006  0.3188995E+03  0.7546771E-02  0.1076157E+00
         21   -1    0    0  504  503  0.00000000000E+00  0.00000000000E+00  0.19454645425E+02  0.19454645425E+02  0.00000000000E+00 0.  1.
         21   -1    0    0  503  504 -0.00000000000E+00 -0.00000000000E+00 -0.13068456782E+04  0.13068456782E+04  0.00000000000E+00 0.  1.
         25    2    1    2    0    0  0.57619753961E+02 -0.18296142119E+02 -0.31770430487E+03  0.34672361363E+03  0.12500581609E+03 0.  0.
         25    2    1    2    0    0 -0.57619753961E+02  0.18296142119E+02 -0.96968672794E+03  0.97957671003E+03  0.12499358231E+03 0.  0.
          5    1    3    3  501    0  0.84900379950E+02  0.18750528245E+02 -0.25001909052E+03  0.26474760140E+03  0.47000000000E+01 0.  1.
         -5    1    3    3    0  501 -0.27280625989E+02 -0.37046670364E+02 -0.67685214355E+02  0.81976012233E+02  0.47000000000E+01 0.  1.
          5    1    4    4  502    0  0.22141628676E+02  0.48170344033E+02 -0.34072365041E+03  0.34485552005E+03  0.47000000000E+01 0.  1.
         -5    1    4    4    0  502 -0.79761382637E+02 -0.29874201914E+02 -0.62896307754E+03  0.63472118998E+03  0.47000000000E+01 0.  1.
<mgrwt>
<rscale>  0 0.31889948E+03</rscale>
<asrwt>0</asrwt>
<pdfrwt beam="1">  1       21 0.29930209E-02 0.31889948E+03</pdfrwt>
<pdfrwt beam="2">  1       21 0.20105328E+00 0.31889948E+03</pdfrwt>
<totfact> 0.78984590E+04</totfact>
</mgrwt>
</event>
<event>
 8    1  0.9529436E-006  0.3906222E+03  0.7546771E-02  0.1047076E+00
         21   -1    0    0  504  503  0.00000000000E+00  0.00000000000E+00  0.35594003494E+02  0.35594003494E+02  0.00000000000E+00 0. -1.
         21   -1    0    0  503  504 -0.00000000000E+00 -0.00000000000E+00 -0.10717095949E+04  0.10717095949E+04  0.00000000000E+00 0. -1.
         25    2    1    2    0    0 -0.11274250203E+03  0.82614689167E+02 -0.36318962985E+03  0.40873922619E+03  0.12499995667E+03 0.  0.
         25    2    1    2    0    0  0.11274250203E+03 -0.82614689167E+02 -0.67292596154E+03  0.69856437218E+03  0.12500709477E+03 0.  0.
          5    1    3    3  501    0 -0.12367990191E+03  0.10200991259E+03 -0.34155732911E+03  0.37734101218E+03  0.47000000000E+01 0.  1.
         -5    1    3    3    0  501  0.10937399881E+02 -0.19395223426E+02 -0.21632300744E+02  0.31398214016E+02  0.47000000000E+01 0.  1.
          5    1    4    4  502    0  0.23927177163E+02  0.33227521864E+02 -0.16374249426E+03  0.16884985177E+03  0.47000000000E+01 0.  1.
         -5    1    4    4    0  502  0.88815324869E+02 -0.11584221103E+03 -0.50918346727E+03  0.52971452041E+03  0.47000000000E+01 0.  1.
<mgrwt>
<rscale>  0 0.39062225E+03</rscale>
<asrwt>0</asrwt>
<pdfrwt beam="1">  1       21 0.54760014E-02 0.39062225E+03</pdfrwt>
<pdfrwt beam="2">  1       21 0.16487837E+00 0.39062225E+03</pdfrwt>
<totfact> 0.49188793E+04</totfact>
</mgrwt>
</event>
<event>
 8    1  0.9529436E-006  0.2973902E+03  0.7546771E-02  0.1086553E+00
         21   -1    0    0  504  503  0.00000000000E+00  0.00000000000E+00  0.10165721895E+04  0.10165721895E+04  0.00000000000E+00 0.  1.
         21   -1    0    0  503  504 -0.00000000000E+00 -0.00000000000E+00 -0.21749794777E+02  0.21749794777E+02  0.00000000000E+00 0.  1.
         25    2    1    2    0    0  0.16670051594E+02 -0.57895353366E+02  0.31088955271E+03  0.34045267919E+03  0.12500380083E+03 0.  0.
         25    2    1    2    0    0 -0.16670051594E+02  0.57895353366E+02  0.68393284199E+03  0.69786930506E+03  0.12501068769E+03 0.  0.
          5    1    3    3  501    0  0.28797899678E+02 -0.10569928151E+02  0.28158391635E+03  0.28328895911E+03  0.47000000000E+01 0.  1.
         -5    1    3    3    0  501 -0.12127848085E+02 -0.47325425215E+02  0.29305636360E+02  0.57163720080E+02  0.47000000000E+01 0.  1.
          5    1    4    4  502    0  0.16946660751E+02  0.20011278893E+02  0.59361664596E+03  0.59421414739E+03  0.47000000000E+01 0.  1.
         -5    1    4    4    0  502 -0.33616712345E+02  0.37884074473E+02  0.90316196024E+02  0.10365515767E+03  0.47000000000E+01 0.  1.
<mgrwt>
<rscale>  0 0.29739023E+03</rscale>
<asrwt>0</asrwt>
<pdfrwt beam="1">  1       21 0.15639568E+00 0.29739023E+03</pdfrwt>
<pdfrwt beam="2">  1       21 0.33461231E-02 0.29739023E+03</pdfrwt>
<totfact> 0.13557644E+05</totfact>
</mgrwt>
</event>
<event>
 8    1  0.9529436E-006  0.3665946E+03  0.7546771E-02  0.1056003E+00
         21   -1    0    0  504  503  0.00000000000E+00  0.00000000000E+00  0.21929698796E+03  0.21929698796E+03  0.00000000000E+00 0.  1.
         21   -1    0    0  503  504 -0.00000000000E+00 -0.00000000000E+00 -0.15320733641E+03  0.15320733641E+03  0.00000000000E+00 0.  1.
         25    2    1    2    0    0  0.13270186567E+03  0.32259601626E+01  0.52169659056E+02  0.18964812188E+03  0.12499817933E+03 0.  0.
         25    2    1    2    0    0 -0.13270186567E+03 -0.32259601626E+01  0.13919992492E+02  0.18285620248E+03  0.12498973007E+03 0.  0.
          5    1    3    3  501    0  0.26702007940E+02  0.43982937776E+02 -0.19557701266E+02  0.55245721303E+02  0.47000000000E+01 0. -1.
         -5    1    3    3    0  501  0.10599985773E+03 -0.40756977613E+02  0.71727360322E+02  0.13440240058E+03  0.47000000000E+01 0. -1.
          5    1    4    4  502    0 -0.57044842898E+02  0.45660505821E+01 -0.55438638532E+02  0.79815384240E+02  0.47000000000E+01 0. -1.
         -5    1    4    4    0  502 -0.75657022773E+02 -0.77920107448E+01  0.69358631024E+02  0.10304081824E+03  0.47000000000E+01 0. -1.
<mgrwt>
<rscale>  0 0.36659464E+03</rscale>
<asrwt>0</asrwt>
<pdfrwt beam="1">  1       21 0.33737998E-01 0.36659464E+03</pdfrwt>
<pdfrwt beam="2">  1       21 0.23570360E-01 0.36659464E+03</pdfrwt>
<totfact> 0.13671418E+05</totfact>
</mgrwt>
</event>
<event>
 8    1  0.9529436E-006  0.4203442E+03  0.7546771E-02  0.1036954E+00
         21   -1    0    0  504  503  0.00000000000E+00  0.00000000000E+00  0.59972399050E+02  0.59972399050E+02  0.00000000000E+00 0. -1.
         21   -1    0    0  503  504 -0.00000000000E+00 -0.00000000000E+00 -0.73654400646E+03  0.73654400646E+03  0.00000000000E+00 0. -1.
         25    2    1    2    0    0  0.31701705333E+02 -0.16555787615E+03 -0.31646378787E+03  0.37972222769E+03  0.12500093075E+03 0.  0.
         25    2    1    2    0    0 -0.31701705333E+02  0.16555787615E+03 -0.36010781954E+03  0.41679417783E+03  0.12500134599E+03 0.  0.
          5    1    3    3  501    0  0.34519080344E+02 -0.65131678129E+02 -0.24618052658E+03  0.25702265283E+03  0.47000000000E+01 0.  1.
         -5    1    3    3    0  501 -0.28173750114E+01 -0.10042619802E+03 -0.70283261295E+02  0.12269957485E+03  0.47000000000E+01 0.  1.
          5    1    4    4  502    0  0.45716991209E+02  0.37424913348E+02 -0.11918756124E+03  0.13311060130E+03  0.47000000000E+01 0.  1.
         -5    1    4    4    0  502 -0.77418696542E+02  0.12813296280E+03 -0.24092025830E+03  0.28368357653E+03  0.47000000000E+01 0.  1.
<mgrwt>
<rscale>  0 0.42034420E+03</rscale>
<asrwt>0</asrwt>
<pdfrwt beam="1">  1       21 0.92265232E-02 0.42034420E+03</pdfrwt>
<pdfrwt beam="2">  1       21 0.11331446E+00 0.42034420E+03</pdfrwt>
<totfact> 0.52410360E+04</totfact>
</mgrwt>
</event>
<event>
 8    1  0.9529436E-006  0.3609609E+03  0.7546771E-02  0.1058204E+00
         21   -1    0    0  504  503  0.00000000000E+00  0.00000000000E+00  0.72201804047E+02  0.72201804047E+02  0.00000000000E+00 0.  1.
         21   -1    0    0  503  504 -0.00000000000E+00 -0.00000000000E+00 -0.45114094599E+03  0.45114094599E+03  0.00000000000E+00 0.  1.
         25    2    1    2    0    0  0.94622906450E+02 -0.89376133027E+02 -0.18619304168E+03  0.25930045598E+03  0.12500916015E+03 0.  0.
         25    2    1    2    0    0 -0.94622906450E+02  0.89376133027E+02 -0.19274610027E+03  0.26404229406E+03  0.12500274519E+03 0.  0.
          5    1    3    3  501    0  0.10254773060E+02  0.26990258393E+02 -0.80216922380E+01  0.30332688061E+02  0.47000000000E+01 0.  1.
         -5    1    3    3    0  501  0.84368133391E+02 -0.11636639142E+03 -0.17817134944E+03  0.22896776792E+03  0.47000000000E+01 0.  1.
          5    1    4    4  502    0 -0.28203173045E+02  0.93405648722E+02 -0.16509824800E+03  0.19183210283E+03  0.47000000000E+01 0.  1.
         -5    1    4    4    0  502 -0.66419733405E+02 -0.40295156953E+01 -0.27647852262E+02  0.72210191227E+02  0.47000000000E+01 0.  1.
<mgrwt>
<rscale>  0 0.36096089E+03</rscale>
<asrwt>0</asrwt>
<pdfrwt beam="1">  1       21 0.11107970E-01 0.36096089E+03</pdfrwt>
<pdfrwt beam="2">  1       21 0.69406299E-01 0.36096089E+03</pdfrwt>
<totfact> 0.12099029E+05</totfact>
</mgrwt>
</event>
<event>
 8    1  0.9529436E-006  0.3158089E+03  0.7546771E-02  0.1077595E+00
         21   -1    0    0  504  503  0.00000000000E+00  0.00000000000E+00  0.98069223551E+02  0.98069223551E+02  0.00000000000E+00 0. -1.
         21   -1    0    0  503  504 -0.00000000000E+00 -0.00000000000E+00 -0.25424705629E+03  0.25424705629E+03  0.00000000000E+00 0. -1.
         25    2    1    2    0    0 -0.11181715043E+02 -0.89097906609E+02 -0.11741145388E+03  0.19359756739E+03  0.12502440115E+03 0.  0.
         25    2    1    2    0    0  0.11181715043E+02  0.89097906609E+02 -0.38766378863E+02  0.15871871245E+03  0.12500131935E+03 0.  0.
          5    1    3    3  501    0 -0.58485116582E+02 -0.21154907783E+02 -0.19623490800E+02  0.65385092920E+02  0.47000000000E+01 0.  1.
         -5    1    3    3    0  501  0.47303401539E+02 -0.67942998826E+02 -0.97787963079E+02  0.12821247447E+03  0.47000000000E+01 0.  1.
          5    1    4    4  502    0  0.62667025681E+02  0.30102077160E+02 -0.39844545329E+02  0.80268106677E+02  0.47000000000E+01 0. -1.
         -5    1    4    4    0  502 -0.51485310638E+02  0.58995829449E+02  0.10781664663E+01  0.78450605778E+02  0.47000000000E+01 0. -1.
<mgrwt>
<rscale>  0 0.31580888E+03</rscale>
<asrwt>0</asrwt>
<pdfrwt beam="1">  1       21 0.15087573E-01 0.31580888E+03</pdfrwt>
<pdfrwt beam="2">  1       21 0.39114931E-01 0.31580888E+03</pdfrwt>
<totfact> 0.23725657E+05</totfact>
</mgrwt>
</event>
<event>
 8    1  0.9529436E-006  0.3473032E+03  0.7546771E-02  0.1063727E+00
         21   -1    0    0  504  503  0.00000000000E+00  0.00000000000E+00  0.76123186403E+02  0.76123186403E+02  0.00000000000E+00 0.  1.
         21   -1    0    0  503  504 -0.00000000000E+00 -0.00000000000E+00 -0.39613271470E+03  0.39613271470E+03  0.00000000000E+00 0.  1.
         25    2    1    2    0    0 -0.11807564060E+03 -0.28404654778E+01 -0.19282109577E+03  0.25836391032E+03  0.12498803957E+03 0.  0.
         25    2    1    2    0    0  0.11807564060E+03  0.28404654778E+01 -0.12718843252E+03  0.21389199078E+03  0.12499184456E+03 0.  0.
          5    1    3    3  501    0 -0.13153840183E+03  0.27416100220E+02 -0.12908456648E+03  0.18638376810E+03  0.47000000000E+01 0.  1.
         -5    1    3    3    0  501  0.13462761235E+02 -0.30256565698E+02 -0.63736529297E+02  0.71980142225E+02  0.47000000000E+01 0.  1.
          5    1    4    4  502    0  0.10185333952E+03 -0.16250878897E+02 -0.14836360166E+03  0.18075409299E+03  0.47000000000E+01 0.  1.
         -5    1    4    4    0  502  0.16222301075E+02  0.19091344374E+02  0.21175169131E+02  0.33137897790E+02  0.47000000000E+01 0.  1.
<mgrwt>
<rscale>  0 0.34730324E+03</rscale>
<asrwt>0</asrwt>
<pdfrwt beam="1">  1       21 0.11711259E-01 0.34730324E+03</pdfrwt>
<pdfrwt beam="2">  1       21 0.60943494E-01 0.34730324E+03</pdfrwt>
<totfact> 0.14702056E+05</totfact>
</mgrwt>
</event>
<event>
 8    1  0.9529436E-006  0.4206387E+03  0.7546771E-02  0.1036859E+00
         21   -1    0    0  504  503  0.00000000000E+00  0.00000000000E+00  0.40292812426E+03  0.40292812426E+03  0.00000000000E+00 0.  1.
         21   -1    0    0  503  504 -0.00000000000E+00 -0.00000000000E+00 -0.10978192776E+03  0.10978192776E+03  0.00000000000E+00 0.  1.
         25    2    1    2    0    0  0.39102427459E+02 -0.15903914533E+03  0.19793361815E+03  0.28572637895E+03  0.12505757415E+03 0.  0.
         25    2    1    2    0    0 -0.39102427459E+02  0.15903914533E+03  0.95212578352E+02  0.22698367307E+03  0.12503480788E+03 0.  0.
          5    1    3    3  501    0  0.70809619564E+02 -0.13210718409E+03  0.19171822135E+03  0.24340147228E+03  0.47000000000E+01 0.  1.
         -5    1    3    3    0  501 -0.31707192105E+02 -0.26931961241E+02  0.62153968066E+01  0.42324906674E+02  0.47000000000E+01 0.  1.
          5    1    4    4  502    0  0.18831834322E+02  0.13106923286E+03  0.31230426871E+02  0.13612939193E+03  0.47000000000E+01 0.  1.
         -5    1    4    4    0  502 -0.57934261781E+02  0.27969912478E+02  0.63982151481E+02  0.90854281134E+02  0.47000000000E+01 0.  1.
<mgrwt>
<rscale>  0 0.42063869E+03</rscale>
<asrwt>0</asrwt>
<pdfrwt beam="1">  1       21 0.61988941E-01 0.42063869E+03</pdfrwt>
<pdfrwt beam="2">  1       21 0.16889528E-01 0.42063869E+03</pdfrwt>
<totfact> 0.71076594E+04</totfact>
</mgrwt>
</event>
<event>
 8    1  0.9529436E-006  0.4293307E+03  0.7546771E-02  0.1034072E+00
         21   -1    0    0  504  503  0.00000000000E+00  0.00000000000E+00  0.42214320038E+03  0.42214320038E+03  0.00000000000E+00 0. -1.
         21   -1    0    0  503  504 -0.00000000000E+00 -0.00000000000E+00 -0.10916014489E+03  0.10916014489E+03  0.00000000000E+00 0. -1.
         25    2    1    2    0    0  0.16614293865E+02  0.68216957149E+02  0.35420957008E+03  0.38212730899E+03  0.12500909064E+03 0.  0.
         25    2    1    2    0    0 -0.16614293865E+02 -0.68216957149E+02 -0.41226514591E+02  0.14917603628E+03  0.12499710513E+03 0.  0.
          5    1    3    3  501    0  0.58286154679E+02  0.79590703108E+02  0.26727988189E+03  0.28494311908E+03  0.47000000000E+01 0. -1.
         -5    1    3    3    0  501 -0.41671860814E+02 -0.11373745959E+02  0.86929688188E+02  0.97184189915E+02  0.47000000000E+01 0. -1.
          5    1    4    4  502    0  0.16874532937E+01  0.23311839995E+02  0.25065943949E+02  0.34593076311E+02  0.47000000000E+01 0.  1.
         -5    1    4    4    0  502 -0.18301747159E+02 -0.91528797144E+02 -0.66292458540E+02  0.11458295997E+03  0.47000000000E+01 0.  1.
<mgrwt>
<rscale>  0 0.42933070E+03</rscale>
<asrwt>0</asrwt>
<pdfrwt beam="1">  1       21 0.64945107E-01 0.42933070E+03</pdfrwt>
<pdfrwt beam="2">  1       21 0.16793869E-01 0.42933070E+03</pdfrwt>
<totfact> 0.64686102E+04</totfact>
</mgrwt>
</event>
<event>
 8    1  0.9529436E-006  0.4646896E+03  0.7546771E-02  0.1023430E+00
         21   -1    0    0  504  503  0.00000000000E+00  0.00000000000E+00  0.32552220247E+03  0.32552220247E+03  0.00000000000E+00 0. -1.
         21   -1    0    0  503  504 -0.00000000000E+00 -0.00000000000E+00 -0.16583847003E+03  0.16583847003E+03  0.00000000000E+00 0. -1.
         25    2    1    2    0    0  0.16118393049E+03  0.10905229938E+03  0.10313761419E+03  0.25324875131E+03  0.12499959653E+03 0.  0.
         25    2    1    2    0    0 -0.16118393049E+03 -0.10905229938E+03  0.56546118249E+02  0.23811192119E+03  0.12500864001E+03 0.  0.
          5    1    3    3  501    0  0.16179888313E+02 -0.26819470463E+02  0.21962882136E+02  0.38542586491E+02  0.47000000000E+01 0. -1.
         -5    1    3    3    0  501  0.14500404218E+03  0.13587176985E+03  0.81174732055E+02  0.21470616482E+03  0.47000000000E+01 0. -1.
          5    1    4    4  502    0 -0.85041484665E+02 -0.12366505874E+03  0.56506995847E+02  0.16043762479E+03  0.47000000000E+01 0. -1.
         -5    1    4    4    0  502 -0.76142445824E+02  0.14612759356E+02  0.39122402102E-01  0.77674296409E+02  0.47000000000E+01 0. -1.
<mgrwt>
<rscale>  0 0.46468959E+03</rscale>
<asrwt>0</asrwt>
<pdfrwt beam="1">  1       21 0.50080339E-01 0.46468959E+03</pdfrwt>
<pdfrwt beam="2">  1       21 0.25513611E-01 0.46468959E+03</pdfrwt>
<totfact> 0.50810117E+04</totfact>
</mgrwt>
</event>
<event>
 8    1  0.9529436E-006  0.2990006E+03  0.7546771E-02  0.1085741E+00
         21   -1    0    0  504  503  0.00000000000E+00  0.00000000000E+00  0.10644529691E+04  0.10644529691E+04  0.00000000000E+00 0. -1.
         21   -1    0    0  503  504 -0.00000000000E+00 -0.00000000000E+00 -0.20997019589E+02  0.20997019589E+02  0.00000000000E+00 0. -1.
         25    2    1    2    0    0  0.23301669234E+02 -0.77081744144E+02  0.57806455951E+03  0.59688172738E+03  0.12499839378E+03 0.  0.
         25    2    1    2    0    0 -0.23301669234E+02  0.77081744144E+02  0.46539138997E+03  0.48856826128E+03  0.12500094801E+03 0.  0.
          5    1    3    3  501    0 -0.49703029838E+02 -0.49762716727E+02  0.28580163582E+03  0.29436607173E+03  0.47000000000E+01 0.  1.
         -5    1    3    3    0  501  0.73004699072E+02 -0.27319027416E+02  0.29226292369E+03  0.30251565565E+03  0.47000000000E+01 0.  1.
          5    1    4    4  502    0 -0.21827383691E+02  0.10009525317E+03  0.44723788878E+03  0.45884563150E+03  0.47000000000E+01 0.  1.
         -5    1    4    4    0  502 -0.14742855432E+01 -0.23013509028E+02  0.18153501192E+02  0.29722629782E+02  0.47000000000E+01 0.  1.
<mgrwt>
<rscale>  0 0.29900060E+03</rscale>
<asrwt>0</asrwt>
<pdfrwt beam="1">  1       21 0.16376195E+00 0.29900060E+03</pdfrwt>
<pdfrwt beam="2">  1       21 0.32303115E-02 0.29900060E+03</pdfrwt>
<totfact> 0.12669115E+05</totfact>
</mgrwt>
</event>
<event>
 8    1  0.9529436E-006  0.2583087E+03  0.7546771E-02  0.1108164E+00
         21   -1    0    0  504  503  0.00000000000E+00  0.00000000000E+00  0.19564573500E+03  0.19564573500E+03  0.00000000000E+00 0. -1.
         21   -1    0    0  503  504 -0.00000000000E+00 -0.00000000000E+00 -0.85260438377E+02  0.85260438377E+02  0.00000000000E+00 0. -1.
         25    2    1    2    0    0  0.55904557156E+01 -0.31114247815E+02  0.63315495067E+02  0.14364632869E+03  0.12500426480E+03 0.  0.
         25    2    1    2    0    0 -0.55904557156E+01  0.31114247815E+02  0.47069801554E+02  0.13725984469E+03  0.12500139653E+03 0.  0.
          5    1    3    3  501    0  0.34355842906E+02 -0.51758320495E+02 -0.90424254648E+01  0.62953182132E+02  0.47000000000E+01 0. -1.
         -5    1    3    3    0  501 -0.28765387190E+02  0.20644072680E+02  0.72357920532E+02  0.80693146554E+02  0.47000000000E+01 0. -1.
          5    1    4    4  502    0  0.59195932015E+02  0.19434274838E+02  0.28665588786E+02  0.68743402491E+02  0.47000000000E+01 0.  1.
         -5    1    4    4    0  502 -0.64786387731E+02  0.11679972977E+02  0.18404212769E+02  0.68516442199E+02  0.47000000000E+01 0.  1.
<mgrwt>
<rscale>  0 0.25830866E+03</rscale>
<asrwt>0</asrwt>
<pdfrwt beam="1">  1       21 0.30099344E-01 0.25830866E+03</pdfrwt>
<pdfrwt beam="2">  1       21 0.13116991E-01 0.25830866E+03</pdfrwt>
<totfact> 0.52302075E+05</totfact>
</mgrwt>
</event>
<event>
 8    1  0.9529436E-006  0.2537329E+03  0.7546771E-02  0.1110968E+00
         21   -1    0    0  504  503  0.00000000000E+00  0.00000000000E+00  0.17285764087E+03  0.17285764087E+03  0.00000000000E+00 0. -1.
         21   -1    0    0  503  504 -0.00000000000E+00 -0.00000000000E+00 -0.93111888694E+02  0.93111888694E+02  0.00000000000E+00 0. -1.
         25    2    1    2    0    0 -0.12954760382E+02 -0.14549831449E+02  0.30262811049E+02  0.13013422542E+03  0.12505820837E+03 0.  0.
         25    2    1    2    0    0  0.12954760382E+02  0.14549831449E+02  0.49482941130E+02  0.13583530415E+03  0.12499257969E+03 0.  0.
          5    1    3    3  501    0 -0.40714085458E+02 -0.52930800321E+02  0.44578690092E+02  0.80427955262E+02  0.47000000000E+01 0. -1.
         -5    1    3    3    0  501  0.27759325076E+02  0.38380968872E+02 -0.14315879043E+02  0.49706270158E+02  0.47000000000E+01 0. -1.
          5    1    4    4  502    0  0.14089524931E+02  0.16830045482E+02 -0.40173741079E+02  0.46019393911E+02  0.47000000000E+01 0. -1.
         -5    1    4    4    0  502 -0.11347645489E+01 -0.22802140329E+01  0.89656682208E+02  0.89815910234E+02  0.47000000000E+01 0. -1.
<mgrwt>
<rscale>  0 0.25373294E+03</rscale>
<asrwt>0</asrwt>
<pdfrwt beam="1">  1       21 0.26593483E-01 0.25373294E+03</pdfrwt>
<pdfrwt beam="2">  1       21 0.14324906E-01 0.25373294E+03</pdfrwt>
<totfact> 0.56761628E+05</totfact>
</mgrwt>
</event>
<event>
 8    1  0.9529436E-006  0.5200354E+03  0.7546771E-02  0.1008678E+00
         21   -1    0    0  504  503  0.00000000000E+00  0.00000000000E+00  0.15444823235E+03  0.15444823235E+03  0.00000000000E+00 0.  1.
         21   -1    0    0  503  504 -0.00000000000E+00 -0.00000000000E+00 -0.43774670641E+03  0.43774670641E+03  0.00000000000E+00 0.  1.
         25    2    1    2    0    0 -0.70004490103E+02  0.49692504841E+02 -0.38218011708E+03  0.41116571520E+03  0.12500251914E+03 0.  0.
         25    2    1    2    0    0  0.70004490103E+02 -0.49692504841E+02  0.98881643024E+02  0.18102922356E+03  0.12499610708E+03 0.  0.
          5    1    3    3  501    0 -0.10124981738E+03  0.60744679743E+02 -0.29859447857E+03  0.32112644592E+03  0.47000000000E+01 0.  1.
         -5    1    3    3    0  501  0.31245327279E+02 -0.11052174901E+02 -0.83585638512E+02  0.90039269279E+02  0.47000000000E+01 0.  1.
          5    1    4    4  502    0  0.60875399020E+02 -0.59526308853E+02  0.42948882902E+01  0.85379925725E+02  0.47000000000E+01 0. -1.
         -5    1    4    4    0  502  0.91290910831E+01  0.98338040117E+01  0.94586754734E+02  0.95649297836E+02  0.47000000000E+01 0. -1.
<mgrwt>
<rscale>  0 0.52003540E+03</rscale>
<asrwt>0</asrwt>
<pdfrwt beam="1">  1       21 0.23761267E-01 0.52003540E+03</pdfrwt>
<pdfrwt beam="2">  1       21 0.67345647E-01 0.52003540E+03</pdfrwt>
<totfact> 0.30204565E+04</totfact>
</mgrwt>
</event>
<event>
 8    1  0.9529436E-006  0.2867607E+03  0.7546771E-02  0.1092053E+00
         21   -1    0    0  504  503  0.00000000000E+00  0.00000000000E+00  0.16336088390E+03  0.16336088390E+03  0.00000000000E+00 0.  1.
         21   -1    0    0  503  504 -0.00000000000E+00 -0.00000000000E+00 -0.12584360330E+03  0.12584360330E+03  0.00000000000E+00 0.  1.
         25    2    1    2    0    0  0.26865002997E+02  0.25286753002E+02  0.79028216109E+02  0.15243745565E+03  0.12502228074E+03 0.  0.
         25    2    1    2    0    0 -0.26865002997E+02 -0.25286753002E+02 -0.41510935510E+02  0.13676703156E+03  0.12498365849E+03 0.  0.
          5    1    3    3  501    0  0.54064072838E+02  0.20748075828E+02 -0.10146460929E+02  0.58978362912E+02  0.47000000000E+01 0. -1.
         -5    1    3    3    0  501 -0.27199069840E+02  0.45386771743E+01  0.89174677038E+02  0.93459092739E+02  0.47000000000E+01 0. -1.
          5    1    4    4  502    0 -0.77062301635E+01 -0.58662960998E+02 -0.67659191941E+02  0.90003251222E+02  0.47000000000E+01 0.  1.
         -5    1    4    4    0  502 -0.19158772834E+02  0.33376207996E+02  0.26148256432E+02  0.46763780333E+02  0.47000000000E+01 0.  1.
<mgrwt>
<rscale>  0 0.28676068E+03</rscale>
<asrwt>0</asrwt>
<pdfrwt beam="1">  1       21 0.25132444E-01 0.28676068E+03</pdfrwt>
<pdfrwt beam="2">  1       21 0.19360554E-01 0.28676068E+03</pdfrwt>
<totfact> 0.36033926E+05</totfact>
</mgrwt>
</event>
<event>
 8    1  0.9529436E-006  0.3365832E+03  0.7546771E-02  0.1068261E+00
         21   -1    0    0  504  503  0.00000000000E+00  0.00000000000E+00  0.67957556532E+03  0.67957556532E+03  0.00000000000E+00 0. -1.
         21   -1    0    0  503  504 -0.00000000000E+00 -0.00000000000E+00 -0.41676107517E+02  0.41676107517E+02  0.00000000000E+00 0. -1.
         25    2    1    2    0    0 -0.36012363073E+02 -0.10667827585E+03  0.30929293027E+03  0.35208462633E+03  0.12499729018E+03 0.  0.
         25    2    1    2    0    0  0.36012363073E+02  0.10667827585E+03  0.32860652754E+03  0.36916704651E+03  0.12499965382E+03 0.  0.
          5    1    3    3  501    0 -0.60889427350E+02 -0.95608928490E+02  0.13832372507E+03  0.17889698848E+03  0.47000000000E+01 0. -1.
         -5    1    3    3    0  501  0.24877064277E+02 -0.11069347361E+02  0.17096920520E+03  0.17318763785E+03  0.47000000000E+01 0. -1.
          5    1    4    4  502    0  0.50798848455E+02  0.10765475220E+03  0.15812913078E+03  0.19798227364E+03  0.47000000000E+01 0. -1.
         -5    1    4    4    0  502 -0.14786485382E+02 -0.97647634651E+00  0.17047739676E+03  0.17118477287E+03  0.47000000000E+01 0. -1.
<mgrwt>
<rscale>  0 0.33658321E+03</rscale>
<asrwt>0</asrwt>
<pdfrwt beam="1">  1       21 0.10455008E+00 0.33658321E+03</pdfrwt>
<pdfrwt beam="2">  1       21 0.64117093E-02 0.33658321E+03</pdfrwt>
<totfact> 0.12395673E+05</totfact>
</mgrwt>
</event>
<event>
 8    1  0.9529436E-006  0.5686918E+03  0.7546771E-02  0.9972578E-01
         21   -1    0    0  504  503  0.00000000000E+00  0.00000000000E+00  0.22411852186E+03  0.22411852186E+03  0.00000000000E+00 0. -1.
         21   -1    0    0  503  504 -0.00000000000E+00 -0.00000000000E+00 -0.36075817235E+03  0.36075817235E+03  0.00000000000E+00 0. -1.
         25    2    1    2    0    0 -0.24377316766E+03 -0.73686550526E+02 -0.48497334907E+02  0.28780379242E+03  0.12499586569E+03 0.  0.
         25    2    1    2    0    0  0.24377316766E+03  0.73686550526E+02 -0.88142315589E+02  0.29707290179E+03  0.12501270409E+03 0.  0.
          5    1    3    3  501    0 -0.35166944866E+02 -0.65591834642E+02 -0.69633108222E+01  0.74897132659E+02  0.47000000000E+01 0.  1.
         -5    1    3    3    0  501 -0.20860622279E+03 -0.80947158840E+01 -0.41534024085E+02  0.21290665976E+03  0.47000000000E+01 0.  1.
          5    1    4    4  502    0  0.15216636905E+03  0.17439624171E+02  0.70680319305E+01  0.15339749488E+03  0.47000000000E+01 0.  1.
         -5    1    4    4    0  502  0.91606798609E+02  0.56246926355E+02 -0.95210347519E+02  0.14367540691E+03  0.47000000000E+01 0.  1.
<mgrwt>
<rscale>  0 0.56869179E+03</rscale>
<asrwt>0</asrwt>
<pdfrwt beam="1">  1       21 0.34479773E-01 0.56869179E+03</pdfrwt>
<pdfrwt beam="2">  1       21 0.55501257E-01 0.56869179E+03</pdfrwt>
<totfact> 0.21898747E+04</totfact>
</mgrwt>
</event>
<event>
 8    1  0.9529436E-006  0.3440347E+03  0.7546771E-02  0.1065090E+00
         21   -1    0    0  504  503  0.00000000000E+00  0.00000000000E+00  0.64736269467E+02  0.64736269467E+02  0.00000000000E+00 0.  1.
         21   -1    0    0  503  504 -0.00000000000E+00 -0.00000000000E+00 -0.45708480917E+03  0.45708480917E+03  0.00000000000E+00 0.  1.
         25    2    1    2    0    0 -0.97316804890E+02  0.44945984764E+02 -0.12073468102E+03  0.20418969731E+03  0.12500346885E+03 0.  0.
         25    2    1    2    0    0  0.97316804890E+02 -0.44945984764E+02 -0.27161385869E+03  0.31763138133E+03  0.12499961646E+03 0.  0.
          5    1    3    3  501    0  0.17013985353E+02 -0.23919147151E+02 -0.32911885034E+02  0.44349560026E+02  0.47000000000E+01 0.  1.
         -5    1    3    3    0  501 -0.11433079024E+03  0.68865131915E+02 -0.87822795983E+02  0.15984013728E+03  0.47000000000E+01 0.  1.
          5    1    4    4  502    0 -0.82486144365E+01 -0.23419906204E+02 -0.16164963303E+03  0.16361303586E+03  0.47000000000E+01 0. -1.
         -5    1    4    4    0  502  0.10556541933E+03 -0.21526078560E+02 -0.10996422566E+03  0.15401834547E+03  0.47000000000E+01 0. -1.
<mgrwt>
<rscale>  0 0.34403468E+03</rscale>
<asrwt>0</asrwt>
<pdfrwt beam="1">  1       21 0.99594257E-02 0.34403468E+03</pdfrwt>
<pdfrwt beam="2">  1       21 0.70320742E-01 0.34403468E+03</pdfrwt>
<totfact> 0.14349000E+05</totfact>
</mgrwt>
</event>
<event>
 8    1  0.9529436E-006  0.3189407E+03  0.7546771E-02  0.1076138E+00
         21   -1    0    0  504  503  0.00000000000E+00  0.00000000000E+00  0.14509813920E+03  0.14509813920E+03  0.00000000000E+00 0. -1.
         21   -1    0    0  503  504 -0.00000000000E+00 -0.00000000000E+00 -0.17526611336E+03  0.17526611336E+03  0.00000000000E+00 0. -1.
         25    2    1    2    0    0 -0.21322988898E+02  0.16495242320E+02 -0.11079396278E+03  0.16919613369E+03  0.12500106637E+03 0.  0.
         25    2    1    2    0    0  0.21322988898E+02 -0.16495242320E+02  0.80625988620E+02  0.15116811887E+03  0.12499794897E+03 0.  0.
          5    1    3    3  501    0  0.46618672251E+02 -0.18173852417E+02 -0.32858401199E+02  0.60044600453E+02  0.47000000000E+01 0. -1.
         -5    1    3    3    0  501 -0.67941661150E+02  0.34669094737E+02 -0.77935561580E+02  0.10915153324E+03  0.47000000000E+01 0. -1.
          5    1    4    4  502    0 -0.14216906665E+02  0.35294586546E+02  0.79396973538E+02  0.88169142457E+02  0.47000000000E+01 0.  1.
         -5    1    4    4    0  502  0.35539895563E+02 -0.51789828866E+02  0.12290150821E+01  0.62998976410E+02  0.47000000000E+01 0.  1.
<mgrwt>
<rscale>  0 0.31894066E+03</rscale>
<asrwt>0</asrwt>
<pdfrwt beam="1">  1       21 0.22322791E-01 0.31894066E+03</pdfrwt>
<pdfrwt beam="2">  1       21 0.26964017E-01 0.31894066E+03</pdfrwt>
<totfact> 0.23861443E+05</totfact>
</mgrwt>
</event>
<event>
 8    1  0.9529436E-006  0.4039001E+03  0.7546771E-02  0.1042438E+00
         21   -1    0    0  504  503  0.00000000000E+00  0.00000000000E+00  0.27674742615E+02  0.27674742615E+02  0.00000000000E+00 0. -1.
         21   -1    0    0  503  504 -0.00000000000E+00 -0.00000000000E+00 -0.14736838955E+04  0.14736838955E+04  0.00000000000E+00 0. -1.
         25    2    1    2    0    0  0.10324053083E+03 -0.33711421238E+02 -0.11527075630E+04  0.11645408078E+04  0.12500200067E+03 0.  0.
         25    2    1    2    0    0 -0.10324053083E+03  0.33711421238E+02 -0.29330158990E+03  0.33681783030E+03  0.12500144417E+03 0.  0.
          5    1    3    3  501    0  0.75042071778E+02 -0.51204652686E+02 -0.36656008927E+03  0.37767925286E+03  0.47000000000E+01 0.  1.
         -5    1    3    3    0  501  0.28198459053E+02  0.17493231449E+02 -0.78614747368E+03  0.78686155493E+03  0.47000000000E+01 0.  1.
          5    1    4    4  502    0 -0.22634734993E+02 -0.14784026013E+02 -0.20782029871E+03  0.20962410455E+03  0.47000000000E+01 0. -1.
         -5    1    4    4    0  502 -0.80605795838E+02  0.48495447251E+02 -0.85481291192E+02  0.12719372575E+03  0.47000000000E+01 0. -1.
<mgrwt>
<rscale>  0 0.40390010E+03</rscale>
<asrwt>0</asrwt>
<pdfrwt beam="1">  1       21 0.42576508E-02 0.40390010E+03</pdfrwt>
<pdfrwt beam="2">  1       21 0.22672070E+00 0.40390010E+03</pdfrwt>
<totfact> 0.28868294E+04</totfact>
</mgrwt>
</event>
<event>
 8    1  0.9529436E-006  0.3215603E+03  0.7546771E-02  0.1074933E+00
         21   -1    0    0  504  503  0.00000000000E+00  0.00000000000E+00  0.14469346024E+04  0.14469346024E+04  0.00000000000E+00 0. -1.
         21   -1    0    0  503  504 -0.00000000000E+00 -0.00000000000E+00 -0.17865526637E+02  0.17865526637E+02  0.00000000000E+00 0. -1.
         25    2    1    2    0    0 -0.14304939060E+02 -0.63635043767E+02  0.10665044329E+04  0.10757832609E+04  0.12499547649E+03 0.  0.
         25    2    1    2    0    0  0.14304939060E+02  0.63635043767E+02  0.36256464291E+03  0.38901686810E+03  0.12500781295E+03 0.  0.
          5    1    3    3  501    0 -0.63560352695E+01 -0.15933896467E+02  0.94150658098E+03  0.94167458300E+03  0.47000000000E+01 0.  1.
         -5    1    3    3    0  501 -0.79489037907E+01 -0.47701147299E+02  0.12499785187E+03  0.13410867793E+03  0.47000000000E+01 0.  1.
          5    1    4    4  502    0 -0.30997055784E+02 -0.66583185854E+01  0.22990330675E+03  0.23212662736E+03  0.47000000000E+01 0.  1.
         -5    1    4    4    0  502  0.45301994844E+02  0.70293362352E+02  0.13266133615E+03  0.15689024073E+03  0.47000000000E+01 0.  1.
<mgrwt>
<rscale>  0 0.32156025E+03</rscale>
<asrwt>0</asrwt>
<pdfrwt beam="1">  1       21 0.22260523E+00 0.32156025E+03</pdfrwt>
<pdfrwt beam="2">  1       21 0.27485437E-02 0.32156025E+03</pdfrwt>
<totfact> 0.66202314E+04</totfact>
</mgrwt>
</event>
<event>
 8    1  0.9529436E-006  0.3257921E+03  0.7546771E-02  0.1073014E+00
         21   -1    0    0  504  503  0.00000000000E+00  0.00000000000E+00  0.44504340819E+03  0.44504340819E+03  0.00000000000E+00 0. -1.
         21   -1    0    0  503  504 -0.00000000000E+00 -0.00000000000E+00 -0.59623660887E+02  0.59623660887E+02  0.00000000000E+00 0. -1.
         25    2    1    2    0    0 -0.78158749616E+01  0.60112434180E+02  0.60967279531E+02  0.15172308503E+03  0.12501317016E+03 0.  0.
         25    2    1    2    0    0  0.78158749616E+01 -0.60112434180E+02  0.32445246777E+03  0.35294398405E+03  0.12500183754E+03 0.  0.
          5    1    3    3  501    0  0.57541223083E+02  0.40304334104E+02  0.33333416721E+02  0.77901465787E+02  0.47000000000E+01 0.  1.
         -5    1    3    3    0  501 -0.65357098045E+02  0.19808100076E+02  0.27633862809E+02  0.73821619240E+02  0.47000000000E+01 0.  1.
          5    1    4    4  502    0 -0.54800524497E+02 -0.42957304411E+02  0.20978288069E+03  0.22108680313E+03  0.47000000000E+01 0.  1.
         -5    1    4    4    0  502  0.62616399458E+02 -0.17155129769E+02  0.11466958708E+03  0.13185718092E+03  0.47000000000E+01 0.  1.
<mgrwt>
<rscale>  0 0.32579206E+03</rscale>
<asrwt>0</asrwt>
<pdfrwt beam="1">  1       21 0.68468214E-01 0.32579206E+03</pdfrwt>
<pdfrwt beam="2">  1       21 0.91728712E-02 0.32579206E+03</pdfrwt>
<totfact> 0.17708511E+05</totfact>
</mgrwt>
</event>
<event>
 8    1  0.9529436E-006  0.2643709E+03  0.7546771E-02  0.1104545E+00
         21   -1    0    0  504  503  0.00000000000E+00  0.00000000000E+00  0.20508184268E+02  0.20508184268E+02  0.00000000000E+00 0. -1.
         21   -1    0    0  503  504 -0.00000000000E+00 -0.00000000000E+00 -0.85200115652E+03  0.85200115652E+03  0.00000000000E+00 0. -1.
         25    2    1    2    0    0 -0.22342321122E+02 -0.12481143858E+02 -0.52981232105E+03  0.54495931178E+03  0.12499839078E+03 0.  0.
         25    2    1    2    0    0  0.22342321122E+02  0.12481143858E+02 -0.30168065120E+03  0.32755002901E+03  0.12499139141E+03 0.  0.
          5    1    3    3  501    0 -0.56489002472E+02 -0.44652572910E+02 -0.21876099052E+03  0.23035477126E+03  0.47000000000E+01 0. -1.
         -5    1    3    3    0  501  0.34146681350E+02  0.32171429052E+02 -0.31105133053E+03  0.31460454052E+03  0.47000000000E+01 0. -1.
          5    1    4    4  502    0  0.17682978923E+01  0.41151422446E+01 -0.30459302358E+03  0.30466220850E+03  0.47000000000E+01 0. -1.
         -5    1    4    4    0  502  0.20574023230E+02  0.83660016138E+01  0.29123723763E+01  0.22887820510E+02  0.47000000000E+01 0. -1.
<mgrwt>
<rscale>  0 0.26437093E+03</rscale>
<asrwt>0</asrwt>
<pdfrwt beam="1">  1       21 0.31551056E-02 0.26437093E+03</pdfrwt>
<pdfrwt beam="2">  1       21 0.13107709E+00 0.26437093E+03</pdfrwt>
<totfact> 0.24061263E+05</totfact>
</mgrwt>
</event>
<event>
 8    1  0.9529436E-006  0.5135235E+03  0.7546771E-02  0.1010308E+00
         21   -1    0    0  504  503  0.00000000000E+00  0.00000000000E+00  0.94446823152E+02  0.94446823152E+02  0.00000000000E+00 0. -1.
         21   -1    0    0  503  504 -0.00000000000E+00 -0.00000000000E+00 -0.69802880195E+03  0.69802880195E+03  0.00000000000E+00 0. -1.
         25    2    1    2    0    0  0.20768257068E+03  0.39200454956E+02 -0.41761014071E+03  0.48444993778E+03  0.12499914705E+03 0.  0.
         25    2    1    2    0    0 -0.20768257068E+03 -0.39200454956E+02 -0.18597183810E+03  0.30802568732E+03  0.12500229458E+03 0.  0.
          5    1    3    3  501    0  0.69588570219E+02  0.68095776115E+02 -0.11656050312E+03  0.15194750645E+03  0.47000000000E+01 0. -1.
         -5    1    3    3    0  501  0.13809400046E+03 -0.28895321158E+02 -0.30104963759E+03  0.33250243133E+03  0.47000000000E+01 0. -1.
          5    1    4    4  502    0 -0.11385529463E+03  0.39796511619E+02 -0.72105883493E+02  0.14059921368E+03  0.47000000000E+01 0. -1.
         -5    1    4    4    0  502 -0.93827276055E+02 -0.78996966576E+02 -0.11386595460E+03  0.16742647365E+03  0.47000000000E+01 0. -1.
<mgrwt>
<rscale>  0 0.51352353E+03</rscale>
<asrwt>0</asrwt>
<pdfrwt beam="1">  1       21 0.14530281E-01 0.51352353E+03</pdfrwt>
<pdfrwt beam="2">  1       21 0.10738904E+00 0.51352353E+03</pdfrwt>
<totfact> 0.25637751E+04</totfact>
</mgrwt>
</event>
<event>
 8    1  0.9529436E-006  0.3180129E+03  0.7546771E-02  0.1076567E+00
         21   -1    0    0  504  503  0.00000000000E+00  0.00000000000E+00  0.11410724369E+02  0.11410724369E+02  0.00000000000E+00 0.  1.
         21   -1    0    0  503  504 -0.00000000000E+00 -0.00000000000E+00 -0.22157266145E+04  0.22157266145E+04  0.00000000000E+00 0.  1.
         25    2    1    2    0    0  0.10668192433E+02 -0.63780589096E+02 -0.58406110235E+03  0.60078184946E+03  0.12501874054E+03 0.  0.
         25    2    1    2    0    0 -0.10668192433E+02  0.63780589096E+02 -0.16202547877E+04  0.16263554894E+04  0.12499930693E+03 0.  0.
          5    1    3    3  501    0  0.33559622062E+02 -0.80209601262E+02 -0.23600936574E+03  0.25155981214E+03  0.47000000000E+01 0. -1.
         -5    1    3    3    0  501 -0.22891429629E+02  0.16429012166E+02 -0.34805173661E+03  0.34922203732E+03  0.47000000000E+01 0. -1.
          5    1    4    4  502    0 -0.24204716792E+02  0.87743458472E+02 -0.15053731278E+04  0.15081296784E+04  0.47000000000E+01 0. -1.
         -5    1    4    4    0  502  0.13536524358E+02 -0.23962869376E+02 -0.11488165993E+03  0.11822581100E+03  0.47000000000E+01 0. -1.
<mgrwt>
<rscale>  0 0.31801287E+03</rscale>
<asrwt>0</asrwt>
<pdfrwt beam="1">  1       21 0.17554969E-02 0.31801287E+03</pdfrwt>
<pdfrwt beam="2">  1       21 0.34088086E+00 0.31801287E+03</pdfrwt>
<totfact> 0.27168890E+04</totfact>
</mgrwt>
</event>
<event>
 8    1  0.9529436E-006  0.3262442E+03  0.7546771E-02  0.1072811E+00
         21   -1    0    0  504  503  0.00000000000E+00  0.00000000000E+00  0.11451730090E+04  0.11451730090E+04  0.00000000000E+00 0. -1.
         21   -1    0    0  503  504 -0.00000000000E+00 -0.00000000000E+00 -0.23235639279E+02  0.23235639279E+02  0.00000000000E+00 0. -1.
         25    2    1    2    0    0  0.67792605979E+02  0.13931132140E+01  0.27478539009E+03  0.30940399251E+03  0.12500416708E+03 0.  0.
         25    2    1    2    0    0 -0.67792605979E+02 -0.13931132140E+01  0.84715197965E+03  0.85900465578E+03  0.12499897535E+03 0.  0.
          5    1    3    3  501    0  0.84952747107E+02 -0.41687325956E+02  0.19954935795E+03  0.22090006484E+03  0.47000000000E+01 0. -1.
         -5    1    3    3    0  501 -0.17160141128E+02  0.43080439170E+02  0.75236032134E+02  0.88503927675E+02  0.47000000000E+01 0. -1.
          5    1    4    4  502    0 -0.92805627890E+02 -0.35613748939E+02  0.58320875367E+03  0.59163820367E+03  0.47000000000E+01 0. -1.
         -5    1    4    4    0  502  0.25013021912E+02  0.34220635725E+02  0.26394322598E+03  0.26736645212E+03  0.47000000000E+01 0. -1.
<mgrwt>
<rscale>  0 0.32624425E+03</rscale>
<asrwt>0</asrwt>
<pdfrwt beam="1">  1       21 0.17618042E+00 0.32624425E+03</pdfrwt>
<pdfrwt beam="2">  1       21 0.35747146E-02 0.32624425E+03</pdfrwt>
<totfact> 0.86221024E+04</totfact>
</mgrwt>
</event>
<event>
 8    1  0.9529436E-006  0.4169580E+03  0.7546771E-02  0.1038061E+00
         21   -1    0    0  504  503  0.00000000000E+00  0.00000000000E+00  0.95467273052E+03  0.95467273052E+03  0.00000000000E+00 0.  1.
         21   -1    0    0  503  504 -0.00000000000E+00 -0.00000000000E+00 -0.45527120492E+02  0.45527120492E+02  0.00000000000E+00 0.  1.
         25    2    1    2    0    0  0.15266851191E+03 -0.55496751083E+02  0.54601746024E+03  0.58321631605E+03  0.12497455944E+03 0.  0.
         25    2    1    2    0    0 -0.15266851191E+03  0.55496751083E+02  0.36312814978E+03  0.41698353496E+03  0.12500260538E+03 0.  0.
          5    1    3    3  501    0 -0.14914957876E+02  0.95618317963E+01  0.19168394092E+02  0.26521725581E+02  0.47000000000E+01 0. -1.
         -5    1    3    3    0  501  0.16758346979E+03 -0.65058582879E+02  0.52684906615E+03  0.55669459047E+03  0.47000000000E+01 0. -1.
          5    1    4    4  502    0 -0.44192653521E+02  0.56175379026E+02  0.25049960062E+03  0.26053944758E+03  0.47000000000E+01 0. -1.
         -5    1    4    4    0  502 -0.10847585839E+03 -0.67862794331E+00  0.11262854916E+03  0.15644408738E+03  0.47000000000E+01 0. -1.
<mgrwt>
<rscale>  0 0.41695803E+03</rscale>
<asrwt>0</asrwt>
<pdfrwt beam="1">  1       21 0.14687271E+00 0.41695803E+03</pdfrwt>
<pdfrwt beam="2">  1       21 0.70041731E-02 0.41695803E+03</pdfrwt>
<totfact> 0.43668545E+04</totfact>
</mgrwt>
</event>
<event>
 8    1  0.9529436E-006  0.3179908E+03  0.7546771E-02  0.1076578E+00
         21   -1    0    0  504  503  0.00000000000E+00  0.00000000000E+00  0.29918882125E+03  0.29918882125E+03  0.00000000000E+00 0. -1.
         21   -1    0    0  503  504 -0.00000000000E+00 -0.00000000000E+00 -0.84493607516E+02  0.84493607516E+02  0.00000000000E+00 0. -1.
         25    2    1    2    0    0 -0.62651682142E+02  0.56488168296E+02  0.16814936932E+03  0.22586153461E+03  0.12499230369E+03 0.  0.
         25    2    1    2    0    0  0.62651682142E+02 -0.56488168296E+02  0.46545844404E+02  0.15782089415E+03  0.12499909026E+03 0.  0.
          5    1    3    3  501    0 -0.44313239834E+02 -0.34781936014E+02  0.76690006729E+02  0.95272731826E+02  0.47000000000E+01 0. -1.
         -5    1    3    3    0  501 -0.18338442308E+02  0.91270104311E+02  0.91459362595E+02  0.13058880279E+03  0.47000000000E+01 0. -1.
          5    1    4    4  502    0 -0.21528150542E+02  0.53823608860E+01 -0.22942320365E+02  0.32262534590E+02  0.47000000000E+01 0. -1.
         -5    1    4    4    0  502  0.84179832684E+02 -0.61870529182E+02  0.69488164769E+02  0.12555835956E+03  0.47000000000E+01 0. -1.
<mgrwt>
<rscale>  0 0.31799084E+03</rscale>
<asrwt>0</asrwt>
<pdfrwt beam="1">  1       21 0.46029049E-01 0.31799084E+03</pdfrwt>
<pdfrwt beam="2">  1       21 0.12999017E-01 0.31799084E+03</pdfrwt>
<totfact> 0.22275107E+05</totfact>
</mgrwt>
</event>
<event>
 8    1  0.9529436E-006  0.2919890E+03  0.7546771E-02  0.1089315E+00
         21   -1    0    0  504  503  0.00000000000E+00  0.00000000000E+00  0.15834434639E+03  0.15834434639E+03  0.00000000000E+00 0. -1.
         21   -1    0    0  503  504 -0.00000000000E+00 -0.00000000000E+00 -0.13460787912E+03  0.13460787912E+03  0.00000000000E+00 0. -1.
         25    2    1    2    0    0 -0.55175979288E+02 -0.50064281497E+02  0.23771236849E+02  0.14744713219E+03  0.12499905647E+03 0.  0.
         25    2    1    2    0    0  0.55175979288E+02  0.50064281497E+02 -0.34769581339E-01  0.14550509332E+03  0.12498363894E+03 0.  0.
          5    1    3    3  501    0  0.13385807982E+02 -0.64471589566E+02 -0.14341162319E+02  0.67553864828E+02  0.47000000000E+01 0. -1.
         -5    1    3    3    0  501 -0.68561787269E+02  0.14407308069E+02  0.38112399167E+02  0.79893267361E+02  0.47000000000E+01 0. -1.
          5    1    4    4  502    0  0.50879268474E+02 -0.26290953327E+02  0.27993743018E+02  0.63919119483E+02  0.47000000000E+01 0.  1.
         -5    1    4    4    0  502  0.42967108133E+01  0.76355234824E+02 -0.28028512599E+02  0.81585973840E+02  0.47000000000E+01 0.  1.
<mgrwt>
<rscale>  0 0.29198902E+03</rscale>
<asrwt>0</asrwt>
<pdfrwt beam="1">  1       21 0.24360669E-01 0.29198902E+03</pdfrwt>
<pdfrwt beam="2">  1       21 0.20708905E-01 0.29198902E+03</pdfrwt>
<totfact> 0.33668418E+05</totfact>
</mgrwt>
</event>
<event>
 8    1  0.9529436E-006  0.3315504E+03  0.7546771E-02  0.1070453E+00
         21   -1    0    0  504  503  0.00000000000E+00  0.00000000000E+00  0.65440436221E+03  0.65440436221E+03  0.00000000000E+00 0. -1.
         21   -1    0    0  503  504 -0.00000000000E+00 -0.00000000000E+00 -0.41994556326E+02  0.41994556326E+02  0.00000000000E+00 0. -1.
         25    2    1    2    0    0 -0.81024054870E+02 -0.39167751289E+02  0.43497218239E+03  0.46143462838E+03  0.12498842591E+03 0.  0.
         25    2    1    2    0    0  0.81024054870E+02  0.39167751289E+02  0.17743762349E+03  0.23496429015E+03  0.12500038882E+03 0.  0.
          5    1    3    3  501    0 -0.69510501016E+02 -0.73802390215E+02  0.20734235876E+03  0.23084940175E+03  0.47000000000E+01 0. -1.
         -5    1    3    3    0  501 -0.11513553854E+02  0.34634638926E+02  0.22762982363E+03  0.23058522663E+03  0.47000000000E+01 0. -1.
          5    1    4    4  502    0  0.23174246599E+02  0.76821626385E+02  0.66977089142E+02  0.10462613658E+03  0.47000000000E+01 0. -1.
         -5    1    4    4    0  502  0.57849808271E+02 -0.37653875096E+02  0.11046053435E+03  0.13033815357E+03  0.47000000000E+01 0. -1.
<mgrwt>
<rscale>  0 0.33155042E+03</rscale>
<asrwt>0</asrwt>
<pdfrwt beam="1">  1       21 0.10067759E+00 0.33155042E+03</pdfrwt>
<pdfrwt beam="2">  1       21 0.64607014E-02 0.33155042E+03</pdfrwt>
<totfact> 0.13424637E+05</totfact>
</mgrwt>
</event>
<event>
 8    1  0.9529436E-006  0.3500669E+03  0.7546771E-02  0.1062588E+00
         21   -1    0    0  504  503  0.00000000000E+00  0.00000000000E+00  0.17636014750E+04  0.17636014750E+04  0.00000000000E+00 0. -1.
         21   -1    0    0  503  504 -0.00000000000E+00 -0.00000000000E+00 -0.17371677687E+02  0.17371677687E+02  0.00000000000E+00 0. -1.
         25    2    1    2    0    0 -0.77809143063E+02  0.92446169156E+02  0.77005411391E+03  0.78943671287E+03  0.12500571323E+03 0.  0.
         25    2    1    2    0    0  0.77809143063E+02 -0.92446169156E+02  0.97617568344E+03  0.99153643986E+03  0.12499995874E+03 0.  0.
          5    1    3    3  501    0 -0.91652833879E+02  0.75183516380E+02  0.36595736869E+03  0.38470727676E+03  0.47000000000E+01 0.  1.
         -5    1    3    3    0  501  0.13843690816E+02  0.17262652776E+02  0.40409674522E+03  0.40472943611E+03  0.47000000000E+01 0.  1.
          5    1    4    4  502    0  0.70940838870E+02 -0.93892026536E+02  0.44582743108E+03  0.46112092076E+03  0.47000000000E+01 0.  1.
         -5    1    4    4    0  502  0.68683041937E+01  0.14458573809E+01  0.53034825237E+03  0.53041551909E+03  0.47000000000E+01 0.  1.
<mgrwt>
<rscale>  0 0.35006694E+03</rscale>
<asrwt>0</asrwt>
<pdfrwt beam="1">  1       21 0.27132316E+00 0.35006694E+03</pdfrwt>
<pdfrwt beam="2">  1       21 0.26725672E-02 0.35006694E+03</pdfrwt>
<totfact> 0.34586166E+04</totfact>
</mgrwt>
</event>
<event>
 8    1  0.9529436E-006  0.3920255E+03  0.7546771E-02  0.1046576E+00
         21   -1    0    0  504  503  0.00000000000E+00  0.00000000000E+00  0.12638209161E+04  0.12638209161E+04  0.00000000000E+00 0.  1.
         21   -1    0    0  503  504 -0.00000000000E+00 -0.00000000000E+00 -0.30400668846E+02  0.30400668846E+02  0.00000000000E+00 0.  1.
         25    2    1    2    0    0  0.14518125314E+03  0.36583648513E+02  0.68106567802E+03  0.70844290332E+03  0.12499971951E+03 0.  0.
         25    2    1    2    0    0 -0.14518125314E+03 -0.36583648513E+02  0.55235456919E+03  0.58577868158E+03  0.12500053639E+03 0.  0.
          5    1    3    3  501    0  0.16128900554E+03  0.27749542983E+02  0.49414324311E+03  0.52056105804E+03  0.47000000000E+01 0. -1.
         -5    1    3    3    0  501 -0.16107752401E+02  0.88341055298E+01  0.18692243492E+03  0.18788184527E+03  0.47000000000E+01 0. -1.
          5    1    4    4  502    0 -0.46421355259E+02  0.33344217590E+01  0.38167713662E+03  0.38453294684E+03  0.47000000000E+01 0.  1.
         -5    1    4    4    0  502 -0.98759897876E+02 -0.39918070272E+02  0.17067743257E+03  0.20124573474E+03  0.47000000000E+01 0.  1.
<mgrwt>
<rscale>  0 0.39202552E+03</rscale>
<asrwt>0</asrwt>
<pdfrwt beam="1">  1       21 0.19443395E+00 0.39202552E+03</pdfrwt>
<pdfrwt beam="2">  1       21 0.46770270E-02 0.39202552E+03</pdfrwt>
<totfact> 0.39988207E+04</totfact>
</mgrwt>
</event>
<event>
 8    1  0.9529436E-006  0.3441733E+03  0.7546771E-02  0.1065032E+00
         21   -1    0    0  504  503  0.00000000000E+00  0.00000000000E+00  0.77393888716E+03  0.77393888716E+03  0.00000000000E+00 0.  1.
         21   -1    0    0  503  504 -0.00000000000E+00 -0.00000000000E+00 -0.38263761526E+02  0.38263761526E+02  0.00000000000E+00 0.  1.
         25    2    1    2    0    0  0.11490050705E+03 -0.26435062523E+02  0.34560301702E+03  0.38596038038E+03  0.12499212297E+03 0.  0.
         25    2    1    2    0    0 -0.11490050705E+03  0.26435062523E+02  0.39007210862E+03  0.42624226830E+03  0.12500112925E+03 0.  0.
          5    1    3    3  501    0  0.98712274620E+02  0.13512333444E+02  0.32093175968E+03  0.33607436780E+03  0.47000000000E+01 0.  1.
         -5    1    3    3    0  501  0.16188232428E+02 -0.39947395967E+02  0.24671257333E+02  0.49886012589E+02  0.47000000000E+01 0.  1.
          5    1    4    4  502    0  0.10220322027E+02 -0.17137496786E+02  0.15511086917E+03  0.15645964500E+03  0.47000000000E+01 0. -1.
         -5    1    4    4    0  502 -0.12512082907E+03  0.43572559309E+02  0.23496123945E+03  0.26978262330E+03  0.47000000000E+01 0. -1.
<mgrwt>
<rscale>  0 0.34417329E+03</rscale>
<asrwt>0</asrwt>
<pdfrwt beam="1">  1       21 0.11906751E+00 0.34417329E+03</pdfrwt>
<pdfrwt beam="2">  1       21 0.58867331E-02 0.34417329E+03</pdfrwt>
<totfact> 0.10407553E+05</totfact>
</mgrwt>
</event>
<event>
 8    1  0.9529436E-006  0.5990921E+03  0.7546771E-02  0.9907292E-01
         21   -1    0    0  504  503  0.00000000000E+00  0.00000000000E+00  0.20096361555E+03  0.20096361555E+03  0.00000000000E+00 0.  1.
         21   -1    0    0  503  504 -0.00000000000E+00 -0.00000000000E+00 -0.44648791202E+03  0.44648791202E+03  0.00000000000E+00 0.  1.
         25    2    1    2    0    0  0.13708735674E+03  0.42245540357E+02  0.12724419598E+03  0.22890467364E+03  0.12501453974E+03 0.  0.
         25    2    1    2    0    0 -0.13708735674E+03 -0.42245540357E+02 -0.37276849246E+03  0.41854685393E+03  0.12508993127E+03 0.  0.
          5    1    3    3  501    0 -0.36563031521E+01  0.33187889466E+02  0.67919522145E+02  0.75828464632E+02  0.47000000000E+01 0. -1.
         -5    1    3    3    0  501  0.14074365989E+03  0.90576508907E+01  0.59324673838E+02  0.15307620901E+03  0.47000000000E+01 0. -1.
          5    1    4    4  502    0 -0.83093248816E+01 -0.59547623540E+02 -0.11753359264E+03  0.13210298917E+03  0.47000000000E+01 0.  1.
         -5    1    4    4    0  502 -0.12877803186E+03  0.17302083183E+02 -0.25523489982E+03  0.28644386476E+03  0.47000000000E+01 0.  1.
<mgrwt>
<rscale>  0 0.59909206E+03</rscale>
<asrwt>0</asrwt>
<pdfrwt beam="1">  1       21 0.30917479E-01 0.59909206E+03</pdfrwt>
<pdfrwt beam="2">  1       21 0.68690448E-01 0.59909206E+03</pdfrwt>
<totfact> 0.16911528E+04</totfact>
</mgrwt>
</event>
<event>
 8    1  0.9529436E-006  0.4713926E+03  0.7546771E-02  0.1021528E+00
         21   -1    0    0  504  503  0.00000000000E+00  0.00000000000E+00  0.22428724311E+03  0.22428724311E+03  0.00000000000E+00 0.  1.
         21   -1    0    0  503  504 -0.00000000000E+00 -0.00000000000E+00 -0.24768567903E+03  0.24768567903E+03  0.00000000000E+00 0.  1.
         25    2    1    2    0    0  0.18698702321E+03 -0.62384943782E+02  0.21108240647E+02  0.23436480439E+03  0.12500110262E+03 0.  0.
         25    2    1    2    0    0 -0.18698702321E+03  0.62384943782E+02 -0.44506676570E+02  0.23760811775E+03  0.12498298005E+03 0.  0.
          5    1    3    3  501    0  0.17411021715E+03 -0.93782863709E+02  0.26836822250E+02  0.19962940232E+03  0.47000000000E+01 0. -1.
         -5    1    3    3    0  501  0.12876806055E+02  0.31397919926E+02 -0.57285816023E+01  0.34735402071E+02  0.47000000000E+01 0. -1.
          5    1    4    4  502    0 -0.13753647405E+03 -0.74120371525E+01 -0.60412227338E+02  0.15047573625E+03  0.47000000000E+01 0.  1.
         -5    1    4    4    0  502 -0.49450549159E+02  0.69796980935E+02  0.15905550768E+02  0.87132381495E+02  0.47000000000E+01 0.  1.
<mgrwt>
<rscale>  0 0.47139257E+03</rscale>
<asrwt>0</asrwt>
<pdfrwt beam="1">  1       21 0.34505730E-01 0.47139257E+03</pdfrwt>
<pdfrwt beam="2">  1       21 0.38105489E-01 0.47139257E+03</pdfrwt>
<totfact> 0.49286631E+04</totfact>
</mgrwt>
</event>
<event>
 8    1  0.9529436E-006  0.3143891E+03  0.7546771E-02  0.1078261E+00
         21   -1    0    0  504  503  0.00000000000E+00  0.00000000000E+00  0.26583425499E+02  0.26583425499E+02  0.00000000000E+00 0. -1.
         21   -1    0    0  503  504 -0.00000000000E+00 -0.00000000000E+00 -0.92953154641E+03  0.92953154641E+03  0.00000000000E+00 0. -1.
         25    2    1    2    0    0 -0.37552066451E+02 -0.84570108325E+02 -0.52112248907E+03  0.54383159411E+03  0.12498757227E+03 0.  0.
         25    2    1    2    0    0  0.37552066451E+02  0.84570108325E+02 -0.38182563184E+03  0.41228337780E+03  0.12499803823E+03 0.  0.
          5    1    3    3  501    0 -0.18742803839E+02  0.31107166960E+02 -0.93511573639E+02  0.10042635579E+03  0.47000000000E+01 0.  1.
         -5    1    3    3    0  501 -0.18809262612E+02 -0.11567727529E+03 -0.42761091543E+03  0.44340523832E+03  0.47000000000E+01 0.  1.
          5    1    4    4  502    0  0.56200917791E+02  0.79679110794E+02 -0.14602585498E+03  0.17565006171E+03  0.47000000000E+01 0. -1.
         -5    1    4    4    0  502 -0.18648851340E+02  0.48909975306E+01 -0.23579977686E+03  0.23663331609E+03  0.47000000000E+01 0. -1.
<mgrwt>
<rscale>  0 0.31438914E+03</rscale>
<asrwt>0</asrwt>
<pdfrwt beam="1">  1       21 0.40897581E-02 0.31438914E+03</pdfrwt>
<pdfrwt beam="2">  1       21 0.14300484E+00 0.31438914E+03</pdfrwt>
<totfact> 0.12217586E+05</totfact>
</mgrwt>
</event>
<event>
 8    1  0.9529436E-006  0.2731998E+03  0.7546771E-02  0.1099462E+00
         21   -1    0    0  504  503  0.00000000000E+00  0.00000000000E+00  0.14733176735E+03  0.14733176735E+03  0.00000000000E+00 0.  1.
         21   -1    0    0  503  504 -0.00000000000E+00 -0.00000000000E+00 -0.12664971576E+03  0.12664971576E+03  0.00000000000E+00 0.  1.
         25    2    1    2    0    0 -0.41795754878E+02  0.58113030100E+01  0.45849292595E+02  0.13966782403E+03  0.12499714824E+03 0.  0.
         25    2    1    2    0    0  0.41795754878E+02 -0.58113030100E+01 -0.25167241011E+02  0.13431365908E+03  0.12500445043E+03 0.  0.
          5    1    3    3  501    0 -0.64826041641E+02  0.49639527927E+02  0.33817959431E+02  0.88499959253E+02  0.47000000000E+01 0.  1.
         -5    1    3    3    0  501  0.23030286763E+02 -0.43828224917E+02  0.12031333164E+02  0.51167864773E+02  0.47000000000E+01 0.  1.
          5    1    4    4  502    0  0.71916323284E+02 -0.39804303127E+02 -0.31630525325E+02  0.88198187251E+02  0.47000000000E+01 0. -1.
         -5    1    4    4    0  502 -0.30120568406E+02  0.33993000117E+02  0.64632843141E+01  0.46115471830E+02  0.47000000000E+01 0. -1.
<mgrwt>
<rscale>  0 0.27319975E+03</rscale>
<asrwt>0</asrwt>
<pdfrwt beam="1">  1       21 0.22666426E-01 0.27319975E+03</pdfrwt>
<pdfrwt beam="2">  1       21 0.19484572E-01 0.27319975E+03</pdfrwt>
<totfact> 0.43505387E+05</totfact>
</mgrwt>
</event>
<event>
 8    1  0.9529436E-006  0.2706558E+03  0.7546771E-02  0.1100905E+00
         21   -1    0    0  504  503  0.00000000000E+00  0.00000000000E+00  0.25085584677E+02  0.25085584677E+02  0.00000000000E+00 0. -1.
         21   -1    0    0  503  504 -0.00000000000E+00 -0.00000000000E+00 -0.73004625160E+03  0.73004625160E+03  0.00000000000E+00 0. -1.
         25    2    1    2    0    0  0.45793756055E+02 -0.24103815045E+02 -0.34467484208E+03  0.37027637138E+03  0.12500312974E+03 0.  0.
         25    2    1    2    0    0 -0.45793756055E+02  0.24103815045E+02 -0.36028582484E+03  0.38485546490E+03  0.12501916368E+03 0.  0.
          5    1    3    3  501    0  0.41086740309E+02  0.10914955629E+02 -0.32825780557E+03  0.33103252620E+03  0.47000000000E+01 0.  1.
         -5    1    3    3    0  501  0.47070157463E+01 -0.35018770673E+02 -0.16417036514E+02  0.39243845181E+02  0.47000000000E+01 0.  1.
          5    1    4    4  502    0 -0.92332088045E+00  0.70134486288E+02 -0.17049640325E+03  0.18442020553E+03  0.47000000000E+01 0.  1.
         -5    1    4    4    0  502 -0.44870435175E+02 -0.46030671243E+02 -0.18978942160E+03  0.20043525937E+03  0.47000000000E+01 0.  1.
<mgrwt>
<rscale>  0 0.27065577E+03</rscale>
<asrwt>0</asrwt>
<pdfrwt beam="1">  1       21 0.38593206E-02 0.27065577E+03</pdfrwt>
<pdfrwt beam="2">  1       21 0.11231481E+00 0.27065577E+03</pdfrwt>
<totfact> 0.25230116E+05</totfact>
</mgrwt>
</event>
<event>
 8    1  0.9529436E-006  0.2613756E+03  0.7546771E-02  0.1106320E+00
         21   -1    0    0  504  503  0.00000000000E+00  0.00000000000E+00  0.56820186269E+02  0.56820186269E+02  0.00000000000E+00 0. -1.
         21   -1    0    0  503  504 -0.00000000000E+00 -0.00000000000E+00 -0.30058515210E+03  0.30058515210E+03  0.00000000000E+00 0. -1.
         25    2    1    2    0    0  0.30589871806E+02  0.18303446585E+02 -0.10329931423E+03  0.16602424619E+03  0.12499018196E+03 0.  0.
         25    2    1    2    0    0 -0.30589871806E+02 -0.18303446585E+02 -0.14046565160E+03  0.19138109218E+03  0.12500146699E+03 0.  0.
          5    1    3    3  501    0  0.20399799737E+00  0.17134659398E+02  0.26899866297E+02  0.32238656527E+02  0.47000000000E+01 0. -1.
         -5    1    3    3    0  501  0.30385873809E+02  0.11687871870E+01 -0.13019918053E+03  0.13378558966E+03  0.47000000000E+01 0. -1.
          5    1    4    4  502    0 -0.75372427199E+02 -0.13217056307E+02 -0.54046850614E+02  0.93802161066E+02  0.47000000000E+01 0.  1.
         -5    1    4    4    0  502  0.44782555393E+02 -0.50863902782E+01 -0.86418800987E+02  0.97578931116E+02  0.47000000000E+01 0.  1.
<mgrwt>
<rscale>  0 0.26137562E+03</rscale>
<asrwt>0</asrwt>
<pdfrwt beam="1">  1       21 0.87415670E-02 0.26137562E+03</pdfrwt>
<pdfrwt beam="2">  1       21 0.46243870E-01 0.26137562E+03</pdfrwt>
<totfact> 0.45400023E+05</totfact>
</mgrwt>
</event>
<event>
 8    1  0.9529436E-006  0.2626727E+03  0.7546771E-02  0.1105548E+00
         21   -1    0    0  504  503  0.00000000000E+00  0.00000000000E+00  0.15275562484E+03  0.15275562484E+03  0.00000000000E+00 0. -1.
         21   -1    0    0  503  504 -0.00000000000E+00 -0.00000000000E+00 -0.11292047466E+03  0.11292047466E+03  0.00000000000E+00 0. -1.
         25    2    1    2    0    0 -0.18381503693E+02 -0.32419795970E+02  0.35446698408E+02  0.13516291797E+03  0.12499449235E+03 0.  0.
         25    2    1    2    0    0  0.18381503693E+02  0.32419795970E+02  0.43884517650E+01  0.13051318153E+03  0.12500203677E+03 0.  0.
          5    1    3    3  501    0 -0.71110984507E+02 -0.11914497173E+02  0.99789737487E+01  0.72941053444E+02  0.47000000000E+01 0.  1.
         -5    1    3    3    0  501  0.52729480813E+02 -0.20505298797E+02  0.25467724659E+02  0.62221864525E+02  0.47000000000E+01 0.  1.
          5    1    4    4  502    0  0.37698744493E+02  0.12333340457E+02 -0.53104748223E+02  0.66449310810E+02  0.47000000000E+01 0.  1.
         -5    1    4    4    0  502 -0.19317240800E+02  0.20086455513E+02  0.57493199988E+02  0.64063870724E+02  0.47000000000E+01 0.  1.
<mgrwt>
<rscale>  0 0.26267271E+03</rscale>
<asrwt>0</asrwt>
<pdfrwt beam="1">  1       21 0.23500865E-01 0.26267271E+03</pdfrwt>
<pdfrwt beam="2">  1       21 0.17372381E-01 0.26267271E+03</pdfrwt>
<totfact> 0.50398078E+05</totfact>
</mgrwt>
</event>
<event>
 8    1  0.9529436E-006  0.2671679E+03  0.7546771E-02  0.1102912E+00
         21   -1    0    0  504  503  0.00000000000E+00  0.00000000000E+00  0.55325642146E+03  0.55325642146E+03  0.00000000000E+00 0.  1.
         21   -1    0    0  503  504 -0.00000000000E+00 -0.00000000000E+00 -0.32253889357E+02  0.32253889357E+02  0.00000000000E+00 0.  1.
         25    2    1    2    0    0  0.24376709792E+02 -0.21767616700E+02  0.33487717570E+03  0.35893629937E+03  0.12499796432E+03 0.  0.
         25    2    1    2    0    0 -0.24376709792E+02  0.21767616700E+02  0.18612535640E+03  0.22657401144E+03  0.12500032500E+03 0.  0.
          5    1    3    3  501    0  0.11850916261E+02  0.12463902432E+02 -0.38340889587E+01  0.18236867006E+02  0.47000000000E+01 0. -1.
         -5    1    3    3    0  501  0.12525793531E+02 -0.34231519132E+02  0.33871126466E+03  0.34069943237E+03  0.47000000000E+01 0. -1.
          5    1    4    4  502    0 -0.39836651180E+02 -0.27789011134E+02  0.20481140233E+02  0.52922160030E+02  0.47000000000E+01 0.  1.
         -5    1    4    4    0  502  0.15459941388E+02  0.49556627833E+02  0.16564421616E+03  0.17365185141E+03  0.47000000000E+01 0.  1.
<mgrwt>
<rscale>  0 0.26716790E+03</rscale>
<asrwt>0</asrwt>
<pdfrwt beam="1">  1       21 0.85116365E-01 0.26716790E+03</pdfrwt>
<pdfrwt beam="2">  1       21 0.49621372E-02 0.26716790E+03</pdfrwt>
<totfact> 0.31919858E+05</totfact>
</mgrwt>
</event>
<event>
 8    1  0.9529436E-006  0.3221384E+03  0.7546771E-02  0.1074669E+00
         21   -1    0    0  504  503  0.00000000000E+00  0.00000000000E+00  0.12496792266E+04  0.12496792266E+04  0.00000000000E+00 0.  1.
         21   -1    0    0  503  504 -0.00000000000E+00 -0.00000000000E+00 -0.20759961231E+02  0.20759961231E+02  0.00000000000E+00 0.  1.
         25    2    1    2    0    0  0.11634317870E+02 -0.78714580165E+02  0.36551720320E+03  0.39441406936E+03  0.12501315844E+03 0.  0.
         25    2    1    2    0    0 -0.11634317870E+02  0.78714580165E+02  0.86340206215E+03  0.87602511846E+03  0.12500217905E+03 0.  0.
          5    1    3    3  501    0 -0.19776125450E+02  0.24388799508E+02  0.37629630643E+02  0.49234010416E+02  0.47000000000E+01 0. -1.
         -5    1    3    3    0  501  0.31410443320E+02 -0.10310337967E+03  0.32788757256E+03  0.34518005894E+03  0.47000000000E+01 0. -1.
          5    1    4    4  502    0 -0.67579555531E+02  0.40852462112E+02  0.40566749768E+03  0.41330875705E+03  0.47000000000E+01 0. -1.
         -5    1    4    4    0  502  0.55945237660E+02  0.37862118053E+02  0.45773456447E+03  0.46271636141E+03  0.47000000000E+01 0. -1.
<mgrwt>
<rscale>  0 0.32213843E+03</rscale>
<asrwt>0</asrwt>
<pdfrwt beam="1">  1       21 0.19225828E+00 0.32213843E+03</pdfrwt>
<pdfrwt beam="2">  1       21 0.31938412E-02 0.32213843E+03</pdfrwt>
<totfact> 0.80930967E+04</totfact>
</mgrwt>
</event>
<event>
 8    1  0.9529436E-006  0.3526726E+03  0.7546771E-02  0.1061523E+00
         21   -1    0    0  504  503  0.00000000000E+00  0.00000000000E+00  0.87703329414E+03  0.87703329414E+03  0.00000000000E+00 0. -1.
         21   -1    0    0  503  504 -0.00000000000E+00 -0.00000000000E+00 -0.35454177563E+02  0.35454177563E+02  0.00000000000E+00 0. -1.
         25    2    1    2    0    0  0.23290708955E+02 -0.13717502426E+02  0.73490548097E+03  0.74594913366E+03  0.12499366809E+03 0.  0.
         25    2    1    2    0    0 -0.23290708955E+02  0.13717502426E+02  0.10667363561E+03  0.16653833804E+03  0.12500050602E+03 0.  0.
          5    1    3    3  501    0 -0.20183733031E+00 -0.55027671071E+02  0.60549614897E+03  0.60800967240E+03  0.47000000000E+01 0. -1.
         -5    1    3    3    0  501  0.23492546285E+02  0.41310168645E+02  0.12940933200E+03  0.13793946126E+03  0.47000000000E+01 0. -1.
          5    1    4    4  502    0 -0.10422776190E+02  0.52830822643E+02  0.21478632515E+01  0.54096519308E+02  0.47000000000E+01 0. -1.
         -5    1    4    4    0  502 -0.12867932765E+02 -0.39113320217E+02  0.10452577236E+03  0.11244181873E+03  0.47000000000E+01 0. -1.
<mgrwt>
<rscale>  0 0.35267262E+03</rscale>
<asrwt>0</asrwt>
<pdfrwt beam="1">  1       21 0.13492818E+00 0.35267262E+03</pdfrwt>
<pdfrwt beam="2">  1       21 0.54544895E-02 0.35267262E+03</pdfrwt>
<totfact> 0.86014102E+04</totfact>
</mgrwt>
</event>
<event>
 8    1  0.9529436E-006  0.4807646E+03  0.7546771E-02  0.1018925E+00
         21   -1    0    0  504  503  0.00000000000E+00  0.00000000000E+00  0.18435923931E+03  0.18435923931E+03  0.00000000000E+00 0.  1.
         21   -1    0    0  503  504 -0.00000000000E+00 -0.00000000000E+00 -0.31342962341E+03  0.31342962341E+03  0.00000000000E+00 0.  1.
         25    2    1    2    0    0  0.58921657625E+02  0.87805831897E+02 -0.24676927469E+03  0.29614467012E+03  0.12499985942E+03 0.  0.
         25    2    1    2    0    0 -0.58921657625E+02 -0.87805831897E+02  0.11769889059E+03  0.20164419260E+03  0.12500290281E+03 0.  0.
          5    1    3    3  501    0  0.44694060656E+02  0.45761729429E+02 -0.24303331548E+03  0.25135428656E+03  0.47000000000E+01 0.  1.
         -5    1    3    3    0  501  0.14227596969E+02  0.42044102468E+02 -0.37359592079E+01  0.44790383556E+02  0.47000000000E+01 0.  1.
          5    1    4    4  502    0  0.23583371581E+02 -0.57184970159E+02  0.10579642558E+02  0.62931034187E+02  0.47000000000E+01 0.  1.
         -5    1    4    4    0  502 -0.82505029206E+02 -0.30620861738E+02  0.10711924803E+03  0.13871315841E+03  0.47000000000E+01 0.  1.
<mgrwt>
<rscale>  0 0.48076459E+03</rscale>
<asrwt>0</asrwt>
<pdfrwt beam="1">  1       21 0.28362960E-01 0.48076459E+03</pdfrwt>
<pdfrwt beam="2">  1       21 0.48219942E-01 0.48076459E+03</pdfrwt>
<totfact> 0.44577791E+04</totfact>
</mgrwt>
</event>
<event>
 8    1  0.9529436E-006  0.3188017E+03  0.7546771E-02  0.1076202E+00
         21   -1    0    0  504  503  0.00000000000E+00  0.00000000000E+00  0.65495735947E+02  0.65495735947E+02  0.00000000000E+00 0.  1.
         21   -1    0    0  503  504 -0.00000000000E+00 -0.00000000000E+00 -0.38794323558E+03  0.38794323558E+03  0.00000000000E+00 0.  1.
         25    2    1    2    0    0 -0.80948919443E+02 -0.21856037859E+02 -0.86652140196E+02  0.17369513555E+03  0.12502396876E+03 0.  0.
         25    2    1    2    0    0  0.80948919443E+02  0.21856037859E+02 -0.23579535944E+03  0.27974383597E+03  0.12500699294E+03 0.  0.
          5    1    3    3  501    0 -0.14490050541E+02  0.17623068055E+02  0.27319144107E+02  0.35902085275E+02  0.47000000000E+01 0. -1.
         -5    1    3    3    0  501 -0.66458868903E+02 -0.39479105914E+02 -0.11397128430E+03  0.13779305028E+03  0.47000000000E+01 0. -1.
          5    1    4    4  502    0 -0.30319525626E+02  0.12799504178E+02 -0.90774317312E+02  0.96670407183E+02  0.47000000000E+01 0. -1.
         -5    1    4    4    0  502  0.11126844507E+03  0.90565336810E+01 -0.14502104212E+03  0.18307342879E+03  0.47000000000E+01 0. -1.
<mgrwt>
<rscale>  0 0.31880168E+03</rscale>
<asrwt>0</asrwt>
<pdfrwt beam="1">  1       21 0.10076267E-01 0.31880168E+03</pdfrwt>
<pdfrwt beam="2">  1       21 0.59683573E-01 0.31880168E+03</pdfrwt>
<totfact> 0.20288987E+05</totfact>
</mgrwt>
</event>
<event>
 8    1  0.9529436E-006  0.2550387E+03  0.7546771E-02  0.1110161E+00
         21   -1    0    0  504  503  0.00000000000E+00  0.00000000000E+00  0.30633337786E+03  0.30633337786E+03  0.00000000000E+00 0.  1.
         21   -1    0    0  503  504 -0.00000000000E+00 -0.00000000000E+00 -0.53083305753E+02  0.53083305753E+02  0.00000000000E+00 0.  1.
         25    2    1    2    0    0 -0.18710176402E+02 -0.10763040839E+02  0.10826898699E+03  0.16677691598E+03  0.12500580951E+03 0.  0.
         25    2    1    2    0    0  0.18710176402E+02  0.10763040839E+02  0.14498108512E+03  0.19263976763E+03  0.12499860513E+03 0.  0.
          5    1    3    3  501    0  0.20530130764E+02 -0.41006477926E+02 -0.16382747752E+01  0.46127989825E+02  0.47000000000E+01 0. -1.
         -5    1    3    3    0  501 -0.39240307166E+02  0.30243437087E+02  0.10990726177E+03  0.12064892616E+03  0.47000000000E+01 0. -1.
          5    1    4    4  502    0 -0.39892994321E+02  0.14834615454E+02  0.80570682045E+01  0.43572045621E+02  0.47000000000E+01 0.  1.
         -5    1    4    4    0  502  0.58603170723E+02 -0.40715746149E+01  0.13692401691E+03  0.14906772201E+03  0.47000000000E+01 0.  1.
<mgrwt>
<rscale>  0 0.25503873E+03</rscale>
<asrwt>0</asrwt>
<pdfrwt beam="1">  1       21 0.47128211E-01 0.25503873E+03</pdfrwt>
<pdfrwt beam="2">  1       21 0.81666626E-02 0.25503873E+03</pdfrwt>
<totfact> 0.49249348E+05</totfact>
</mgrwt>
</event>
<event>
 8    1  0.9529436E-006  0.3692706E+03  0.7546771E-02  0.1054972E+00
         21   -1    0    0  504  503  0.00000000000E+00  0.00000000000E+00  0.90901611106E+02  0.90901611106E+02  0.00000000000E+00 0.  1.
         21   -1    0    0  503  504 -0.00000000000E+00 -0.00000000000E+00 -0.37502298939E+03  0.37502298939E+03  0.00000000000E+00 0.  1.
         25    2    1    2    0    0  0.73671566183E+02  0.33859579486E+02 -0.45146807612E+01  0.14909306623E+03  0.12503755143E+03 0.  0.
         25    2    1    2    0    0 -0.73671566183E+02 -0.33859579486E+02 -0.27960669752E+03  0.31683153427E+03  0.12501337936E+03 0.  0.
          5    1    3    3  501    0  0.88023581691E+02  0.78235114469E+00 -0.41319290640E+02  0.97355722923E+02  0.47000000000E+01 0. -1.
         -5    1    3    3    0  501 -0.14352015507E+02  0.33077228341E+02  0.36804609879E+02  0.51737343304E+02  0.47000000000E+01 0. -1.
          5    1    4    4  502    0 -0.18362714645E+02 -0.29459167118E+02 -0.35438958559E+01  0.35209104138E+02  0.47000000000E+01 0. -1.
         -5    1    4    4    0  502 -0.55308851538E+02 -0.44004123679E+01 -0.27606280167E+03  0.28162243013E+03  0.47000000000E+01 0. -1.
<mgrwt>
<rscale>  0 0.36927060E+03</rscale>
<asrwt>0</asrwt>
<pdfrwt beam="1">  1       21 0.13984863E-01 0.36927060E+03</pdfrwt>
<pdfrwt beam="2">  1       21 0.57695845E-01 0.36927060E+03</pdfrwt>
<totfact> 0.11928537E+05</totfact>
</mgrwt>
</event>
<event>
 8    1  0.9529436E-006  0.3337166E+03  0.7546771E-02  0.1069504E+00
         21   -1    0    0  504  503  0.00000000000E+00  0.00000000000E+00  0.48224842209E+03  0.48224842209E+03  0.00000000000E+00 0.  1.
         21   -1    0    0  503  504 -0.00000000000E+00 -0.00000000000E+00 -0.57733093386E+02  0.57733093386E+02  0.00000000000E+00 0.  1.
         25    2    1    2    0    0 -0.10922399740E+03  0.14599791273E+02  0.19834631776E+03  0.25905269060E+03  0.12499599684E+03 0.  0.
         25    2    1    2    0    0  0.10922399740E+03 -0.14599791273E+02  0.22616901095E+03  0.28092882487E+03  0.12500219045E+03 0.  0.
          5    1    3    3  501    0 -0.61627495481E+02 -0.42942111513E+02  0.43129198823E+02  0.86742094346E+02  0.47000000000E+01 0. -1.
         -5    1    3    3    0  501 -0.47596501922E+02  0.57541902786E+02  0.15521711894E+03  0.17231059626E+03  0.47000000000E+01 0. -1.
          5    1    4    4  502    0  0.12724433346E+03 -0.34499226855E+02  0.14859078184E+03  0.19870235906E+03  0.47000000000E+01 0.  1.
         -5    1    4    4    0  502 -0.18020336052E+02  0.19899435582E+02  0.77578229108E+02  0.82226465809E+02  0.47000000000E+01 0.  1.
<mgrwt>
<rscale>  0 0.33371661E+03</rscale>
<asrwt>0</asrwt>
<pdfrwt beam="1">  1       21 0.74192062E-01 0.33371661E+03</pdfrwt>
<pdfrwt beam="2">  1       21 0.88820147E-02 0.33371661E+03</pdfrwt>
<totfact> 0.15633356E+05</totfact>
</mgrwt>
</event>
<event>
 8    1  0.9529436E-006  0.3008799E+03  0.7546771E-02  0.1084802E+00
         21   -1    0    0  504  503  0.00000000000E+00  0.00000000000E+00  0.68961491954E+02  0.68961491954E+02  0.00000000000E+00 0.  1.
         21   -1    0    0  503  504 -0.00000000000E+00 -0.00000000000E+00 -0.32818564441E+03  0.32818564441E+03  0.00000000000E+00 0.  1.
         25    2    1    2    0    0  0.52762184935E+02 -0.64993198049E+02 -0.12931237427E+03  0.19837940132E+03  0.12499893111E+03 0.  0.
         25    2    1    2    0    0 -0.52762184935E+02  0.64993198049E+02 -0.12991177819E+03  0.19876773505E+03  0.12499431360E+03 0.  0.
          5    1    3    3  501    0  0.69750880484E+02 -0.93604907311E+02 -0.99654894618E+02  0.15355862731E+03  0.47000000000E+01 0. -1.
         -5    1    3    3    0  501 -0.16988695549E+02  0.28611709262E+02 -0.29657479654E+02  0.44820774009E+02  0.47000000000E+01 0. -1.
          5    1    4    4  502    0  0.62056952796E+01 -0.22483978097E+02  0.79700666823E+01  0.25092865279E+02  0.47000000000E+01 0.  1.
         -5    1    4    4    0  502 -0.58967880214E+02  0.87477176146E+02 -0.13788184487E+03  0.17367486977E+03  0.47000000000E+01 0.  1.
<mgrwt>
<rscale>  0 0.30087985E+03</rscale>
<asrwt>0</asrwt>
<pdfrwt beam="1">  1       21 0.10609460E-01 0.30087985E+03</pdfrwt>
<pdfrwt beam="2">  1       21 0.50490099E-01 0.30087985E+03</pdfrwt>
<totfact> 0.26566466E+05</totfact>
</mgrwt>
</event>
<event>
 8    1  0.9529436E-006  0.2991068E+03  0.7546771E-02  0.1085688E+00
         21   -1    0    0  504  503  0.00000000000E+00  0.00000000000E+00  0.83784764093E+02  0.83784764093E+02  0.00000000000E+00 0.  1.
         21   -1    0    0  503  504 -0.00000000000E+00 -0.00000000000E+00 -0.26694849093E+03  0.26694849093E+03  0.00000000000E+00 0.  1.
         25    2    1    2    0    0 -0.59461893660E+02  0.12074079212E+02 -0.15643943826E+03  0.20923814294E+03  0.12500320968E+03 0.  0.
         25    2    1    2    0    0  0.59461893660E+02 -0.12074079212E+02 -0.26724288571E+02  0.14149511208E+03  0.12500071582E+03 0.  0.
          5    1    3    3  501    0 -0.56389522513E+02  0.63733234161E+02 -0.11282147112E+03  0.14139475850E+03  0.47000000000E+01 0.  1.
         -5    1    3    3    0  501 -0.30723711467E+01 -0.51659154949E+02 -0.43617967143E+02  0.67843384439E+02  0.47000000000E+01 0.  1.
          5    1    4    4  502    0  0.35699278615E+02 -0.67794889568E+02 -0.24929773313E+02  0.80710402939E+02  0.47000000000E+01 0. -1.
         -5    1    4    4    0  502  0.23762615045E+02  0.55720810355E+02 -0.17945152583E+01  0.60784709142E+02  0.47000000000E+01 0. -1.
<mgrwt>
<rscale>  0 0.29910678E+03</rscale>
<asrwt>0</asrwt>
<pdfrwt beam="1">  1       21 0.12889964E-01 0.29910678E+03</pdfrwt>
<pdfrwt beam="2">  1       21 0.41068998E-01 0.29910678E+03</pdfrwt>
<totfact> 0.28740525E+05</totfact>
</mgrwt>
</event>
<event>
 8    1  0.9529436E-006  0.4800194E+03  0.7546771E-02  0.1019130E+00
         21   -1    0    0  504  503  0.00000000000E+00  0.00000000000E+00  0.17310675734E+04  0.17310675734E+04  0.00000000000E+00 0.  1.
         21   -1    0    0  503  504 -0.00000000000E+00 -0.00000000000E+00 -0.33276955423E+02  0.33276955423E+02  0.00000000000E+00 0.  1.
         25    2    1    2    0    0  0.13755660179E+03 -0.14309489292E+03  0.10356383659E+04  0.10618708858E+04  0.12499994504E+03 0.  0.
         25    2    1    2    0    0 -0.13755660179E+03  0.14309489292E+03  0.66215225207E+03  0.70247364295E+03  0.12500258812E+03 0.  0.
          5    1    3    3  501    0  0.75067227899E+02 -0.15809388986E+02  0.19971879914E+03  0.21399699581E+03  0.47000000000E+01 0.  1.
         -5    1    3    3    0  501  0.62489373892E+02 -0.12728550393E+03  0.83591956672E+03  0.84787389003E+03  0.47000000000E+01 0.  1.
          5    1    4    4  502    0 -0.11809961889E+02  0.35672734193E+02  0.32198618276E+03  0.32420550743E+03  0.47000000000E+01 0. -1.
         -5    1    4    4    0  502 -0.12574663990E+03  0.10742215872E+03  0.34016606932E+03  0.37826813552E+03  0.47000000000E+01 0. -1.
<mgrwt>
<rscale>  0 0.48001941E+03</rscale>
<asrwt>0</asrwt>
<pdfrwt beam="1">  1       21 0.26631802E+00 0.48001941E+03</pdfrwt>
<pdfrwt beam="2">  1       21 0.51195330E-02 0.48001941E+03</pdfrwt>
<totfact> 0.11647272E+04</totfact>
</mgrwt>
</event>
<event>
 8    1  0.9529436E-006  0.4464023E+03  0.7546771E-02  0.1028800E+00
         21   -1    0    0  504  503  0.00000000000E+00  0.00000000000E+00  0.12589753438E+04  0.12589753438E+04  0.00000000000E+00 0. -1.
         21   -1    0    0  503  504 -0.00000000000E+00 -0.00000000000E+00 -0.39570880404E+02  0.39570880404E+02  0.00000000000E+00 0. -1.
         25    2    1    2    0    0  0.14459403407E+03 -0.62305987430E+02  0.32760061239E+03  0.38436456530E+03  0.12499794824E+03 0.  0.
         25    2    1    2    0    0 -0.14459403407E+03  0.62305987430E+02  0.89180385103E+03  0.91418165893E+03  0.12499810418E+03 0.  0.
          5    1    3    3  501    0  0.10854414052E+03 -0.77282331178E+02  0.31661070461E+03  0.34353866948E+03  0.47000000000E+01 0. -1.
         -5    1    3    3    0  501  0.36049893543E+02  0.14976343747E+02  0.10989907777E+02  0.40825895820E+02  0.47000000000E+01 0. -1.
          5    1    4    4  502    0 -0.20124481046E+02 -0.25486941392E+02  0.58639240581E+02  0.67195457100E+02  0.47000000000E+01 0. -1.
         -5    1    4    4    0  502 -0.12446955302E+03  0.87792928822E+02  0.83316461045E+03  0.84698620183E+03  0.47000000000E+01 0. -1.
<mgrwt>
<rscale>  0 0.44640234E+03</rscale>
<asrwt>0</asrwt>
<pdfrwt beam="1">  1       21 0.19368848E+00 0.44640234E+03</pdfrwt>
<pdfrwt beam="2">  1       21 0.60878287E-02 0.44640234E+03</pdfrwt>
<totfact> 0.25198935E+04</totfact>
</mgrwt>
</event>
<event>
 8    1  0.9529436E-006  0.2708405E+03  0.7546771E-02  0.1100800E+00
         21   -1    0    0  504  503  0.00000000000E+00  0.00000000000E+00  0.37657894681E+02  0.37657894681E+02  0.00000000000E+00 0.  1.
         21   -1    0    0  503  504 -0.00000000000E+00 -0.00000000000E+00 -0.48698001624E+03  0.48698001624E+03  0.00000000000E+00 0.  1.
         25    2    1    2    0    0 -0.14372385894E+02 -0.37174055874E+02 -0.28967242341E+03  0.31799687759E+03  0.12499370131E+03 0.  0.
         25    2    1    2    0    0  0.14372385894E+02  0.37174055874E+02 -0.15964969815E+03  0.20664103333E+03  0.12499605846E+03 0.  0.
          5    1    3    3  501    0  0.31247857852E+01 -0.81332677453E+02 -0.15530812025E+03  0.17540658745E+03  0.47000000000E+01 0.  1.
         -5    1    3    3    0  501 -0.17497171680E+02  0.44158621579E+02 -0.13436430316E+03  0.14259029014E+03  0.47000000000E+01 0.  1.
          5    1    4    4  502    0 -0.71004653334E+01 -0.38321740066E+02 -0.15045080542E+02  0.42040656728E+02  0.47000000000E+01 0. -1.
         -5    1    4    4    0  502  0.21472851228E+02  0.75495795940E+02 -0.14460461761E+03  0.16460037660E+03  0.47000000000E+01 0. -1.
<mgrwt>
<rscale>  0 0.27084049E+03</rscale>
<asrwt>0</asrwt>
<pdfrwt beam="1">  1       21 0.57935222E-02 0.27084049E+03</pdfrwt>
<pdfrwt beam="2">  1       21 0.74920003E-01 0.27084049E+03</pdfrwt>
<totfact> 0.32715765E+05</totfact>
</mgrwt>
</event>
<event>
 8    1  0.9529436E-006  0.3846718E+03  0.7546771E-02  0.1049220E+00
         21   -1    0    0  504  503  0.00000000000E+00  0.00000000000E+00  0.37018546547E+03  0.37018546547E+03  0.00000000000E+00 0. -1.
         21   -1    0    0  503  504 -0.00000000000E+00 -0.00000000000E+00 -0.99931276889E+02  0.99931276889E+02  0.00000000000E+00 0. -1.
         25    2    1    2    0    0  0.14260847898E+03  0.39573054970E+01  0.96188746956E+02  0.21267316430E+03  0.12499904491E+03 0.  0.
         25    2    1    2    0    0 -0.14260847898E+03 -0.39573054970E+01  0.17406544163E+03  0.25744357806E+03  0.12500231746E+03 0.  0.
          5    1    3    3  501    0  0.46638105069E+02  0.24931786574E+02  0.10111042599E+03  0.11420207997E+03  0.47000000000E+01 0.  1.
         -5    1    3    3    0  501  0.95970373912E+02 -0.20974481077E+02 -0.49216790304E+01  0.98471084333E+02  0.47000000000E+01 0.  1.
          5    1    4    4  502    0 -0.14633451503E+03 -0.21695498389E+02  0.18408450128E+03  0.23620685543E+03  0.47000000000E+01 0.  1.
         -5    1    4    4    0  502  0.37260360463E+01  0.17738192892E+02 -0.10019059655E+02  0.21236722630E+02  0.47000000000E+01 0.  1.
<mgrwt>
<rscale>  0 0.38467184E+03</rscale>
<asrwt>0</asrwt>
<pdfrwt beam="1">  1       21 0.56951609E-01 0.38467184E+03</pdfrwt>
<pdfrwt beam="2">  1       21 0.15374043E-01 0.38467184E+03</pdfrwt>
<totfact> 0.10267543E+05</totfact>
</mgrwt>
</event>
<event>
 8    1  0.9529436E-006  0.3210975E+03  0.7546771E-02  0.1075145E+00
         21   -1    0    0  504  503  0.00000000000E+00  0.00000000000E+00  0.24148930945E+03  0.24148930945E+03  0.00000000000E+00 0. -1.
         21   -1    0    0  503  504 -0.00000000000E+00 -0.00000000000E+00 -0.10673721832E+03  0.10673721832E+03  0.00000000000E+00 0. -1.
         25    2    1    2    0    0 -0.93374708823E+02 -0.35178975630E+02  0.82511059803E+02  0.17996915417E+03  0.12499769954E+03 0.  0.
         25    2    1    2    0    0  0.93374708823E+02  0.35178975630E+02  0.52241031326E+02  0.16825737359E+03  0.12500008736E+03 0.  0.
          5    1    3    3  501    0 -0.81639015614E+01 -0.45666919536E+02  0.81599012220E+02  0.93981943074E+02  0.47000000000E+01 0. -1.
         -5    1    3    3    0  501 -0.85210807262E+02  0.10487943906E+02  0.91204758321E+00  0.85987211098E+02  0.47000000000E+01 0. -1.
          5    1    4    4  502    0  0.19969972150E+02 -0.33334689098E+02  0.55227884702E+02  0.67692027105E+02  0.47000000000E+01 0. -1.
         -5    1    4    4    0  502  0.73404736673E+02  0.68513664728E+02 -0.29868533758E+01  0.10056534649E+03  0.47000000000E+01 0. -1.
<mgrwt>
<rscale>  0 0.32109748E+03</rscale>
<asrwt>0</asrwt>
<pdfrwt beam="1">  1       21 0.37152201E-01 0.32109748E+03</pdfrwt>
<pdfrwt beam="2">  1       21 0.16421111E-01 0.32109748E+03</pdfrwt>
<totfact> 0.22497726E+05</totfact>
</mgrwt>
</event>
<event>
 8    1  0.9529436E-006  0.4243875E+03  0.7546771E-02  0.1035648E+00
         21   -1    0    0  504  503  0.00000000000E+00  0.00000000000E+00  0.13175692353E+04  0.13175692353E+04  0.00000000000E+00 0.  1.
         21   -1    0    0  503  504 -0.00000000000E+00 -0.00000000000E+00 -0.34173682450E+02  0.34173682450E+02  0.00000000000E+00 0.  1.
         25    2    1    2    0    0 -0.13222317691E+03  0.25323577889E+02  0.97991020290E+03  0.99698195261E+03  0.12499902393E+03 0.  0.
         25    2    1    2    0    0  0.13222317691E+03 -0.25323577889E+02  0.30348535000E+03  0.35476096519E+03  0.12501093010E+03 0.  0.
          5    1    3    3  501    0 -0.12600683180E+03  0.16211346537E+02  0.97618170281E+03  0.98442538383E+03  0.47000000000E+01 0.  1.
         -5    1    3    3    0  501 -0.62163451123E+01  0.91122313519E+01  0.37285000828E+01  0.12556568784E+02  0.47000000000E+01 0.  1.
          5    1    4    4  502    0  0.11705498156E+03  0.28502572150E+02  0.15742340365E+03  0.19828888861E+03  0.47000000000E+01 0.  1.
         -5    1    4    4    0  502  0.15168195353E+02 -0.53826150039E+02  0.14606194635E+03  0.15647207658E+03  0.47000000000E+01 0.  1.
<mgrwt>
<rscale>  0 0.42438752E+03</rscale>
<asrwt>0</asrwt>
<pdfrwt beam="1">  1       21 0.20270292E+00 0.42438752E+03</pdfrwt>
<pdfrwt beam="2">  1       21 0.52574906E-02 0.42438752E+03</pdfrwt>
<totfact> 0.28485219E+04</totfact>
</mgrwt>
</event>
<event>
 8    1  0.9529436E-006  0.2799393E+03  0.7546771E-02  0.1095722E+00
         21   -1    0    0  504  503  0.00000000000E+00  0.00000000000E+00  0.53484718804E+02  0.53484718804E+02  0.00000000000E+00 0.  1.
         21   -1    0    0  503  504 -0.00000000000E+00 -0.00000000000E+00 -0.36630105468E+03  0.36630105468E+03  0.00000000000E+00 0.  1.
         25    2    1    2    0    0 -0.25015788851E+02 -0.74860148004E+01 -0.70476513330E+02  0.14586121953E+03  0.12500690510E+03 0.  0.
         25    2    1    2    0    0  0.25015788851E+02  0.74860148004E+01 -0.24233982254E+03  0.27392455395E+03  0.12499696619E+03 0.  0.
          5    1    3    3  501    0 -0.52138360713E+02  0.41058403951E+02 -0.17222960172E+02  0.68723515262E+02  0.47000000000E+01 0. -1.
         -5    1    3    3    0  501  0.27122571862E+02 -0.48544418751E+02 -0.53253553159E+02  0.77137704272E+02  0.47000000000E+01 0. -1.
          5    1    4    4  502    0  0.49121981814E+02  0.54243731199E+02 -0.11941135333E+03  0.14013034210E+03  0.47000000000E+01 0. -1.
         -5    1    4    4    0  502 -0.24106192963E+02 -0.46757716399E+02 -0.12292846921E+03  0.13379421185E+03  0.47000000000E+01 0. -1.
<mgrwt>
<rscale>  0 0.27993934E+03</rscale>
<asrwt>0</asrwt>
<pdfrwt beam="1">  1       21 0.82284181E-02 0.27993934E+03</pdfrwt>
<pdfrwt beam="2">  1       21 0.56354009E-01 0.27993934E+03</pdfrwt>
<totfact> 0.33157825E+05</totfact>
</mgrwt>
</event>
<event>
 8    1  0.9529436E-006  0.2535658E+03  0.7546771E-02  0.1111072E+00
         21   -1    0    0  504  503  0.00000000000E+00  0.00000000000E+00  0.89053338266E+03  0.89053338266E+03  0.00000000000E+00 0. -1.
         21   -1    0    0  503  504 -0.00000000000E+00 -0.00000000000E+00 -0.18049742310E+02  0.18049742310E+02  0.00000000000E+00 0. -1.
         25    2    1    2    0    0  0.52466042304E+01 -0.20141877194E+02  0.42280709823E+03  0.44139328523E+03  0.12501587044E+03 0.  0.
         25    2    1    2    0    0 -0.52466042304E+01  0.20141877194E+02  0.44967654212E+03  0.46718983974E+03  0.12499652694E+03 0.  0.
          5    1    3    3  501    0  0.41929626707E+02 -0.31309708536E+02  0.75720376279E+02  0.92163207563E+02  0.47000000000E+01 0.  1.
         -5    1    3    3    0  501 -0.36683022476E+02  0.11167831342E+02  0.34708672195E+03  0.34923007767E+03  0.47000000000E+01 0.  1.
          5    1    4    4  502    0 -0.27507715309E+02  0.13565970656E+01  0.43177704860E+03  0.43268004860E+03  0.47000000000E+01 0. -1.
         -5    1    4    4    0  502  0.22261111079E+02  0.18785280129E+02  0.17899493514E+02  0.34509791133E+02  0.47000000000E+01 0. -1.
<mgrwt>
<rscale>  0 0.25356576E+03</rscale>
<asrwt>0</asrwt>
<pdfrwt beam="1">  1       21 0.13700510E+00 0.25356576E+03</pdfrwt>
<pdfrwt beam="2">  1       21 0.27768841E-02 0.25356576E+03</pdfrwt>
<totfact> 0.26649411E+05</totfact>
</mgrwt>
</event>
<event>
 8    1  0.9529436E-006  0.3076018E+03  0.7546771E-02  0.1081501E+00
         21   -1    0    0  504  503  0.00000000000E+00  0.00000000000E+00  0.82629797146E+03  0.82629797146E+03  0.00000000000E+00 0.  1.
         21   -1    0    0  503  504 -0.00000000000E+00 -0.00000000000E+00 -0.28627341307E+02  0.28627341307E+02  0.00000000000E+00 0.  1.
         25    2    1    2    0    0 -0.76490317023E+02  0.32135671380E+02  0.30419006211E+03  0.33914222149E+03  0.12490949738E+03 0.  0.
         25    2    1    2    0    0  0.76490317023E+02 -0.32135671380E+02  0.49348056805E+03  0.51578309128E+03  0.12500262493E+03 0.  0.
          5    1    3    3  501    0 -0.92998871295E+02 -0.19294740003E+02  0.20841496516E+03  0.22908506009E+03  0.47000000000E+01 0. -1.
         -5    1    3    3    0  501  0.16508554271E+02  0.51430411382E+02  0.95775096947E+02  0.11005716139E+03  0.47000000000E+01 0. -1.
          5    1    4    4  502    0  0.76177696500E+02  0.20646216918E+02  0.16395338899E+03  0.18202228292E+03  0.47000000000E+01 0. -1.
         -5    1    4    4    0  502  0.31262052286E+00 -0.52781888298E+02  0.32952717905E+03  0.33376080836E+03  0.47000000000E+01 0. -1.
<mgrwt>
<rscale>  0 0.30760178E+03</rscale>
<asrwt>0</asrwt>
<pdfrwt beam="1">  1       21 0.12712275E+00 0.30760178E+03</pdfrwt>
<pdfrwt beam="2">  1       21 0.44042070E-02 0.30760178E+03</pdfrwt>
<totfact> 0.14649381E+05</totfact>
</mgrwt>
</event>
<event>
 8    1  0.9529436E-006  0.2927733E+03  0.7546771E-02  0.1088910E+00
         21   -1    0    0  504  503  0.00000000000E+00  0.00000000000E+00  0.14605080122E+03  0.14605080122E+03  0.00000000000E+00 0.  1.
         21   -1    0    0  503  504 -0.00000000000E+00 -0.00000000000E+00 -0.14672331584E+03  0.14672331584E+03  0.00000000000E+00 0.  1.
         25    2    1    2    0    0  0.46141921781E+02 -0.51986932299E+02  0.30839019168E+02  0.14631407109E+03  0.12500017688E+03 0.  0.
         25    2    1    2    0    0 -0.46141921781E+02  0.51986932299E+02 -0.31511533792E+02  0.14646004597E+03  0.12500340087E+03 0.  0.
          5    1    3    3  501    0  0.69249910218E+02 -0.38177973836E+02 -0.25895539106E+02  0.83341326465E+02  0.47000000000E+01 0.  1.
         -5    1    3    3    0  501 -0.23107988437E+02 -0.13808958463E+02  0.56734558274E+02  0.62972744628E+02  0.47000000000E+01 0.  1.
          5    1    4    4  502    0 -0.43699574035E+02 -0.18648231725E+02  0.26765201309E+02  0.54734589780E+02  0.47000000000E+01 0.  1.
         -5    1    4    4    0  502 -0.24423477455E+01  0.70635164024E+02 -0.58276735101E+02  0.91725456190E+02  0.47000000000E+01 0.  1.
<mgrwt>
<rscale>  0 0.29277334E+03</rscale>
<asrwt>0</asrwt>
<pdfrwt beam="1">  1       21 0.22469354E-01 0.29277334E+03</pdfrwt>
<pdfrwt beam="2">  1       21 0.22572818E-01 0.29277334E+03</pdfrwt>
<totfact> 0.33361805E+05</totfact>
</mgrwt>
</event>
<event>
 8    1  0.9529436E-006  0.2850748E+03  0.7546771E-02  0.1092949E+00
         21   -1    0    0  504  503  0.00000000000E+00  0.00000000000E+00  0.17876435067E+03  0.17876435067E+03  0.00000000000E+00 0.  1.
         21   -1    0    0  503  504 -0.00000000000E+00 -0.00000000000E+00 -0.11365193950E+03  0.11365193950E+03  0.00000000000E+00 0.  1.
         25    2    1    2    0    0 -0.68232547958E+02 -0.10027411425E+00  0.26372468067E+02  0.14483064637E+03  0.12499887360E+03 0.  0.
         25    2    1    2    0    0  0.68232547958E+02  0.10027411425E+00  0.38739943108E+02  0.14758564379E+03  0.12500019362E+03 0.  0.
          5    1    3    3  501    0 -0.14524608117E+01 -0.19026406937E+02  0.63150922913E+02  0.66138059150E+02  0.47000000000E+01 0. -1.
         -5    1    3    3    0  501 -0.66780087147E+02  0.18926132822E+02 -0.36778454846E+02  0.78692587222E+02  0.47000000000E+01 0. -1.
          5    1    4    4  502    0  0.30521596084E+00 -0.54437898832E+02  0.21146089745E+02  0.58590315732E+02  0.47000000000E+01 0.  1.
         -5    1    4    4    0  502  0.67927331998E+02  0.54538172946E+02  0.17593853362E+02  0.88995328061E+02  0.47000000000E+01 0.  1.
<mgrwt>
<rscale>  0 0.28507483E+03</rscale>
<asrwt>0</asrwt>
<pdfrwt beam="1">  1       21 0.27502208E-01 0.28507483E+03</pdfrwt>
<pdfrwt beam="2">  1       21 0.17484914E-01 0.28507483E+03</pdfrwt>
<totfact> 0.36625753E+05</totfact>
</mgrwt>
</event>
<event>
 8    1  0.9529436E-006  0.3058462E+03  0.7546771E-02  0.1082354E+00
         21   -1    0    0  504  503  0.00000000000E+00  0.00000000000E+00  0.58287628235E+02  0.58287628235E+02  0.00000000000E+00 0. -1.
         21   -1    0    0  503  504 -0.00000000000E+00 -0.00000000000E+00 -0.40120819867E+03  0.40120819867E+03  0.00000000000E+00 0. -1.
         25    2    1    2    0    0 -0.45115291655E+02 -0.48242745277E+01 -0.58022048103E+02  0.14508791489E+03  0.12500112725E+03 0.  0.
         25    2    1    2    0    0  0.45115291655E+02  0.48242745277E+01 -0.28489852233E+03  0.31440791202E+03  0.12500601564E+03 0.  0.
          5    1    3    3  501    0 -0.21496366117E+02  0.16692022298E+02 -0.93275684507E+02  0.97278778183E+02  0.47000000000E+01 0. -1.
         -5    1    3    3    0  501 -0.23618925538E+02 -0.21516296825E+02  0.35253636403E+02  0.47809136703E+02  0.47000000000E+01 0. -1.
          5    1    4    4  502    0  0.50028009836E+02  0.59477687873E+02 -0.16264797842E+03  0.18032429677E+03  0.47000000000E+01 0.  1.
         -5    1    4    4    0  502 -0.49127181812E+01 -0.54653413345E+02 -0.12225054391E+03  0.13408361524E+03  0.47000000000E+01 0.  1.
<mgrwt>
<rscale>  0 0.30584620E+03</rscale>
<asrwt>0</asrwt>
<pdfrwt beam="1">  1       21 0.89673275E-02 0.30584620E+03</pdfrwt>
<pdfrwt beam="2">  1       21 0.61724338E-01 0.30584620E+03</pdfrwt>
<totfact> 0.23269721E+05</totfact>
</mgrwt>
</event>
<event>
 8    1  0.9529436E-006  0.2753852E+03  0.7546771E-02  0.1098236E+00
         21   -1    0    0  504  503  0.00000000000E+00  0.00000000000E+00  0.34988559503E+03  0.34988559503E+03  0.00000000000E+00 0. -1.
         21   -1    0    0  503  504 -0.00000000000E+00 -0.00000000000E+00 -0.54186996183E+02  0.54186996183E+02  0.00000000000E+00 0. -1.
         25    2    1    2    0    0 -0.44389278719E+02 -0.15121327951E+02  0.98397871634E+02  0.16585209525E+03  0.12500285489E+03 0.  0.
         25    2    1    2    0    0  0.44389278719E+02  0.15121327951E+02  0.19730072722E+03  0.23822049597E+03  0.12498946002E+03 0.  0.
          5    1    3    3  501    0 -0.29606634777E+02 -0.15843534750E+02  0.12800511364E+03  0.13241967201E+03  0.47000000000E+01 0. -1.
         -5    1    3    3    0  501 -0.14782643942E+02  0.72220679838E+00 -0.29607242006E+02  0.33432423241E+02  0.47000000000E+01 0. -1.
          5    1    4    4  502    0  0.26218983334E+02  0.14848991500E+02 -0.84263405137E+01  0.31638913541E+02  0.47000000000E+01 0.  1.
         -5    1    4    4    0  502  0.18170295385E+02  0.27233645129E+00  0.20572706773E+03  0.20658158243E+03  0.47000000000E+01 0.  1.
<mgrwt>
<rscale>  0 0.27538518E+03</rscale>
<asrwt>0</asrwt>
<pdfrwt beam="1">  1       21 0.53828552E-01 0.27538518E+03</pdfrwt>
<pdfrwt beam="2">  1       21 0.83364612E-02 0.27538518E+03</pdfrwt>
<totfact> 0.35771687E+05</totfact>
</mgrwt>
</event>
<event>
 8    1  0.9529436E-006  0.4043277E+03  0.7546771E-02  0.1042291E+00
         21   -1    0    0  504  503  0.00000000000E+00  0.00000000000E+00  0.18363648365E+04  0.18363648365E+04  0.00000000000E+00 0. -1.
         21   -1    0    0  503  504 -0.00000000000E+00 -0.00000000000E+00 -0.22256043621E+02  0.22256043621E+02  0.00000000000E+00 0. -1.
         25    2    1    2    0    0 -0.73215306443E+02  0.13836297935E+03  0.10321100146E+04  0.10513707612E+04  0.12499840008E+03 0.  0.
         25    2    1    2    0    0  0.73215306443E+02 -0.13836297935E+03  0.78199877833E+03  0.80725011902E+03  0.12500348072E+03 0.  0.
          5    1    3    3  501    0 -0.30630719792E+02  0.11470275223E+03  0.93605713724E+03  0.94356770639E+03  0.47000000000E+01 0. -1.
         -5    1    3    3    0  501 -0.42584586650E+02  0.23660227121E+02  0.96052877359E+02  0.10780305476E+03  0.47000000000E+01 0. -1.
          5    1    4    4  502    0  0.32824688489E+02 -0.10804612549E+03  0.71139160579E+03  0.72031349577E+03  0.47000000000E+01 0. -1.
         -5    1    4    4    0  502  0.40390617953E+02 -0.30316853865E+02  0.70607172548E+02  0.86936623250E+02  0.47000000000E+01 0. -1.
<mgrwt>
<rscale>  0 0.40432767E+03</rscale>
<asrwt>0</asrwt>
<pdfrwt beam="1">  1       21 0.28251755E+00 0.40432767E+03</pdfrwt>
<pdfrwt beam="2">  1       21 0.34240081E-02 0.40432767E+03</pdfrwt>
<totfact> 0.19074517E+04</totfact>
</mgrwt>
</event>
<event>
 8    1  0.9529436E-006  0.2540896E+03  0.7546771E-02  0.1110747E+00
         21   -1    0    0  504  503  0.00000000000E+00  0.00000000000E+00  0.46456884938E+03  0.46456884938E+03  0.00000000000E+00 0.  1.
         21   -1    0    0  503  504 -0.00000000000E+00 -0.00000000000E+00 -0.34742718295E+02  0.34742718295E+02  0.00000000000E+00 0.  1.
         25    2    1    2    0    0 -0.45968197891E+01  0.77450527010E+01  0.17394380525E+03  0.21438667635E+03  0.12499633203E+03 0.  0.
         25    2    1    2    0    0  0.45968197891E+01 -0.77450527010E+01  0.25588232584E+03  0.28492489132E+03  0.12500124969E+03 0.  0.
          5    1    3    3  501    0  0.30223878980E+00 -0.58050618733E+02  0.68490729413E+02  0.89905704486E+02  0.47000000000E+01 0.  1.
         -5    1    3    3    0  501 -0.48990585789E+01  0.65795671434E+02  0.10545307583E+03  0.12448097187E+03  0.47000000000E+01 0.  1.
          5    1    4    4  502    0  0.12982261754E+02  0.69978922683E+01  0.26476036834E+03  0.26521246626E+03  0.47000000000E+01 0.  1.
         -5    1    4    4    0  502 -0.83854419644E+01 -0.14742944969E+02 -0.88780424982E+01  0.19712425064E+02  0.47000000000E+01 0.  1.
<mgrwt>
<rscale>  0 0.25408963E+03</rscale>
<asrwt>0</asrwt>
<pdfrwt beam="1">  1       21 0.71472126E-01 0.25408963E+03</pdfrwt>
<pdfrwt beam="2">  1       21 0.53450339E-02 0.25408963E+03</pdfrwt>
<totfact> 0.41900502E+05</totfact>
</mgrwt>
</event>
<event>
 8    1  0.9529436E-006  0.3837347E+03  0.7546771E-02  0.1049562E+00
         21   -1    0    0  504  503  0.00000000000E+00  0.00000000000E+00  0.40618245210E+03  0.40618245210E+03  0.00000000000E+00 0. -1.
         21   -1    0    0  503  504 -0.00000000000E+00 -0.00000000000E+00 -0.90631903274E+02  0.90631903274E+02  0.00000000000E+00 0. -1.
         25    2    1    2    0    0  0.13571961438E+03 -0.50704493920E+02  0.13954257963E+03  0.23682779165E+03  0.12499804773E+03 0.  0.
         25    2    1    2    0    0 -0.13571961438E+03  0.50704493920E+02  0.17600796920E+03  0.25998656373E+03  0.12499379452E+03 0.  0.
          5    1    3    3  501    0  0.57959810682E+02 -0.77487219312E+02  0.33413961280E+02  0.10248020111E+03  0.47000000000E+01 0. -1.
         -5    1    3    3    0  501  0.77759803694E+02  0.26782725392E+02  0.10612861835E+03  0.13434759054E+03  0.47000000000E+01 0. -1.
          5    1    4    4  502    0 -0.15227738316E+03  0.58511200772E+02  0.17738316881E+03  0.24103701089E+03  0.47000000000E+01 0.  1.
         -5    1    4    4    0  502  0.16557768786E+02 -0.78067068513E+01 -0.13751996165E+01  0.18949552845E+02  0.47000000000E+01 0.  1.
<mgrwt>
<rscale>  0 0.38373475E+03</rscale>
<asrwt>0</asrwt>
<pdfrwt beam="1">  1       21 0.62489607E-01 0.38373475E+03</pdfrwt>
<pdfrwt beam="2">  1       21 0.13943370E-01 0.38373475E+03</pdfrwt>
<totfact> 0.10044117E+05</totfact>
</mgrwt>
</event>
<event>
 8    1  0.9529436E-006  0.3202610E+03  0.7546771E-02  0.1075529E+00
         21   -1    0    0  504  503  0.00000000000E+00  0.00000000000E+00  0.22146936749E+03  0.22146936749E+03  0.00000000000E+00 0. -1.
         21   -1    0    0  503  504 -0.00000000000E+00 -0.00000000000E+00 -0.11578023873E+03  0.11578023873E+03  0.00000000000E+00 0. -1.
         25    2    1    2    0    0  0.25801838335E+02 -0.64569487431E+02 -0.22961829895E+02  0.14486713925E+03  0.12499715530E+03 0.  0.
         25    2    1    2    0    0 -0.25801838335E+02  0.64569487431E+02  0.12865095866E+03  0.19238246697E+03  0.12499996345E+03 0.  0.
          5    1    3    3  501    0  0.46367226399E+02 -0.21708303866E+02  0.40490254544E+02  0.65442500362E+02  0.47000000000E+01 0. -1.
         -5    1    3    3    0  501 -0.20565388064E+02 -0.42861183565E+02 -0.63452084438E+02  0.79424638887E+02  0.47000000000E+01 0. -1.
          5    1    4    4  502    0 -0.16696145444E+02  0.10212137311E+03  0.85919887156E+02  0.13458028506E+03  0.47000000000E+01 0. -1.
         -5    1    4    4    0  502 -0.91056928907E+01 -0.37551885679E+02  0.42731071500E+02  0.57802181902E+02  0.47000000000E+01 0. -1.
<mgrwt>
<rscale>  0 0.32026100E+03</rscale>
<asrwt>0</asrwt>
<pdfrwt beam="1">  1       21 0.34072210E-01 0.32026100E+03</pdfrwt>
<pdfrwt beam="2">  1       21 0.17812345E-01 0.32026100E+03</pdfrwt>
<totfact> 0.23019585E+05</totfact>
</mgrwt>
</event>
<event>
 8    1  0.9529436E-006  0.3219681E+03  0.7546771E-02  0.1074747E+00
         21   -1    0    0  504  503  0.00000000000E+00  0.00000000000E+00  0.98614612182E+02  0.98614612182E+02  0.00000000000E+00 0. -1.
         21   -1    0    0  503  504 -0.00000000000E+00 -0.00000000000E+00 -0.26279938872E+03  0.26279938872E+03  0.00000000000E+00 0. -1.
         25    2    1    2    0    0  0.74203002083E+02  0.25891210800E+02 -0.10059741772E+02  0.14798759340E+03  0.12499075598E+03 0.  0.
         25    2    1    2    0    0 -0.74203002083E+02 -0.25891210800E+02 -0.15412503477E+03  0.21342640750E+03  0.12497945737E+03 0.  0.
          5    1    3    3  501    0  0.10313546140E+03  0.30613106509E+02 -0.30524506569E+02  0.11192819658E+03  0.47000000000E+01 0. -1.
         -5    1    3    3    0  501 -0.28932459312E+02 -0.47218957083E+01  0.20464764797E+02  0.36059396821E+02  0.47000000000E+01 0. -1.
          5    1    4    4  502    0  0.32984528670E+02 -0.21553804766E+02 -0.50232299482E+02  0.64014994671E+02  0.47000000000E+01 0. -1.
         -5    1    4    4    0  502 -0.10718753075E+03 -0.43374060349E+01 -0.10389273528E+03  0.14941141283E+03  0.47000000000E+01 0. -1.
<mgrwt>
<rscale>  0 0.32196807E+03</rscale>
<asrwt>0</asrwt>
<pdfrwt beam="1">  1       21 0.15171479E-01 0.32196807E+03</pdfrwt>
<pdfrwt beam="2">  1       21 0.40430676E-01 0.32196807E+03</pdfrwt>
<totfact> 0.21922145E+05</totfact>
</mgrwt>
</event>
<event>
 8    1  0.9529436E-006  0.7610940E+03  0.7546771E-02  0.9618105E-01
         21   -1    0    0  504  503  0.00000000000E+00  0.00000000000E+00  0.92493850874E+03  0.92493850874E+03  0.00000000000E+00 0.  1.
         21   -1    0    0  503  504 -0.00000000000E+00 -0.00000000000E+00 -0.15656828475E+03  0.15656828475E+03  0.00000000000E+00 0.  1.
         25    2    1    2    0    0 -0.18187413068E+03 -0.31811496868E+02  0.82239101981E+03  0.85208182872E+03  0.12500513042E+03 0.  0.
         25    2    1    2    0    0  0.18187413068E+03  0.31811496868E+02 -0.54020795823E+02  0.22942496477E+03  0.12500958896E+03 0.  0.
          5    1    3    3  501    0 -0.10727621082E+03 -0.79140096481E+02  0.53521181623E+03  0.55158418987E+03  0.47000000000E+01 0. -1.
         -5    1    3    3    0  501 -0.74597919857E+02  0.47328599613E+02  0.28717920357E+03  0.30049763885E+03  0.47000000000E+01 0. -1.
          5    1    4    4  502    0  0.57871284255E+02  0.32903146099E+02 -0.78398162582E+02  0.10295661446E+03  0.47000000000E+01 0.  1.
         -5    1    4    4    0  502  0.12400284643E+03 -0.10916492304E+01  0.24377366758E+02  0.12646835031E+03  0.47000000000E+01 0.  1.
<mgrwt>
<rscale>  0 0.76109404E+03</rscale>
<asrwt>0</asrwt>
<pdfrwt beam="1">  1       21 0.14229823E+00 0.76109404E+03</pdfrwt>
<pdfrwt beam="2">  1       21 0.24087429E-01 0.76109404E+03</pdfrwt>
<totfact> 0.44818041E+03</totfact>
</mgrwt>
</event>
<event>
 8    1  0.9529436E-006  0.3858871E+03  0.7546771E-02  0.1048779E+00
         21   -1    0    0  504  503  0.00000000000E+00  0.00000000000E+00  0.15222826368E+03  0.15222826368E+03  0.00000000000E+00 0. -1.
         21   -1    0    0  503  504 -0.00000000000E+00 -0.00000000000E+00 -0.24454865601E+03  0.24454865601E+03  0.00000000000E+00 0. -1.
         25    2    1    2    0    0 -0.13408507218E+03 -0.55923420697E+02 -0.23247711117E+02  0.19305867184E+03  0.12499983655E+03 0.  0.
         25    2    1    2    0    0  0.13408507218E+03  0.55923420697E+02 -0.69072681219E+02  0.20371824784E+03  0.12499541451E+03 0.  0.
          5    1    3    3  501    0 -0.94714183072E+02 -0.88201633770E+01  0.41340894085E+02  0.10382548474E+03  0.47000000000E+01 0.  1.
         -5    1    3    3    0  501 -0.39370889108E+02 -0.47103257320E+02 -0.64588605203E+02  0.89233187107E+02  0.47000000000E+01 0.  1.
          5    1    4    4  502    0  0.14084945077E+02  0.19764286529E+02 -0.74186014143E+02  0.78196338752E+02  0.47000000000E+01 0. -1.
         -5    1    4    4    0  502  0.12000012710E+03  0.36159134167E+02  0.51133329240E+01  0.12552190909E+03  0.47000000000E+01 0. -1.
<mgrwt>
<rscale>  0 0.38588712E+03</rscale>
<asrwt>0</asrwt>
<pdfrwt beam="1">  1       21 0.23419733E-01 0.38588712E+03</pdfrwt>
<pdfrwt beam="2">  1       21 0.37622870E-01 0.38588712E+03</pdfrwt>
<totfact> 0.11061214E+05</totfact>
</mgrwt>
</event>
<event>
 8    1  0.9529436E-006  0.2744898E+03  0.7546771E-02  0.1098737E+00
         21   -1    0    0  504  503  0.00000000000E+00  0.00000000000E+00  0.38496597768E+02  0.38496597768E+02  0.00000000000E+00 0. -1.
         21   -1    0    0  503  504 -0.00000000000E+00 -0.00000000000E+00 -0.48929420383E+03  0.48929420383E+03  0.00000000000E+00 0. -1.
         25    2    1    2    0    0 -0.57823096302E+01 -0.51024618474E+02 -0.27144776693E+03  0.30322672183E+03  0.12500243143E+03 0.  0.
         25    2    1    2    0    0  0.57823096302E+01  0.51024618474E+02 -0.17934983912E+03  0.22456407976E+03  0.12500285729E+03 0.  0.
          5    1    3    3  501    0 -0.35190068689E+02  0.30868624020E+02 -0.78574512159E+02  0.91581967899E+02  0.47000000000E+01 0.  1.
         -5    1    3    3    0  501  0.29407759059E+02 -0.81893242495E+02 -0.19287325477E+03  0.21164475393E+03  0.47000000000E+01 0.  1.
          5    1    4    4  502    0 -0.51161610437E+02  0.37964524765E+02 -0.45455942936E+02  0.78403751641E+02  0.47000000000E+01 0.  1.
         -5    1    4    4    0  502  0.56943920067E+02  0.13060093709E+02 -0.13389389619E+03  0.14616032812E+03  0.47000000000E+01 0.  1.
<mgrwt>
<rscale>  0 0.27448980E+03</rscale>
<asrwt>0</asrwt>
<pdfrwt beam="1">  1       21 0.59225532E-02 0.27448980E+03</pdfrwt>
<pdfrwt beam="2">  1       21 0.75276036E-01 0.27448980E+03</pdfrwt>
<totfact> 0.31138081E+05</totfact>
</mgrwt>
</event>
<event>
 8    1  0.9529436E-006  0.3024617E+03  0.7546771E-02  0.1084016E+00
         21   -1    0    0  504  503  0.00000000000E+00  0.00000000000E+00  0.55723395389E+03  0.55723395389E+03  0.00000000000E+00 0. -1.
         21   -1    0    0  503  504 -0.00000000000E+00 -0.00000000000E+00 -0.41043376854E+02  0.41043376854E+02  0.00000000000E+00 0. -1.
         25    2    1    2    0    0  0.66347484427E+02 -0.39351052447E+02  0.32926805813E+03  0.36054463520E+03  0.12499794340E+03 0.  0.
         25    2    1    2    0    0 -0.66347484427E+02  0.39351052447E+02  0.18692251891E+03  0.23773269554E+03  0.12500524963E+03 0.  0.
          5    1    3    3  501    0  0.96719100324E+02 -0.18114987835E+02  0.16576684479E+03  0.19283016875E+03  0.47000000000E+01 0. -1.
         -5    1    3    3    0  501 -0.30371615897E+02 -0.21236064612E+02  0.16350121334E+03  0.16771446645E+03  0.47000000000E+01 0. -1.
          5    1    4    4  502    0  0.35092338674E+02 -0.41668845900E+00  0.28765212788E+02  0.45619878667E+02  0.47000000000E+01 0.  1.
         -5    1    4    4    0  502 -0.10143982310E+03  0.39767740906E+02  0.15815730613E+03  0.19211281688E+03  0.47000000000E+01 0.  1.
<mgrwt>
<rscale>  0 0.30246165E+03</rscale>
<asrwt>0</asrwt>
<pdfrwt beam="1">  1       21 0.85728295E-01 0.30246165E+03</pdfrwt>
<pdfrwt beam="2">  1       21 0.63143661E-02 0.30246165E+03</pdfrwt>
<totfact> 0.20572385E+05</totfact>
</mgrwt>
</event>
<event>
 8    1  0.9529436E-006  0.3181101E+03  0.7546771E-02  0.1076522E+00
         21   -1    0    0  504  503  0.00000000000E+00  0.00000000000E+00  0.13942458574E+03  0.13942458574E+03  0.00000000000E+00 0.  1.
         21   -1    0    0  503  504 -0.00000000000E+00 -0.00000000000E+00 -0.18144943646E+03  0.18144943646E+03  0.00000000000E+00 0.  1.
         25    2    1    2    0    0 -0.39615486515E+02 -0.89541544040E+02 -0.11651259728E+02  0.15920839031E+03  0.12499793923E+03 0.  0.
         25    2    1    2    0    0  0.39615486515E+02  0.89541544040E+02 -0.30373590991E+02  0.16166563190E+03  0.12500458642E+03 0.  0.
          5    1    3    3  501    0 -0.44996682333E+02  0.11378720227E+02  0.23329686801E+02  0.52158805405E+02  0.47000000000E+01 0. -1.
         -5    1    3    3    0  501  0.53811958180E+01 -0.10092026427E+03 -0.34980946529E+02  0.10704958490E+03  0.47000000000E+01 0. -1.
          5    1    4    4  502    0  0.50423107818E+02 -0.11953508678E+02 -0.28809843248E+02  0.59476661302E+02  0.47000000000E+01 0. -1.
         -5    1    4    4    0  502 -0.10807621302E+02  0.10149505272E+03 -0.15637477434E+01  0.10218897060E+03  0.47000000000E+01 0. -1.
<mgrwt>
<rscale>  0 0.31811012E+03</rscale>
<asrwt>0</asrwt>
<pdfrwt beam="1">  1       21 0.21449936E-01 0.31811012E+03</pdfrwt>
<pdfrwt beam="2">  1       21 0.27915298E-01 0.31811012E+03</pdfrwt>
<totfact> 0.24065261E+05</totfact>
</mgrwt>
</event>
<event>
 8    1  0.9529436E-006  0.2956845E+03  0.7546771E-02  0.1087418E+00
         21   -1    0    0  504  503  0.00000000000E+00  0.00000000000E+00  0.23720285845E+03  0.23720285845E+03  0.00000000000E+00 0.  1.
         21   -1    0    0  503  504 -0.00000000000E+00 -0.00000000000E+00 -0.92146131396E+02  0.92146131396E+02  0.00000000000E+00 0.  1.
         25    2    1    2    0    0  0.65296157289E+02 -0.24817912150E+02  0.31565197942E+02  0.14663385286E+03  0.12500243263E+03 0.  0.
         25    2    1    2    0    0 -0.65296157289E+02  0.24817912150E+02  0.11349152911E+03  0.18271513699E+03  0.12499990873E+03 0.  0.
          5    1    3    3  501    0  0.10868185623E+02 -0.68243106096E+02  0.33241517837E+02  0.76826606696E+02  0.47000000000E+01 0. -1.
         -5    1    3    3    0  501  0.54427971666E+02  0.43425193946E+02 -0.16763198952E+01  0.69807246167E+02  0.47000000000E+01 0. -1.
          5    1    4    4  502    0  0.74233489933E-01 -0.44274292247E+02  0.18521431978E+02  0.48221902773E+02  0.47000000000E+01 0.  1.
         -5    1    4    4    0  502 -0.65370390779E+02  0.69092204396E+02  0.94970097135E+02  0.13449323421E+03  0.47000000000E+01 0.  1.
<mgrwt>
<rscale>  0 0.29568447E+03</rscale>
<asrwt>0</asrwt>
<pdfrwt beam="1">  1       21 0.36492747E-01 0.29568447E+03</pdfrwt>
<pdfrwt beam="2">  1       21 0.14176328E-01 0.29568447E+03</pdfrwt>
<totfact> 0.30739134E+05</totfact>
</mgrwt>
</event>
<event>
 8    1  0.9529436E-006  0.2942844E+03  0.7546771E-02  0.1088133E+00
         21   -1    0    0  504  503  0.00000000000E+00  0.00000000000E+00  0.18816444462E+03  0.18816444462E+03  0.00000000000E+00 0.  1.
         21   -1    0    0  503  504 -0.00000000000E+00 -0.00000000000E+00 -0.11506335224E+03  0.11506335224E+03  0.00000000000E+00 0.  1.
         25    2    1    2    0    0  0.11068715144E+01  0.65308440168E+02  0.79784610586E+02  0.16204075350E+03  0.12500081675E+03 0.  0.
         25    2    1    2    0    0 -0.11068715144E+01 -0.65308440168E+02 -0.66835182076E+01  0.14118704336E+03  0.12499077676E+03 0.  0.
          5    1    3    3  501    0  0.32351588988E+02  0.93041526175E+02  0.50414760936E+02  0.11075689154E+03  0.47000000000E+01 0.  1.
         -5    1    3    3    0  501 -0.31244717474E+02 -0.27733086007E+02  0.29369849650E+02  0.51283861964E+02  0.47000000000E+01 0.  1.
          5    1    4    4  502    0 -0.10199011410E-01 -0.87449608038E+02 -0.43631837157E+02  0.97843044023E+02  0.47000000000E+01 0. -1.
         -5    1    4    4    0  502 -0.10966725030E+01  0.22141167870E+02  0.36948318949E+02  0.43343999336E+02  0.47000000000E+01 0. -1.
<mgrwt>
<rscale>  0 0.29428443E+03</rscale>
<asrwt>0</asrwt>
<pdfrwt beam="1">  1       21 0.28948376E-01 0.29428443E+03</pdfrwt>
<pdfrwt beam="2">  1       21 0.17702054E-01 0.29428443E+03</pdfrwt>
<totfact> 0.32325901E+05</totfact>
</mgrwt>
</event>
<event>
 8    1  0.9529436E-006  0.4327395E+03  0.7546771E-02  0.1032998E+00
         21   -1    0    0  504  503  0.00000000000E+00  0.00000000000E+00  0.72409239528E+02  0.72409239528E+02  0.00000000000E+00 0. -1.
         21   -1    0    0  503  504 -0.00000000000E+00 -0.00000000000E+00 -0.64654565090E+03  0.64654565090E+03  0.00000000000E+00 0. -1.
         25    2    1    2    0    0 -0.13614276054E+03 -0.74233351267E+02 -0.42751527477E+03  0.47163179203E+03  0.12498718096E+03 0.  0.
         25    2    1    2    0    0  0.13614276054E+03  0.74233351267E+02 -0.14662113661E+03  0.24732309840E+03  0.12500206244E+03 0.  0.
          5    1    3    3  501    0 -0.43379635753E+02 -0.94908749274E+01 -0.20448553094E+02  0.49113163496E+02  0.47000000000E+01 0.  1.
         -5    1    3    3    0  501 -0.92763124792E+02 -0.64742476340E+02 -0.40706672167E+03  0.42251862853E+03  0.47000000000E+01 0.  1.
          5    1    4    4  502    0 -0.19748628813E+02 -0.91371442800E+01 -0.14409745585E+02  0.26518418380E+02  0.47000000000E+01 0. -1.
         -5    1    4    4    0  502  0.15589138936E+03  0.83370495547E+02 -0.13221139102E+03  0.22080468002E+03  0.47000000000E+01 0. -1.
<mgrwt>
<rscale>  0 0.43273955E+03</rscale>
<asrwt>0</asrwt>
<pdfrwt beam="1">  1       21 0.11139884E-01 0.43273955E+03</pdfrwt>
<pdfrwt beam="2">  1       21 0.99468556E-01 0.43273955E+03</pdfrwt>
<totfact> 0.51309672E+04</totfact>
</mgrwt>
</event>
<event>
 8    1  0.9529436E-006  0.2718395E+03  0.7546771E-02  0.1100231E+00
         21   -1    0    0  504  503  0.00000000000E+00  0.00000000000E+00  0.12672862342E+03  0.12672862342E+03  0.00000000000E+00 0.  1.
         21   -1    0    0  503  504 -0.00000000000E+00 -0.00000000000E+00 -0.14577750419E+03  0.14577750419E+03  0.00000000000E+00 0.  1.
         25    2    1    2    0    0 -0.12775844350E+02 -0.50070246482E+02  0.39508044939E+01  0.13530882919E+03  0.12499047411E+03 0.  0.
         25    2    1    2    0    0  0.12775844350E+02  0.50070246482E+02 -0.22999685265E+02  0.13719729842E+03  0.12499544548E+03 0.  0.
          5    1    3    3  501    0  0.36434518112E+02 -0.25140207798E+02  0.47329292713E+02  0.64974272653E+02  0.47000000000E+01 0. -1.
         -5    1    3    3    0  501 -0.49210362462E+02 -0.24930038684E+02 -0.43378488219E+02  0.70334556532E+02  0.47000000000E+01 0. -1.
          5    1    4    4  502    0  0.48406427456E+01  0.84703424625E+02  0.13506614433E+02  0.86038483244E+02  0.47000000000E+01 0. -1.
         -5    1    4    4    0  502  0.79352016046E+01 -0.34633178143E+02 -0.36506299698E+02  0.51158815179E+02  0.47000000000E+01 0. -1.
<mgrwt>
<rscale>  0 0.27183953E+03</rscale>
<asrwt>0</asrwt>
<pdfrwt beam="1">  1       21 0.19496711E-01 0.27183953E+03</pdfrwt>
<pdfrwt beam="2">  1       21 0.22427308E-01 0.27183953E+03</pdfrwt>
<totfact> 0.44351863E+05</totfact>
</mgrwt>
</event>
<event>
 8    1  0.9529436E-006  0.2758253E+03  0.7546771E-02  0.1097991E+00
         21   -1    0    0  504  503  0.00000000000E+00  0.00000000000E+00  0.32761807061E+03  0.32761807061E+03  0.00000000000E+00 0. -1.
         21   -1    0    0  503  504 -0.00000000000E+00 -0.00000000000E+00 -0.58055081762E+02  0.58055081762E+02  0.00000000000E+00 0. -1.
         25    2    1    2    0    0 -0.32313130908E+02 -0.45757603249E+02  0.15723600310E+03  0.20853105223E+03  0.12499656952E+03 0.  0.
         25    2    1    2    0    0  0.32313130908E+02  0.45757603249E+02  0.11232698575E+03  0.17714210013E+03  0.12499630086E+03 0.  0.
          5    1    3    3  501    0  0.29210282298E+02  0.26465378855E+02  0.30049960745E+02  0.49787016487E+02  0.47000000000E+01 0.  1.
         -5    1    3    3    0  501 -0.61523413206E+02 -0.72222982104E+02  0.12718604235E+03  0.15874403575E+03  0.47000000000E+01 0.  1.
          5    1    4    4  502    0  0.22729763473E+02  0.56277409981E+02  0.13606890650E+03  0.14906584565E+03  0.47000000000E+01 0.  1.
         -5    1    4    4    0  502  0.95833674354E+01 -0.10519806732E+02 -0.23741920753E+02  0.28076254489E+02  0.47000000000E+01 0.  1.
<mgrwt>
<rscale>  0 0.27582526E+03</rscale>
<asrwt>0</asrwt>
<pdfrwt beam="1">  1       21 0.50402779E-01 0.27582526E+03</pdfrwt>
<pdfrwt beam="2">  1       21 0.89315512E-02 0.27582526E+03</pdfrwt>
<totfact> 0.36404707E+05</totfact>
</mgrwt>
</event>
<event>
 8    1  0.9529436E-006  0.2726705E+03  0.7546771E-02  0.1099761E+00
         21   -1    0    0  504  503  0.00000000000E+00  0.00000000000E+00  0.36707452482E+02  0.36707452482E+02  0.00000000000E+00 0. -1.
         21   -1    0    0  503  504 -0.00000000000E+00 -0.00000000000E+00 -0.50636296679E+03  0.50636296679E+03  0.00000000000E+00 0. -1.
         25    2    1    2    0    0 -0.13900243620E+02 -0.34592529764E+02 -0.31382394235E+03  0.33985394473E+03  0.12500150828E+03 0.  0.
         25    2    1    2    0    0  0.13900243620E+02  0.34592529764E+02 -0.15583157196E+03  0.20321647453E+03  0.12499438714E+03 0.  0.
          5    1    3    3  501    0 -0.40438740360E+02  0.43266149677E+01 -0.27664958009E+03  0.27966245991E+03  0.47000000000E+01 0. -1.
         -5    1    3    3    0  501  0.26538496740E+02 -0.38919144731E+02 -0.37174362252E+02  0.60191484819E+02  0.47000000000E+01 0. -1.
          5    1    4    4  502    0 -0.26227575292E+02  0.18847019570E+02  0.81162871777E+01  0.33631235034E+02  0.47000000000E+01 0. -1.
         -5    1    4    4    0  502  0.40127818911E+02  0.15745510194E+02 -0.16394785913E+03  0.16958523950E+03  0.47000000000E+01 0. -1.
<mgrwt>
<rscale>  0 0.27267046E+03</rscale>
<asrwt>0</asrwt>
<pdfrwt beam="1">  1       21 0.56473003E-02 0.27267046E+03</pdfrwt>
<pdfrwt beam="2">  1       21 0.77901996E-01 0.27267046E+03</pdfrwt>
<totfact> 0.31286131E+05</totfact>
</mgrwt>
</event>
<event>
 8    1  0.9529436E-006  0.2632064E+03  0.7546771E-02  0.1105232E+00
         21   -1    0    0  504  503  0.00000000000E+00  0.00000000000E+00  0.36379788815E+02  0.36379788815E+02  0.00000000000E+00 0. -1.
         21   -1    0    0  503  504 -0.00000000000E+00 -0.00000000000E+00 -0.47607197163E+03  0.47607197163E+03  0.00000000000E+00 0. -1.
         25    2    1    2    0    0  0.38285089877E+02  0.10885691998E+02 -0.19934855974E+03  0.23864487943E+03  0.12500913490E+03 0.  0.
         25    2    1    2    0    0 -0.38285089877E+02 -0.10885691998E+02 -0.24034362308E+03  0.27380688102E+03  0.12498361710E+03 0.  0.
          5    1    3    3  501    0  0.27342069583E+02 -0.26985795520E+02 -0.19488942852E+03  0.19869524725E+03  0.47000000000E+01 0. -1.
         -5    1    3    3    0  501  0.10943020294E+02  0.37871487518E+02 -0.44591312171E+01  0.39949632178E+02  0.47000000000E+01 0. -1.
          5    1    4    4  502    0  0.40614876714E+02 -0.21783254337E+02 -0.12708904037E+03  0.13526933341E+03  0.47000000000E+01 0.  1.
         -5    1    4    4    0  502 -0.78899966591E+02  0.10897562339E+02 -0.11325458271E+03  0.13853754761E+03  0.47000000000E+01 0.  1.
<mgrwt>
<rscale>  0 0.26320637E+03</rscale>
<asrwt>0</asrwt>
<pdfrwt beam="1">  1       21 0.55968908E-02 0.26320637E+03</pdfrwt>
<pdfrwt beam="2">  1       21 0.73241839E-01 0.26320637E+03</pdfrwt>
<totfact> 0.36589724E+05</totfact>
</mgrwt>
</event>
<event>
 8    1  0.9529436E-006  0.3800263E+03  0.7546771E-02  0.1050924E+00
         21   -1    0    0  504  503  0.00000000000E+00  0.00000000000E+00  0.18212821666E+03  0.18212821666E+03  0.00000000000E+00 0. -1.
         21   -1    0    0  503  504 -0.00000000000E+00 -0.00000000000E+00 -0.19823943863E+03  0.19823943863E+03  0.00000000000E+00 0. -1.
         25    2    1    2    0    0 -0.15363942468E+02 -0.85296515959E+02  0.10592549157E+03  0.18535656151E+03  0.12500119506E+03 0.  0.
         25    2    1    2    0    0  0.15363942468E+02  0.85296515959E+02 -0.12203671354E+03  0.19501109379E+03  0.12499928355E+03 0.  0.
          5    1    3    3  501    0 -0.21034776055E+02 -0.90461697471E+02  0.15250161366E+02  0.94236075548E+02  0.47000000000E+01 0. -1.
         -5    1    3    3    0  501  0.56708335873E+01  0.51651815116E+01  0.90675330205E+02  0.91120485959E+02  0.47000000000E+01 0. -1.
          5    1    4    4  502    0  0.95621426602E+01  0.11618773114E+03 -0.11187550190E+03  0.16164541864E+03  0.47000000000E+01 0. -1.
         -5    1    4    4    0  502  0.58017998079E+01 -0.30891215183E+02 -0.10161211635E+02  0.33365675152E+02  0.47000000000E+01 0. -1.
<mgrwt>
<rscale>  0 0.38002629E+03</rscale>
<asrwt>0</asrwt>
<pdfrwt beam="1">  1       21 0.28019726E-01 0.38002629E+03</pdfrwt>
<pdfrwt beam="2">  1       21 0.30498375E-01 0.38002629E+03</pdfrwt>
<totfact> 0.11913732E+05</totfact>
</mgrwt>
</event>
<event>
 8    1  0.9529436E-006  0.2801646E+03  0.7546771E-02  0.1095599E+00
         21   -1    0    0  504  503  0.00000000000E+00  0.00000000000E+00  0.11002735826E+03  0.11002735826E+03  0.00000000000E+00 0.  1.
         21   -1    0    0  503  504 -0.00000000000E+00 -0.00000000000E+00 -0.17834695825E+03  0.17834695825E+03  0.00000000000E+00 0.  1.
         25    2    1    2    0    0  0.31434538639E+02 -0.34304991680E+02 -0.78230116160E+02  0.15462617036E+03  0.12499735522E+03 0.  0.
         25    2    1    2    0    0 -0.31434538639E+02  0.34304991680E+02  0.99105161686E+01  0.13374814615E+03  0.12500154236E+03 0.  0.
          5    1    3    3  501    0 -0.48654948464E+01 -0.29090037225E+02  0.28738904306E+02  0.41447773481E+02  0.47000000000E+01 0.  1.
         -5    1    3    3    0  501  0.36300033485E+02 -0.52149544555E+01 -0.10696902047E+03  0.11317839688E+03  0.47000000000E+01 0.  1.
          5    1    4    4  502    0 -0.41603085082E+02  0.77584857425E+02  0.10202448107E+01  0.88166647262E+02  0.47000000000E+01 0. -1.
         -5    1    4    4    0  502  0.10168546443E+02 -0.43279865745E+02  0.88902713579E+01  0.45581498884E+02  0.47000000000E+01 0. -1.
<mgrwt>
<rscale>  0 0.28016456E+03</rscale>
<asrwt>0</asrwt>
<pdfrwt beam="1">  1       21 0.16927286E-01 0.28016456E+03</pdfrwt>
<pdfrwt beam="2">  1       21 0.27437993E-01 0.28016456E+03</pdfrwt>
<totfact> 0.39112177E+05</totfact>
</mgrwt>
</event>
<event>
 8    1  0.9529436E-006  0.2532079E+03  0.7546771E-02  0.1111294E+00
         21   -1    0    0  504  503  0.00000000000E+00  0.00000000000E+00  0.39722077556E+02  0.39722077556E+02  0.00000000000E+00 0. -1.
         21   -1    0    0  503  504 -0.00000000000E+00 -0.00000000000E+00 -0.40351767693E+03  0.40351767693E+03  0.00000000000E+00 0. -1.
         25    2    1    2    0    0 -0.54435547376E+01 -0.68998793160E+01 -0.15017476303E+03  0.19557931484E+03  0.12498627253E+03 0.  0.
         25    2    1    2    0    0  0.54435547376E+01  0.68998793160E+01 -0.21362083635E+03  0.24766043964E+03  0.12499836407E+03 0.  0.
          5    1    3    3  501    0  0.43282126662E+02 -0.43196325907E+02 -0.96672576449E+02  0.11448555410E+03  0.47000000000E+01 0. -1.
         -5    1    3    3    0  501 -0.48725681400E+02  0.36296446591E+02 -0.53502186580E+02  0.81093760745E+02  0.47000000000E+01 0. -1.
          5    1    4    4  502    0  0.33708876371E+02 -0.44254637492E+02 -0.54246772076E+02  0.77843198588E+02  0.47000000000E+01 0.  1.
         -5    1    4    4    0  502 -0.28265321633E+02  0.51154516808E+02 -0.15937406427E+03  0.16981724106E+03  0.47000000000E+01 0.  1.
<mgrwt>
<rscale>  0 0.25320790E+03</rscale>
<asrwt>0</asrwt>
<pdfrwt beam="1">  1       21 0.61110888E-02 0.25320790E+03</pdfrwt>
<pdfrwt beam="2">  1       21 0.62079643E-01 0.25320790E+03</pdfrwt>
<totfact> 0.45404241E+05</totfact>
</mgrwt>
</event>
<event>
 8    1  0.9529436E-006  0.3286806E+03  0.7546771E-02  0.1071722E+00
         21   -1    0    0  504  503  0.00000000000E+00  0.00000000000E+00  0.11099273278E+03  0.11099273278E+03  0.00000000000E+00 0.  1.
         21   -1    0    0  503  504 -0.00000000000E+00 -0.00000000000E+00 -0.24332882562E+03  0.24332882562E+03  0.00000000000E+00 0.  1.
         25    2    1    2    0    0 -0.10541012444E+03 -0.74842811121E+01 -0.81778013957E+02  0.18300936697E+03  0.12504989418E+03 0.  0.
         25    2    1    2    0    0  0.10541012444E+03  0.74842811121E+01 -0.50558078878E+02  0.17131219142E+03  0.12499775515E+03 0.  0.
          5    1    3    3  501    0 -0.47239618316E+02 -0.61772168423E+02 -0.65217134550E+02  0.10160092012E+03  0.47000000000E+01 0.  1.
         -5    1    3    3    0  501 -0.58170506128E+02  0.54287887311E+02 -0.16560879407E+02  0.81408446851E+02  0.47000000000E+01 0.  1.
          5    1    4    4  502    0  0.70242029308E+02 -0.28819319770E+02  0.25186346451E+02  0.80130755150E+02  0.47000000000E+01 0. -1.
         -5    1    4    4    0  502  0.35168095137E+02  0.36303600882E+02 -0.75744425329E+02  0.91181436274E+02  0.47000000000E+01 0. -1.
<mgrwt>
<rscale>  0 0.32868058E+03</rscale>
<asrwt>0</asrwt>
<pdfrwt beam="1">  1       21 0.17075805E-01 0.32868058E+03</pdfrwt>
<pdfrwt beam="2">  1       21 0.37435204E-01 0.32868058E+03</pdfrwt>
<totfact> 0.20569777E+05</totfact>
</mgrwt>
</event>
<event>
 8    1  0.9529436E-006  0.2936099E+03  0.7546771E-02  0.1088479E+00
         21   -1    0    0  504  503  0.00000000000E+00  0.00000000000E+00  0.82937228126E+03  0.82937228126E+03  0.00000000000E+00 0. -1.
         21   -1    0    0  503  504 -0.00000000000E+00 -0.00000000000E+00 -0.25985543652E+02  0.25985543652E+02  0.00000000000E+00 0. -1.
         25    2    1    2    0    0 -0.52844196567E+02 -0.30666476592E+02  0.53813777063E+03  0.55583258323E+03  0.12499863402E+03 0.  0.
         25    2    1    2    0    0  0.52844196567E+02  0.30666476592E+02  0.26524896698E+03  0.29952524168E+03  0.12500165608E+03 0.  0.
          5    1    3    3  501    0  0.25262027447E+02 -0.52021795867E+02  0.22514736599E+03  0.23250347027E+03  0.47000000000E+01 0.  1.
         -5    1    3    3    0  501 -0.78106224014E+02  0.21355319275E+02  0.31299040465E+03  0.32332911297E+03  0.47000000000E+01 0.  1.
          5    1    4    4  502    0  0.24592504740E+02 -0.33217395464E+02  0.23356994115E+02  0.47705616283E+02  0.47000000000E+01 0. -1.
         -5    1    4    4    0  502  0.28251691827E+02  0.63883872056E+02  0.24189197286E+03  0.25181962540E+03  0.47000000000E+01 0. -1.
<mgrwt>
<rscale>  0 0.29360987E+03</rscale>
<asrwt>0</asrwt>
<pdfrwt beam="1">  1       21 0.12759572E+00 0.29360987E+03</pdfrwt>
<pdfrwt beam="2">  1       21 0.39977766E-02 0.29360987E+03</pdfrwt>
<totfact> 0.17169063E+05</totfact>
</mgrwt>
</event>
<event>
 8    1  0.9529436E-006  0.2895289E+03  0.7546771E-02  0.1090595E+00
         21   -1    0    0  504  503  0.00000000000E+00  0.00000000000E+00  0.11121164084E+03  0.11121164084E+03  0.00000000000E+00 0. -1.
         21   -1    0    0  503  504 -0.00000000000E+00 -0.00000000000E+00 -0.18844019020E+03  0.18844019020E+03  0.00000000000E+00 0. -1.
         25    2    1    2    0    0  0.32274528276E+02 -0.39584213972E+02 -0.92619599929E+02  0.16374623523E+03  0.12500353631E+03 0.  0.
         25    2    1    2    0    0 -0.32274528276E+02  0.39584213972E+02  0.15391050569E+02  0.13590559581E+03  0.12499956546E+03 0.  0.
          5    1    3    3  501    0  0.77755222331E+02 -0.89926309525E+01 -0.41834968039E+02  0.88876299214E+02  0.47000000000E+01 0. -1.
         -5    1    3    3    0  501 -0.45480694054E+02 -0.30591583020E+02 -0.50784631890E+02  0.74869936019E+02  0.47000000000E+01 0. -1.
          5    1    4    4  502    0  0.10609195636E+02  0.76460258562E+02  0.94072934778E+00  0.77341458114E+02  0.47000000000E+01 0.  1.
         -5    1    4    4    0  502 -0.42883723913E+02 -0.36876044590E+02  0.14450321221E+02  0.58564137701E+02  0.47000000000E+01 0.  1.
<mgrwt>
<rscale>  0 0.28952888E+03</rscale>
<asrwt>0</asrwt>
<pdfrwt beam="1">  1       21 0.17109483E-01 0.28952888E+03</pdfrwt>
<pdfrwt beam="2">  1       21 0.28990798E-01 0.28952888E+03</pdfrwt>
<totfact> 0.34372947E+05</totfact>
</mgrwt>
</event>
<event>
 8    1  0.9529436E-006  0.3775805E+03  0.7546771E-02  0.1051832E+00
         21   -1    0    0  504  503  0.00000000000E+00  0.00000000000E+00  0.51193300272E+03  0.51193300272E+03  0.00000000000E+00 0. -1.
         21   -1    0    0  503  504 -0.00000000000E+00 -0.00000000000E+00 -0.69621908515E+02  0.69621908515E+02  0.00000000000E+00 0. -1.
         25    2    1    2    0    0  0.10278882671E+01 -0.13984055965E+03  0.18822460585E+03  0.26573915184E+03  0.12502942011E+03 0.  0.
         25    2    1    2    0    0 -0.10278882671E+01  0.13984055965E+03  0.25408648836E+03  0.31581575940E+03  0.12499284636E+03 0.  0.
          5    1    3    3  501    0  0.56040907920E+02 -0.87152397105E+02  0.70400638361E+02  0.12535734348E+03  0.47000000000E+01 0.  1.
         -5    1    3    3    0  501 -0.55013019653E+02 -0.52688162547E+02  0.11782396749E+03  0.14038180836E+03  0.47000000000E+01 0.  1.
          5    1    4    4  502    0 -0.20875650526E+02 -0.13288087995E+02  0.75989759366E+02  0.80055603152E+02  0.47000000000E+01 0. -1.
         -5    1    4    4    0  502  0.19847762259E+02  0.15312864765E+03  0.17809672899E+03  0.23576015625E+03  0.47000000000E+01 0. -1.
<mgrwt>
<rscale>  0 0.37758047E+03</rscale>
<asrwt>0</asrwt>
<pdfrwt beam="1">  1       21 0.78758921E-01 0.37758047E+03</pdfrwt>
<pdfrwt beam="2">  1       21 0.10711063E-01 0.37758047E+03</pdfrwt>
<totfact> 0.96667574E+04</totfact>
</mgrwt>
</event>
<event>
 8    1  0.9529436E-006  0.3275545E+03  0.7546771E-02  0.1072224E+00
         21   -1    0    0  504  503  0.00000000000E+00  0.00000000000E+00  0.12333804271E+03  0.12333804271E+03  0.00000000000E+00 0. -1.
         21   -1    0    0  503  504 -0.00000000000E+00 -0.00000000000E+00 -0.21747535519E+03  0.21747535519E+03  0.00000000000E+00 0. -1.
         25    2    1    2    0    0  0.35229270861E+01 -0.96972276212E+02 -0.91017173050E+02  0.18255213375E+03  0.12500048950E+03 0.  0.
         25    2    1    2    0    0 -0.35229270861E+01  0.96972276212E+02 -0.31201394383E+01  0.15826126416E+03  0.12498343528E+03 0.  0.
          5    1    3    3  501    0  0.42383735179E+02 -0.88778256672E+02 -0.10127191667E+03  0.14126588750E+03  0.47000000000E+01 0. -1.
         -5    1    3    3    0  501 -0.38860808093E+02 -0.81940195401E+01  0.10254743624E+02  0.41286246241E+02  0.47000000000E+01 0. -1.
          5    1    4    4  502    0  0.36824774557E+02  0.85756248460E+02  0.36593449016E+02  0.10035620899E+03  0.47000000000E+01 0. -1.
         -5    1    4    4    0  502 -0.40347701643E+02  0.11216027753E+02 -0.39713588455E+02  0.57905055171E+02  0.47000000000E+01 0. -1.
<mgrwt>
<rscale>  0 0.32755448E+03</rscale>
<asrwt>0</asrwt>
<pdfrwt beam="1">  1       21 0.18975084E-01 0.32755448E+03</pdfrwt>
<pdfrwt beam="2">  1       21 0.33457747E-01 0.32755448E+03</pdfrwt>
<totfact> 0.21173452E+05</totfact>
</mgrwt>
</event>
<event>
 8    1  0.9529436E-006  0.2687371E+03  0.7546771E-02  0.1102005E+00
         21   -1    0    0  504  503  0.00000000000E+00  0.00000000000E+00  0.29237963986E+03  0.29237963986E+03  0.00000000000E+00 0.  1.
         21   -1    0    0  503  504 -0.00000000000E+00 -0.00000000000E+00 -0.61751603124E+02  0.61751603124E+02  0.00000000000E+00 0.  1.
         25    2    1    2    0    0  0.40153921709E+02  0.20765542204E+02  0.14121909926E+03  0.19393780251E+03  0.12500196828E+03 0.  0.
         25    2    1    2    0    0 -0.40153921709E+02 -0.20765542204E+02  0.89408937478E+02  0.16019344048E+03  0.12499774038E+03 0.  0.
          5    1    3    3  501    0 -0.37628965263E+02  0.42751622478E+01  0.84134021726E+01  0.39078016520E+02  0.47000000000E+01 0.  1.
         -5    1    3    3    0  501  0.77782886973E+02  0.16490379956E+02  0.13280569709E+03  0.15485978599E+03  0.47000000000E+01 0.  1.
          5    1    4    4  502    0 -0.50249681242E+02  0.29221208112E+02  0.91987883544E+02  0.10891634490E+03  0.47000000000E+01 0.  1.
         -5    1    4    4    0  502  0.10095759533E+02 -0.49986750316E+02 -0.25789460657E+01  0.51277095574E+02  0.47000000000E+01 0.  1.
<mgrwt>
<rscale>  0 0.26873713E+03</rscale>
<asrwt>0</asrwt>
<pdfrwt beam="1">  1       21 0.44981482E-01 0.26873713E+03</pdfrwt>
<pdfrwt beam="2">  1       21 0.95002468E-02 0.26873713E+03</pdfrwt>
<totfact> 0.41444635E+05</totfact>
</mgrwt>
</event>
<event>
 8    1  0.9529436E-006  0.3486407E+03  0.7546771E-02  0.1063174E+00
         21   -1    0    0  504  503  0.00000000000E+00  0.00000000000E+00  0.11669329826E+03  0.11669329826E+03  0.00000000000E+00 0. -1.
         21   -1    0    0  503  504 -0.00000000000E+00 -0.00000000000E+00 -0.26040554137E+03  0.26040554137E+03  0.00000000000E+00 0. -1.
         25    2    1    2    0    0  0.29698534653E+01  0.87188034599E+02 -0.16332921942E+03  0.22341109747E+03  0.12500204458E+03 0.  0.
         25    2    1    2    0    0 -0.29698534653E+01 -0.87188034599E+02  0.19616976305E+02  0.15368774217E+03  0.12499809169E+03 0.  0.
          5    1    3    3  501    0 -0.42849669166E+02 -0.57988631403E+01 -0.76962104715E+02  0.88402355870E+02  0.47000000000E+01 0.  1.
         -5    1    3    3    0  501  0.45819522631E+02  0.92986897739E+02 -0.86367114703E+02  0.13500874160E+03  0.47000000000E+01 0.  1.
          5    1    4    4  502    0  0.16685813362E+02 -0.44464013025E+02 -0.50272752944E+02  0.69317418521E+02  0.47000000000E+01 0.  1.
         -5    1    4    4    0  502 -0.19655666827E+02 -0.42724021574E+02  0.69889729248E+02  0.84370323647E+02  0.47000000000E+01 0.  1.
<mgrwt>
<rscale>  0 0.34864068E+03</rscale>
<asrwt>0</asrwt>
<pdfrwt beam="1">  1       21 0.17952815E-01 0.34864068E+03</pdfrwt>
<pdfrwt beam="2">  1       21 0.40062390E-01 0.34864068E+03</pdfrwt>
<totfact> 0.16247725E+05</totfact>
</mgrwt>
</event>
<event>
 8    1  0.9529436E-006  0.3597582E+03  0.7546771E-02  0.1058680E+00
         21   -1    0    0  504  503  0.00000000000E+00  0.00000000000E+00  0.10739482726E+04  0.10739482726E+04  0.00000000000E+00 0.  1.
         21   -1    0    0  503  504 -0.00000000000E+00 -0.00000000000E+00 -0.30128534228E+02  0.30128534228E+02  0.00000000000E+00 0.  1.
         25    2    1    2    0    0 -0.56720935714E+02 -0.14706213767E+02  0.16801427438E+03  0.21745734252E+03  0.12500144858E+03 0.  0.
         25    2    1    2    0    0  0.56720935714E+02  0.14706213767E+02  0.87580546395E+03  0.88661946427E+03  0.12500130584E+03 0.  0.
          5    1    3    3  501    0 -0.58958483701E+02 -0.56598324944E+02  0.60028383536E+02  0.10151339821E+03  0.47000000000E+01 0.  1.
         -5    1    3    3    0  501  0.22375479872E+01  0.41892111176E+02  0.10798589084E+03  0.11594394430E+03  0.47000000000E+01 0.  1.
          5    1    4    4  502    0  0.88127607183E+02 -0.20463185121E+02  0.58871404793E+03  0.59564380071E+03  0.47000000000E+01 0. -1.
         -5    1    4    4    0  502 -0.31406671470E+02  0.35169398888E+02  0.28709141602E+03  0.29097566356E+03  0.47000000000E+01 0. -1.
<mgrwt>
<rscale>  0 0.35975818E+03</rscale>
<asrwt>0</asrwt>
<pdfrwt beam="1">  1       21 0.16522278E+00 0.35975818E+03</pdfrwt>
<pdfrwt beam="2">  1       21 0.46351599E-02 0.35975818E+03</pdfrwt>
<totfact> 0.65764397E+04</totfact>
</mgrwt>
</event>
<event>
 8    1  0.9529436E-006  0.4111599E+03  0.7546771E-02  0.1039982E+00
         21   -1    0    0  504  503  0.00000000000E+00  0.00000000000E+00  0.10103448759E+03  0.10103448759E+03  0.00000000000E+00 0. -1.
         21   -1    0    0  503  504 -0.00000000000E+00 -0.00000000000E+00 -0.41830381690E+03  0.41830381690E+03  0.00000000000E+00 0. -1.
         25    2    1    2    0    0 -0.43675134332E+02 -0.13950263228E+03 -0.66937128769E+02  0.20364984046E+03  0.12499670612E+03 0.  0.
         25    2    1    2    0    0  0.43675134332E+02  0.13950263228E+03 -0.25033220055E+03  0.31568846403E+03  0.12499797566E+03 0.  0.
          5    1    3    3  501    0 -0.25104722147E+01 -0.84452274627E+02 -0.96786656772E+02  0.12856218764E+03  0.47000000000E+01 0.  1.
         -5    1    3    3    0  501 -0.41164662117E+02 -0.55050357653E+02  0.29849528002E+02  0.75087652826E+02  0.47000000000E+01 0.  1.
          5    1    4    4  502    0  0.98444875025E+00  0.12348493488E+03 -0.10137816381E+03  0.15984092211E+03  0.47000000000E+01 0.  1.
         -5    1    4    4    0  502  0.42690685582E+02  0.16017697402E+02 -0.14895403673E+03  0.15584754192E+03  0.47000000000E+01 0.  1.
<mgrwt>
<rscale>  0 0.41115988E+03</rscale>
<asrwt>0</asrwt>
<pdfrwt beam="1">  1       21 0.15543767E-01 0.41115988E+03</pdfrwt>
<pdfrwt beam="2">  1       21 0.64354435E-01 0.41115988E+03</pdfrwt>
<totfact> 0.76548292E+04</totfact>
</mgrwt>
</event>
<event>
 8    1  0.9529436E-006  0.3116914E+03  0.7546771E-02  0.1079538E+00
         21   -1    0    0  504  503  0.00000000000E+00  0.00000000000E+00  0.58226112328E+03  0.58226112328E+03  0.00000000000E+00 0. -1.
         21   -1    0    0  503  504 -0.00000000000E+00 -0.00000000000E+00 -0.41713054439E+02  0.41713054439E+02  0.00000000000E+00 0. -1.
         25    2    1    2    0    0 -0.36142112669E+02 -0.71378161779E+02  0.17502740000E+03  0.22947483047E+03  0.12499205088E+03 0.  0.
         25    2    1    2    0    0  0.36142112669E+02  0.71378161779E+02  0.36552066884E+03  0.39449934724E+03  0.12499312517E+03 0.  0.
          5    1    3    3  501    0 -0.30414834668E+02 -0.90033442980E+02  0.59508387466E+02  0.11222486891E+03  0.47000000000E+01 0. -1.
         -5    1    3    3    0  501 -0.57272780015E+01  0.18655281201E+02  0.11551901253E+03  0.11724996156E+03  0.47000000000E+01 0. -1.
          5    1    4    4  502    0  0.66692949030E+02 -0.13986719886E+01  0.20366456467E+03  0.21436242823E+03  0.47000000000E+01 0. -1.
         -5    1    4    4    0  502 -0.30550836361E+02  0.72776833767E+02  0.16185610417E+03  0.18013691901E+03  0.47000000000E+01 0. -1.
<mgrwt>
<rscale>  0 0.31169145E+03</rscale>
<asrwt>0</asrwt>
<pdfrwt beam="1">  1       21 0.89578629E-01 0.31169145E+03</pdfrwt>
<pdfrwt beam="2">  1       21 0.64173934E-02 0.31169145E+03</pdfrwt>
<totfact> 0.18015371E+05</totfact>
</mgrwt>
</event>
<event>
 8    1  0.9529436E-006  0.3637567E+03  0.7546771E-02  0.1057106E+00
         21   -1    0    0  504  503  0.00000000000E+00  0.00000000000E+00  0.90795198104E+02  0.90795198104E+02  0.00000000000E+00 0.  1.
         21   -1    0    0  503  504 -0.00000000000E+00 -0.00000000000E+00 -0.36433347787E+03  0.36433347787E+03  0.00000000000E+00 0.  1.
         25    2    1    2    0    0 -0.32749652653E+02 -0.10534018241E+03 -0.22773227714E+03  0.28223577370E+03  0.12500379244E+03 0.  0.
         25    2    1    2    0    0  0.32749652653E+02  0.10534018241E+03 -0.45806002625E+02  0.17289290228E+03  0.12499868801E+03 0.  0.
          5    1    3    3  501    0  0.22275609701E+02  0.69500989703E+01 -0.10239185566E+03  0.10512225630E+03  0.47000000000E+01 0.  1.
         -5    1    3    3    0  501 -0.55025262354E+02 -0.11229028138E+03 -0.12534042147E+03  0.17711351739E+03  0.47000000000E+01 0.  1.
          5    1    4    4  502    0 -0.45787292559E+02  0.18929578003E+02 -0.11188586443E+02  0.51010582724E+02  0.47000000000E+01 0.  1.
         -5    1    4    4    0  502  0.78536945212E+02  0.86410604402E+02 -0.34617416182E+02  0.12188231955E+03  0.47000000000E+01 0.  1.
<mgrwt>
<rscale>  0 0.36375668E+03</rscale>
<asrwt>0</asrwt>
<pdfrwt beam="1">  1       21 0.13968492E-01 0.36375668E+03</pdfrwt>
<pdfrwt beam="2">  1       21 0.56051303E-01 0.36375668E+03</pdfrwt>
<totfact> 0.12740206E+05</totfact>
</mgrwt>
</event>
<event>
 8    1  0.9529436E-006  0.2599245E+03  0.7546771E-02  0.1107189E+00
         21   -1    0    0  504  503  0.00000000000E+00  0.00000000000E+00  0.38583963895E+02  0.38583963895E+02  0.00000000000E+00 0.  1.
         21   -1    0    0  503  504 -0.00000000000E+00 -0.00000000000E+00 -0.43775148113E+03  0.43775148113E+03  0.00000000000E+00 0.  1.
         25    2    1    2    0    0  0.17958432545E+02  0.17069462669E+02 -0.24636879212E+03  0.27737208039E+03  0.12499526949E+03 0.  0.
         25    2    1    2    0    0 -0.17958432545E+02 -0.17069462669E+02 -0.15279872511E+03  0.19896336463E+03  0.12500039286E+03 0.  0.
          5    1    3    3  501    0 -0.49233238433E+02 -0.13054255484E+02 -0.12858623051E+03  0.13838653847E+03  0.47000000000E+01 0.  1.
         -5    1    3    3    0  501  0.67191670978E+02  0.30123718153E+02 -0.11778256162E+03  0.13898554193E+03  0.47000000000E+01 0.  1.
          5    1    4    4  502    0 -0.11528450500E+02  0.31617185691E+02 -0.14510828552E+03  0.14903374157E+03  0.47000000000E+01 0. -1.
         -5    1    4    4    0  502 -0.64299820451E+01 -0.48686648360E+02 -0.76904395984E+01  0.49929623060E+02  0.47000000000E+01 0. -1.
<mgrwt>
<rscale>  0 0.25992451E+03</rscale>
<asrwt>0</asrwt>
<pdfrwt beam="1">  1       21 0.59359944E-02 0.25992451E+03</pdfrwt>
<pdfrwt beam="2">  1       21 0.67346382E-01 0.25992451E+03</pdfrwt>
<totfact> 0.39882749E+05</totfact>
</mgrwt>
</event>
<event>
 8    1  0.9529436E-006  0.3226157E+03  0.7546771E-02  0.1074452E+00
         21   -1    0    0  504  503  0.00000000000E+00  0.00000000000E+00  0.50115726744E+02  0.50115726744E+02  0.00000000000E+00 0.  1.
         21   -1    0    0  503  504 -0.00000000000E+00 -0.00000000000E+00 -0.51920274110E+03  0.51920274110E+03  0.00000000000E+00 0.  1.
         25    2    1    2    0    0  0.74380234704E+02 -0.69730514966E+02 -0.23328958756E+03  0.28362503534E+03  0.12499745986E+03 0.  0.
         25    2    1    2    0    0 -0.74380234704E+02  0.69730514966E+02 -0.23579742679E+03  0.28569343251E+03  0.12500218744E+03 0.  0.
          5    1    3    3  501    0  0.64006234914E+02 -0.70858196535E+02 -0.66530106266E+02  0.11647328949E+03  0.47000000000E+01 0. -1.
         -5    1    3    3    0  501  0.10373999789E+02  0.11276815695E+01 -0.16675948130E+03  0.16715174585E+03  0.47000000000E+01 0. -1.
          5    1    4    4  502    0  0.48419472478E+01 -0.24913612182E+02 -0.94782808369E+02  0.98234430255E+02  0.47000000000E+01 0. -1.
         -5    1    4    4    0  502 -0.79222181952E+02  0.94644127148E+02 -0.14101461842E+03  0.18745900225E+03  0.47000000000E+01 0. -1.
<mgrwt>
<rscale>  0 0.32261570E+03</rscale>
<asrwt>0</asrwt>
<pdfrwt beam="1">  1       21 0.77101121E-02 0.32261570E+03</pdfrwt>
<pdfrwt beam="2">  1       21 0.79877342E-01 0.32261570E+03</pdfrwt>
<totfact> 0.17007941E+05</totfact>
</mgrwt>
</event>
<event>
 8    1  0.9529436E-006  0.4366831E+03  0.7546771E-02  0.1031769E+00
         21   -1    0    0  504  503  0.00000000000E+00  0.00000000000E+00  0.54156336515E+02  0.54156336515E+02  0.00000000000E+00 0. -1.
         21   -1    0    0  503  504 -0.00000000000E+00 -0.00000000000E+00 -0.88028536859E+03  0.88028536859E+03  0.00000000000E+00 0. -1.
         25    2    1    2    0    0 -0.16621002883E+03 -0.32856096192E+02 -0.28936180832E+03  0.35785773216E+03  0.12500641430E+03 0.  0.
         25    2    1    2    0    0  0.16621002883E+03  0.32856096192E+02 -0.53676722376E+03  0.57658397294E+03  0.12499891445E+03 0.  0.
          5    1    3    3  501    0 -0.87497292960E+02  0.17862789533E+02 -0.53892438660E+02  0.10440948458E+03  0.47000000000E+01 0. -1.
         -5    1    3    3    0  501 -0.78712735866E+02 -0.50718885725E+02 -0.23546936966E+03  0.25344824758E+03  0.47000000000E+01 0. -1.
          5    1    4    4  502    0  0.63229533714E+02  0.60001439693E+02 -0.13382586042E+03  0.15977984108E+03  0.47000000000E+01 0.  1.
         -5    1    4    4    0  502  0.10298049511E+03 -0.27145343501E+02 -0.40294136333E+03  0.41680413186E+03  0.47000000000E+01 0.  1.
<mgrwt>
<rscale>  0 0.43668309E+03</rscale>
<asrwt>0</asrwt>
<pdfrwt beam="1">  1       21 0.83317444E-02 0.43668309E+03</pdfrwt>
<pdfrwt beam="2">  1       21 0.13542851E+00 0.43668309E+03</pdfrwt>
<totfact> 0.39677552E+04</totfact>
</mgrwt>
</event>
<event>
 8    1  0.9529436E-006  0.2730766E+03  0.7546771E-02  0.1099532E+00
         21   -1    0    0  504  503  0.00000000000E+00  0.00000000000E+00  0.56691790673E+02  0.56691790673E+02  0.00000000000E+00 0.  1.
         21   -1    0    0  503  504 -0.00000000000E+00 -0.00000000000E+00 -0.32884312460E+03  0.32884312460E+03  0.00000000000E+00 0.  1.
         25    2    1    2    0    0  0.38196214644E+02 -0.75656111715E+01 -0.19091609555E+03  0.23149736099E+03  0.12500353323E+03 0.  0.
         25    2    1    2    0    0 -0.38196214644E+02  0.75656111715E+01 -0.81235238369E+02  0.15403755428E+03  0.12494884909E+03 0.  0.
          5    1    3    3  501    0  0.56636905558E+02  0.40073159921E+02 -0.15185447443E+03  0.16701936601E+03  0.47000000000E+01 0. -1.
         -5    1    3    3    0  501 -0.18440690914E+02 -0.47638771092E+02 -0.39061621124E+02  0.64477994986E+02  0.47000000000E+01 0. -1.
          5    1    4    4  502    0 -0.30632776637E+02  0.11282698009E+02 -0.11462807892E+03  0.11927846728E+03  0.47000000000E+01 0.  1.
         -5    1    4    4    0  502 -0.75634380069E+01 -0.37170868375E+01  0.33392840551E+02  0.34759087000E+02  0.47000000000E+01 0.  1.
<mgrwt>
<rscale>  0 0.27307659E+03</rscale>
<asrwt>0</asrwt>
<pdfrwt beam="1">  1       21 0.87218138E-02 0.27307659E+03</pdfrwt>
<pdfrwt beam="2">  1       21 0.50591251E-01 0.27307659E+03</pdfrwt>
<totfact> 0.37687308E+05</totfact>
</mgrwt>
</event>
<event>
 8    1  0.9529436E-006  0.4061168E+03  0.7546771E-02  0.1041682E+00
         21   -1    0    0  504  503  0.00000000000E+00  0.00000000000E+00  0.30907975702E+03  0.30907975702E+03  0.00000000000E+00 0. -1.
         21   -1    0    0  503  504 -0.00000000000E+00 -0.00000000000E+00 -0.13340479750E+03  0.13340479750E+03  0.00000000000E+00 0. -1.
         25    2    1    2    0    0  0.10594088612E+03 -0.92047869228E+02  0.17160724682E+03  0.25450081029E+03  0.12500133477E+03 0.  0.
         25    2    1    2    0    0 -0.10594088612E+03  0.92047869228E+02  0.40677127015E+01  0.18798374423E+03  0.12500024090E+03 0.  0.
          5    1    3    3  501    0  0.44994251613E+02  0.19784608805E+02  0.91486204940E+02  0.10396022854E+03  0.47000000000E+01 0. -1.
         -5    1    3    3    0  501  0.60946634510E+02 -0.11183247803E+03  0.80121041878E+02  0.15054058175E+03  0.47000000000E+01 0. -1.
          5    1    4    4  502    0 -0.11965416171E+03  0.11078793839E+03 -0.33103400508E+01  0.16316903524E+03  0.47000000000E+01 0.  1.
         -5    1    4    4    0  502  0.13713275592E+02 -0.18740069166E+02  0.73780527523E+01  0.24814708989E+02  0.47000000000E+01 0.  1.
<mgrwt>
<rscale>  0 0.40611684E+03</rscale>
<asrwt>0</asrwt>
<pdfrwt beam="1">  1       21 0.47550731E-01 0.40611684E+03</pdfrwt>
<pdfrwt beam="2">  1       21 0.20523815E-01 0.40611684E+03</pdfrwt>
<totfact> 0.87323168E+04</totfact>
</mgrwt>
</event>
<event>
 8    1  0.9529436E-006  0.3331038E+03  0.7546771E-02  0.1069772E+00
         21   -1    0    0  504  503  0.00000000000E+00  0.00000000000E+00  0.32881637075E+03  0.32881637075E+03  0.00000000000E+00 0. -1.
         21   -1    0    0  503  504 -0.00000000000E+00 -0.00000000000E+00 -0.84361794148E+02  0.84361794148E+02  0.00000000000E+00 0. -1.
         25    2    1    2    0    0 -0.67801969795E+02 -0.86638216755E+02  0.12652971795E+03  0.20913961485E+03  0.12500528494E+03 0.  0.
         25    2    1    2    0    0  0.67801969795E+02  0.86638216755E+02  0.11792485865E+03  0.20403855005E+03  0.12498867912E+03 0.  0.
          5    1    3    3  501    0  0.10536858179E+02 -0.87058206127E+02  0.72195941195E+02  0.11368597345E+03  0.47000000000E+01 0. -1.
         -5    1    3    3    0  501 -0.78338827975E+02  0.41998937175E+00  0.54333776751E+02  0.95453641395E+02  0.47000000000E+01 0. -1.
          5    1    4    4  502    0  0.53168907042E+02  0.65870121598E+02  0.14414402020E+03  0.16722856860E+03  0.47000000000E+01 0. -1.
         -5    1    4    4    0  502  0.14633062753E+02  0.20768095157E+02 -0.26219161550E+02  0.36809981450E+02  0.47000000000E+01 0. -1.
<mgrwt>
<rscale>  0 0.33310382E+03</rscale>
<asrwt>0</asrwt>
<pdfrwt beam="1">  1       21 0.50587133E-01 0.33310382E+03</pdfrwt>
<pdfrwt beam="2">  1       21 0.12978738E-01 0.33310382E+03</pdfrwt>
<totfact> 0.18261650E+05</totfact>
</mgrwt>
</event>
<event>
 8    1  0.9529436E-006  0.4826125E+03  0.7546771E-02  0.1018420E+00
         21   -1    0    0  504  503  0.00000000000E+00  0.00000000000E+00  0.11077949081E+03  0.11077949081E+03  0.00000000000E+00 0. -1.
         21   -1    0    0  503  504 -0.00000000000E+00 -0.00000000000E+00 -0.52562718487E+03  0.52562718487E+03  0.00000000000E+00 0. -1.
         25    2    1    2    0    0  0.41783549711E+02  0.16510169138E+03 -0.53646818660E+02  0.21796226170E+03  0.12500053141E+03 0.  0.
         25    2    1    2    0    0 -0.41783549711E+02 -0.16510169138E+03 -0.36120087541E+03  0.41844441397E+03  0.12500088668E+03 0.  0.
          5    1    3    3  501    0 -0.12287202459E+02  0.15289216128E+03 -0.25310946230E+02  0.15553045465E+03  0.47000000000E+01 0.  1.
         -5    1    3    3    0  501  0.54070752170E+02  0.12209530098E+02 -0.28335872430E+02  0.62431807052E+02  0.47000000000E+01 0.  1.
          5    1    4    4  502    0  0.43701746872E+02 -0.46769896477E+02 -0.12987144052E+03  0.14486527175E+03  0.47000000000E+01 0. -1.
         -5    1    4    4    0  502 -0.85485296582E+02 -0.11833179490E+03 -0.23132943489E+03  0.27357914223E+03  0.47000000000E+01 0. -1.
<mgrwt>
<rscale>  0 0.48261252E+03</rscale>
<asrwt>0</asrwt>
<pdfrwt beam="1">  1       21 0.17042999E-01 0.48261252E+03</pdfrwt>
<pdfrwt beam="2">  1       21 0.80865718E-01 0.48261252E+03</pdfrwt>
<totfact> 0.37830367E+04</totfact>
</mgrwt>
</event>
<event>
 8    1  0.9529436E-006  0.2819380E+03  0.7546771E-02  0.1094635E+00
         21   -1    0    0  504  503  0.00000000000E+00  0.00000000000E+00  0.66238678561E+02  0.66238678561E+02  0.00000000000E+00 0. -1.
         21   -1    0    0  503  504 -0.00000000000E+00 -0.00000000000E+00 -0.30000989353E+03  0.30000989353E+03  0.00000000000E+00 0. -1.
         25    2    1    2    0    0  0.28311275954E+02 -0.41415051564E+02 -0.17095236120E+03  0.21763347683E+03  0.12499154209E+03 0.  0.
         25    2    1    2    0    0 -0.28311275954E+02  0.41415051564E+02 -0.62818853763E+02  0.14861509526E+03  0.12499401309E+03 0.  0.
          5    1    3    3  501    0  0.30615793503E+02 -0.43395920858E+02 -0.19022974186E+03  0.19756006035E+03  0.47000000000E+01 0. -1.
         -5    1    3    3    0  501 -0.23045175490E+01  0.19808692940E+01  0.19277380653E+02  0.20073416479E+02  0.47000000000E+01 0. -1.
          5    1    4    4  502    0  0.45604222085E+02  0.80645140374E+01 -0.10357596359E+01  0.46561188308E+02  0.47000000000E+01 0.  1.
         -5    1    4    4    0  502 -0.73915498039E+02  0.33350537527E+02 -0.61783094127E+02  0.10205390695E+03  0.47000000000E+01 0.  1.
<mgrwt>
<rscale>  0 0.28193800E+03</rscale>
<asrwt>0</asrwt>
<pdfrwt beam="1">  1       21 0.10190566E-01 0.28193800E+03</pdfrwt>
<pdfrwt beam="2">  1       21 0.46155369E-01 0.28193800E+03</pdfrwt>
<totfact> 0.34590652E+05</totfact>
</mgrwt>
</event>
<event>
 8    1  0.9529436E-006  0.2574667E+03  0.7546771E-02  0.1108675E+00
         21   -1    0    0  504  503  0.00000000000E+00  0.00000000000E+00  0.16933580628E+02  0.16933580628E+02  0.00000000000E+00 0. -1.
         21   -1    0    0  503  504 -0.00000000000E+00 -0.00000000000E+00 -0.97866319112E+03  0.97866319112E+03  0.00000000000E+00 0. -1.
         25    2    1    2    0    0 -0.13292701973E+00 -0.25787639028E+02 -0.54580722510E+03  0.56053218218E+03  0.12500312111E+03 0.  0.
         25    2    1    2    0    0  0.13292701973E+00  0.25787639028E+02 -0.41592238539E+03  0.43506458957E+03  0.12499898572E+03 0.  0.
          5    1    3    3  501    0  0.48670003731E+02 -0.12806594559E+02 -0.10200703271E+03  0.11384332589E+03  0.47000000000E+01 0. -1.
         -5    1    3    3    0  501 -0.48802930751E+02 -0.12981044469E+02 -0.44380019239E+03  0.44668885628E+03  0.47000000000E+01 0. -1.
          5    1    4    4  502    0 -0.34971263150E+02  0.16199434309E+01 -0.28802161761E+02  0.45577055468E+02  0.47000000000E+01 0.  1.
         -5    1    4    4    0  502  0.35104190169E+02  0.24167695597E+02 -0.38712022363E+03  0.38948753410E+03  0.47000000000E+01 0.  1.
<mgrwt>
<rscale>  0 0.25746667E+03</rscale>
<asrwt>0</asrwt>
<pdfrwt beam="1">  1       21 0.26051655E-02 0.25746667E+03</pdfrwt>
<pdfrwt beam="2">  1       21 0.15056361E+00 0.25746667E+03</pdfrwt>
<totfact> 0.23085050E+05</totfact>
</mgrwt>
</event>
<event>
 8    1  0.9529436E-006  0.2600403E+03  0.7546771E-02  0.1107119E+00
         21   -1    0    0  504  503  0.00000000000E+00  0.00000000000E+00  0.20164072528E+03  0.20164072528E+03  0.00000000000E+00 0. -1.
         21   -1    0    0  503  504 -0.00000000000E+00 -0.00000000000E+00 -0.83838418605E+02  0.83838418605E+02  0.00000000000E+00 0. -1.
         25    2    1    2    0    0  0.13139199368E+02  0.32914804459E+02  0.64338472230E+02  0.14498441174E+03  0.12500007091E+03 0.  0.
         25    2    1    2    0    0 -0.13139199368E+02 -0.32914804459E+02  0.53463834443E+02  0.14049473214E+03  0.12499746099E+03 0.  0.
          5    1    3    3  501    0  0.30273850567E+02  0.55200786599E+02 -0.11316424205E+02  0.64138789559E+02  0.47000000000E+01 0.  1.
         -5    1    3    3    0  501 -0.17134651200E+02 -0.22285982140E+02  0.75654896435E+02  0.80845622184E+02  0.47000000000E+01 0.  1.
          5    1    4    4  502    0 -0.15940995451E+02 -0.73828262255E+02  0.35982737412E+01  0.75761238226E+02  0.47000000000E+01 0. -1.
         -5    1    4    4    0  502  0.28017960835E+01  0.40913457797E+02  0.49865560702E+02  0.64733493914E+02  0.47000000000E+01 0. -1.
<mgrwt>
<rscale>  0 0.26004030E+03</rscale>
<asrwt>0</asrwt>
<pdfrwt beam="1">  1       21 0.31021650E-01 0.26004030E+03</pdfrwt>
<pdfrwt beam="2">  1       21 0.12898218E-01 0.26004030E+03</pdfrwt>
<totfact> 0.50798312E+05</totfact>
</mgrwt>
</event>
<event>
 8    1  0.9529436E-006  0.3152345E+03  0.7546771E-02  0.1077864E+00
         21   -1    0    0  504  503  0.00000000000E+00  0.00000000000E+00  0.50688400348E+02  0.50688400348E+02  0.00000000000E+00 0. -1.
         21   -1    0    0  503  504 -0.00000000000E+00 -0.00000000000E+00 -0.49011595628E+03  0.49011595628E+03  0.00000000000E+00 0. -1.
         25    2    1    2    0    0 -0.21081721042E+02  0.68897664094E+02 -0.11084604516E+03  0.18194105049E+03  0.12499749216E+03 0.  0.
         25    2    1    2    0    0  0.21081721042E+02 -0.68897664094E+02 -0.32858151077E+03  0.35886330614E+03  0.12500294474E+03 0.  0.
          5    1    3    3  501    0 -0.54921625359E+02  0.61192601403E+02 -0.12018322663E+03  0.14569494624E+03  0.47000000000E+01 0.  1.
         -5    1    3    3    0  501  0.33839904317E+02  0.77050626910E+01  0.93371814639E+01  0.36246104245E+02  0.47000000000E+01 0.  1.
          5    1    4    4  502    0 -0.87675191839E+01  0.22310927573E+02 -0.10504968923E+02  0.26591187523E+02  0.47000000000E+01 0. -1.
         -5    1    4    4    0  502  0.29849240226E+02 -0.91208591668E+02 -0.31807654185E+03  0.33227211862E+03  0.47000000000E+01 0. -1.
<mgrwt>
<rscale>  0 0.31523448E+03</rscale>
<asrwt>0</asrwt>
<pdfrwt beam="1">  1       21 0.77982156E-02 0.31523448E+03</pdfrwt>
<pdfrwt beam="2">  1       21 0.75402453E-01 0.31523448E+03</pdfrwt>
<totfact> 0.19042853E+05</totfact>
</mgrwt>
</event>
<event>
 8    1  0.9529436E-006  0.2730556E+03  0.7546771E-02  0.1099543E+00
         21   -1    0    0  504  503  0.00000000000E+00  0.00000000000E+00  0.39005180876E+02  0.39005180876E+02  0.00000000000E+00 0.  1.
         21   -1    0    0  503  504 -0.00000000000E+00 -0.00000000000E+00 -0.47788106447E+03  0.47788106447E+03  0.00000000000E+00 0.  1.
         25    2    1    2    0    0 -0.40228289887E+02  0.20688985253E+02 -0.27835164585E+03  0.30846567349E+03  0.12500033422E+03 0.  0.
         25    2    1    2    0    0  0.40228289887E+02 -0.20688985253E+02 -0.16052423775E+03  0.20842057186E+03  0.12499901781E+03 0.  0.
          5    1    3    3  501    0 -0.10726868186E+02 -0.39049438036E+02 -0.28250317937E+02  0.49599342491E+02  0.47000000000E+01 0.  1.
         -5    1    3    3    0  501 -0.29501421702E+02  0.59738423289E+02 -0.25010132791E+03  0.25886633099E+03  0.47000000000E+01 0.  1.
          5    1    4    4  502    0 -0.15208003686E+02 -0.11061639090E+02 -0.14967589637E+03  0.15092583341E+03  0.47000000000E+01 0. -1.
         -5    1    4    4    0  502  0.55436293573E+02 -0.96273461638E+01 -0.10848341377E+02  0.57494738454E+02  0.47000000000E+01 0. -1.
<mgrwt>
<rscale>  0 0.27305558E+03</rscale>
<asrwt>0</asrwt>
<pdfrwt beam="1">  1       21 0.60007976E-02 0.27305558E+03</pdfrwt>
<pdfrwt beam="2">  1       21 0.73520157E-01 0.27305558E+03</pdfrwt>
<totfact> 0.32111817E+05</totfact>
</mgrwt>
</event>
<event>
 8    1  0.9529436E-006  0.3963295E+03  0.7546771E-02  0.1045058E+00
         21   -1    0    0  504  503  0.00000000000E+00  0.00000000000E+00  0.36980473774E+03  0.36980473774E+03  0.00000000000E+00 0. -1.
         21   -1    0    0  503  504 -0.00000000000E+00 -0.00000000000E+00 -0.10618919522E+03  0.10618919522E+03  0.00000000000E+00 0. -1.
         25    2    1    2    0    0 -0.63347467305E+02 -0.73919286887E+02  0.27476537868E+03  0.31716452529E+03  0.12498143941E+03 0.  0.
         25    2    1    2    0    0  0.63347467305E+02  0.73919286887E+02 -0.11149836155E+02  0.15882940767E+03  0.12500199721E+03 0.  0.
          5    1    3    3  501    0 -0.59006218122E+02 -0.32541992672E+02  0.39598862385E+02  0.78299904000E+02  0.47000000000E+01 0. -1.
         -5    1    3    3    0  501 -0.43412491830E+01 -0.41377294215E+02  0.23516651629E+03  0.23886462129E+03  0.47000000000E+01 0. -1.
          5    1    4    4  502    0  0.29650774320E+02  0.10523143871E+03 -0.21315281755E+02  0.11148657026E+03  0.47000000000E+01 0. -1.
         -5    1    4    4    0  502  0.33696692985E+02 -0.31312151826E+02  0.10165445600E+02  0.47342837414E+02  0.47000000000E+01 0. -1.
<mgrwt>
<rscale>  0 0.39632950E+03</rscale>
<asrwt>0</asrwt>
<pdfrwt beam="1">  1       21 0.56893036E-01 0.39632950E+03</pdfrwt>
<pdfrwt beam="2">  1       21 0.16336799E-01 0.39632950E+03</pdfrwt>
<totfact> 0.91690761E+04</totfact>
</mgrwt>
</event>
<event>
 8    1  0.9529436E-006  0.2920810E+03  0.7546771E-02  0.1089268E+00
         21   -1    0    0  504  503  0.00000000000E+00  0.00000000000E+00  0.87647982039E+02  0.87647982039E+02  0.00000000000E+00 0.  1.
         21   -1    0    0  503  504 -0.00000000000E+00 -0.00000000000E+00 -0.24333507457E+03  0.24333507457E+03  0.00000000000E+00 0.  1.
         25    2    1    2    0    0  0.63535618312E+02 -0.28950652499E+02 -0.11044535035E+03  0.18082888476E+03  0.12500398024E+03 0.  0.
         25    2    1    2    0    0 -0.63535618312E+02  0.28950652499E+02 -0.45241742180E+02  0.15015417185E+03  0.12499818004E+03 0.  0.
          5    1    3    3  501    0 -0.31306676203E+02 -0.33991860138E+01 -0.65250156435E+02  0.72603962393E+02  0.47000000000E+01 0. -1.
         -5    1    3    3    0  501  0.94842294515E+02 -0.25551466486E+02 -0.45195193915E+02  0.10822492237E+03  0.47000000000E+01 0. -1.
          5    1    4    4  502    0 -0.38224471207E+02 -0.46072059636E+02 -0.36707679479E+02  0.70379603657E+02  0.47000000000E+01 0. -1.
         -5    1    4    4    0  502 -0.25311147106E+02  0.75022712135E+02 -0.85340627009E+01  0.79774568191E+02  0.47000000000E+01 0. -1.
<mgrwt>
<rscale>  0 0.29208100E+03</rscale>
<asrwt>0</asrwt>
<pdfrwt beam="1">  1       21 0.13484305E-01 0.29208100E+03</pdfrwt>
<pdfrwt beam="2">  1       21 0.37436165E-01 0.29208100E+03</pdfrwt>
<totfact> 0.32012822E+05</totfact>
</mgrwt>
</event>
<event>
 8    1  0.9529436E-006  0.3236480E+03  0.7546771E-02  0.1073983E+00
         21   -1    0    0  504  503  0.00000000000E+00  0.00000000000E+00  0.20016880087E+02  0.20016880087E+02  0.00000000000E+00 0. -1.
         21   -1    0    0  503  504 -0.00000000000E+00 -0.00000000000E+00 -0.13082464422E+04  0.13082464422E+04  0.00000000000E+00 0. -1.
         25    2    1    2    0    0 -0.65071593046E+02  0.21414646529E+02 -0.95856692717E+03  0.96910562430E+03  0.12498903104E+03 0.  0.
         25    2    1    2    0    0  0.65071593046E+02 -0.21414646529E+02 -0.32966263495E+03  0.35915769800E+03  0.12499559927E+03 0.  0.
          5    1    3    3  501    0 -0.47892287371E+02  0.39298957167E+02 -0.18552927534E+03  0.19565602784E+03  0.47000000000E+01 0.  1.
         -5    1    3    3    0  501 -0.17179305675E+02 -0.17884310638E+02 -0.77303765183E+03  0.77344959645E+03  0.47000000000E+01 0.  1.
          5    1    4    4  502    0  0.67522790855E+02  0.41469769514E+02 -0.18835487253E+03  0.20439842728E+03  0.47000000000E+01 0.  1.
         -5    1    4    4    0  502 -0.24511978088E+01 -0.62884416043E+02 -0.14130776242E+03  0.15475927071E+03  0.47000000000E+01 0.  1.
<mgrwt>
<rscale>  0 0.32364803E+03</rscale>
<asrwt>0</asrwt>
<pdfrwt beam="1">  1       21 0.30795207E-02 0.32364803E+03</pdfrwt>
<pdfrwt beam="2">  1       21 0.20126864E+00 0.32364803E+03</pdfrwt>
<totfact> 0.74925258E+04</totfact>
</mgrwt>
</event>
<event>
 8    1  0.9529436E-006  0.2720407E+03  0.7546771E-02  0.1100117E+00
         21   -1    0    0  504  503  0.00000000000E+00  0.00000000000E+00  0.14669063074E+02  0.14669063074E+02  0.00000000000E+00 0. -1.
         21   -1    0    0  503  504 -0.00000000000E+00 -0.00000000000E+00 -0.12612622480E+04  0.12612622480E+04  0.00000000000E+00 0. -1.
         25    2    1    2    0    0 -0.25472654788E+02  0.47145881486E+02 -0.61233755145E+03  0.62725867670E+03  0.12499832118E+03 0.  0.
         25    2    1    2    0    0  0.25472654788E+02 -0.47145881486E+02 -0.63425563349E+03  0.64867263439E+03  0.12499755080E+03 0.  0.
          5    1    3    3  501    0 -0.35021475599E+02 -0.39824091331E+01 -0.44210808391E+02  0.56736662876E+02  0.47000000000E+01 0.  1.
         -5    1    3    3    0  501  0.95488208115E+01  0.51128290619E+02 -0.56812674305E+03  0.57052201382E+03  0.47000000000E+01 0.  1.
          5    1    4    4  502    0  0.27375040980E+02 -0.85750724251E+02 -0.52510735632E+03  0.53278739216E+03  0.47000000000E+01 0. -1.
         -5    1    4    4    0  502 -0.19023861920E+01  0.38604842765E+02 -0.10914827717E+03  0.11588524223E+03  0.47000000000E+01 0. -1.
<mgrwt>
<rscale>  0 0.27204070E+03</rscale>
<asrwt>0</asrwt>
<pdfrwt beam="1">  1       21 0.22567795E-02 0.27204070E+03</pdfrwt>
<pdfrwt beam="2">  1       21 0.19404030E+00 0.27204070E+03</pdfrwt>
<totfact> 0.14294296E+05</totfact>
</mgrwt>
</event>
<event>
 8    1  0.9529436E-006  0.5599767E+03  0.7546771E-02  0.9992107E-01
         21   -1    0    0  504  503  0.00000000000E+00  0.00000000000E+00  0.47672364693E+03  0.47672364693E+03  0.00000000000E+00 0.  1.
         21   -1    0    0  503  504 -0.00000000000E+00 -0.00000000000E+00 -0.16444218092E+03  0.16444218092E+03  0.00000000000E+00 0.  1.
         25    2    1    2    0    0 -0.18862126003E+03  0.17851579095E+02 -0.31551439107E+02  0.22916505798E+03  0.12499788749E+03 0.  0.
         25    2    1    2    0    0  0.18862126003E+03 -0.17851579095E+02  0.34383290511E+03  0.41200076987E+03  0.12500763625E+03 0.  0.
          5    1    3    3  501    0 -0.42131925612E+02  0.60866254014E+02 -0.12818384857E+02  0.75274172356E+02  0.47000000000E+01 0.  1.
         -5    1    3    3    0  501 -0.14648933442E+03 -0.43014674919E+02 -0.18733054250E+02  0.15389088563E+03  0.47000000000E+01 0.  1.
          5    1    4    4  502    0  0.17752185117E+03  0.17983640972E+02  0.22442903558E+03  0.28675407756E+03  0.47000000000E+01 0.  1.
         -5    1    4    4    0  502  0.11099408861E+02 -0.35835220067E+02  0.11940386953E+03  0.12524669230E+03  0.47000000000E+01 0.  1.
<mgrwt>
<rscale>  0 0.55997670E+03</rscale>
<asrwt>0</asrwt>
<pdfrwt beam="1">  1       21 0.73342099E-01 0.55997670E+03</pdfrwt>
<pdfrwt beam="2">  1       21 0.25298797E-01 0.55997670E+03</pdfrwt>
<totfact> 0.21856206E+04</totfact>
</mgrwt>
</event>
<event>
 8    1  0.9529436E-006  0.6135112E+03  0.7546771E-02  0.9877764E-01
         21   -1    0    0  504  503  0.00000000000E+00  0.00000000000E+00  0.30915712060E+03  0.30915712060E+03  0.00000000000E+00 0.  1.
         21   -1    0    0  503  504 -0.00000000000E+00 -0.00000000000E+00 -0.30437277804E+03  0.30437277804E+03  0.00000000000E+00 0.  1.
         25    2    1    2    0    0  0.67296137951E+02  0.22825270053E+03  0.15020434007E+03  0.30791604238E+03  0.12499151930E+03 0.  0.
         25    2    1    2    0    0 -0.67296137951E+02 -0.22825270053E+03 -0.14541999751E+03  0.30561385626E+03  0.12499915192E+03 0.  0.
          5    1    3    3  501    0 -0.47864851025E+01 -0.12196998573E+02  0.21941318339E+02  0.25984392706E+02  0.47000000000E+01 0. -1.
         -5    1    3    3    0  501  0.72082623054E+02  0.24044969910E+03  0.12826302173E+03  0.28193164967E+03  0.47000000000E+01 0. -1.
          5    1    4    4  502    0 -0.17776647738E+02 -0.58377193676E+02 -0.10883516766E+03  0.12486428499E+03  0.47000000000E+01 0.  1.
         -5    1    4    4    0  502 -0.49519490213E+02 -0.16987550685E+03 -0.36584829849E+02  0.18074957127E+03  0.47000000000E+01 0.  1.
<mgrwt>
<rscale>  0 0.61351124E+03</rscale>
<asrwt>0</asrwt>
<pdfrwt beam="1">  1       21 0.47562634E-01 0.61351124E+03</pdfrwt>
<pdfrwt beam="2">  1       21 0.46826581E-01 0.61351124E+03</pdfrwt>
<totfact> 0.16030515E+04</totfact>
</mgrwt>
</event>
<event>
 8    1  0.9529436E-006  0.2871310E+03  0.7546771E-02  0.1091857E+00
         21   -1    0    0  504  503  0.00000000000E+00  0.00000000000E+00  0.12334812651E+03  0.12334812651E+03  0.00000000000E+00 0.  1.
         21   -1    0    0  503  504 -0.00000000000E+00 -0.00000000000E+00 -0.16709663693E+03  0.16709663693E+03  0.00000000000E+00 0.  1.
         25    2    1    2    0    0  0.10070983940E+02  0.40237335720E+02 -0.79694499287E+02  0.15393488548E+03  0.12499707136E+03 0.  0.
         25    2    1    2    0    0 -0.10070983940E+02 -0.40237335720E+02  0.35945988862E+02  0.13650987796E+03  0.12498945860E+03 0.  0.
          5    1    3    3  501    0  0.25904800363E+02  0.17882622753E+02 -0.10899614183E+03  0.11354776885E+03  0.47000000000E+01 0. -1.
         -5    1    3    3    0  501 -0.15833816422E+02  0.22354712967E+02  0.29301642538E+02  0.40387116631E+02  0.47000000000E+01 0. -1.
          5    1    4    4  502    0  0.57067505837E+02 -0.19762357922E+02  0.93030594712E+01  0.61285299449E+02  0.47000000000E+01 0.  1.
         -5    1    4    4    0  502 -0.67138489777E+02 -0.20474977798E+02  0.26642929391E+02  0.75224578509E+02  0.47000000000E+01 0.  1.
<mgrwt>
<rscale>  0 0.28713103E+03</rscale>
<asrwt>0</asrwt>
<pdfrwt beam="1">  1       21 0.18976635E-01 0.28713103E+03</pdfrwt>
<pdfrwt beam="2">  1       21 0.25707175E-01 0.28713103E+03</pdfrwt>
<totfact> 0.35814680E+05</totfact>
</mgrwt>
</event>
<event>
 8    1  0.9529436E-006  0.5621682E+03  0.7546771E-02  0.9987161E-01
         21   -1    0    0  504  503  0.00000000000E+00  0.00000000000E+00  0.11170410672E+04  0.11170410672E+04  0.00000000000E+00 0. -1.
         21   -1    0    0  503  504 -0.00000000000E+00 -0.00000000000E+00 -0.70729968163E+02  0.70729968163E+02  0.00000000000E+00 0. -1.
         25    2    1    2    0    0  0.34163243533E+02  0.15125349470E+03  0.10407951805E+03  0.22471834394E+03  0.12498416364E+03 0.  0.
         25    2    1    2    0    0 -0.34163243533E+02 -0.15125349470E+03  0.94223158101E+03  0.96305269144E+03  0.12500154947E+03 0.  0.
          5    1    3    3  501    0  0.11330554784E+01  0.79821231901E+02 -0.15531433853E+02  0.81461821207E+02  0.47000000000E+01 0. -1.
         -5    1    3    3    0  501  0.33030188055E+02  0.71432262801E+02  0.11961095190E+03  0.14325652274E+03  0.47000000000E+01 0. -1.
          5    1    4    4  502    0 -0.18220476512E+02 -0.16455022181E+03  0.67685670385E+03  0.69682555120E+03  0.47000000000E+01 0. -1.
         -5    1    4    4    0  502 -0.15942767022E+02  0.13296727105E+02  0.26537487716E+03  0.26622714024E+03  0.47000000000E+01 0. -1.
<mgrwt>
<rscale>  0 0.56216823E+03</rscale>
<asrwt>0</asrwt>
<pdfrwt beam="1">  1       21 0.17185246E+00 0.56216823E+03</pdfrwt>
<pdfrwt beam="2">  1       21 0.10881534E-01 0.56216823E+03</pdfrwt>
<totfact> 0.12352475E+04</totfact>
</mgrwt>
</event>
<event>
 8    1  0.9529436E-006  0.3280683E+03  0.7546771E-02  0.1071995E+00
         21   -1    0    0  504  503  0.00000000000E+00  0.00000000000E+00  0.21136782132E+02  0.21136782132E+02  0.00000000000E+00 0. -1.
         21   -1    0    0  503  504 -0.00000000000E+00 -0.00000000000E+00 -0.12730040049E+04  0.12730040049E+04  0.00000000000E+00 0. -1.
         25    2    1    2    0    0 -0.10177601351E+03 -0.29481456727E+02 -0.65504716548E+03  0.67523363816E+03  0.12500465548E+03 0.  0.
         25    2    1    2    0    0  0.10177601351E+03  0.29481456727E+02 -0.59682005726E+03  0.61890714884E+03  0.12499745965E+03 0.  0.
          5    1    3    3  501    0 -0.62389617437E+01 -0.29901507869E+02 -0.42459862365E+03  0.42572186463E+03  0.47000000000E+01 0. -1.
         -5    1    3    3    0  501 -0.95537051763E+02  0.42005114242E+00 -0.23044854183E+03  0.24951177354E+03  0.47000000000E+01 0. -1.
          5    1    4    4  502    0  0.78016986496E+02  0.18077628737E+02 -0.14039842730E+03  0.16170114172E+03  0.47000000000E+01 0. -1.
         -5    1    4    4    0  502  0.23759027010E+02  0.11403827989E+02 -0.45642162996E+03  0.45720600712E+03  0.47000000000E+01 0. -1.
<mgrwt>
<rscale>  0 0.32806834E+03</rscale>
<asrwt>0</asrwt>
<pdfrwt beam="1">  1       21 0.32518125E-02 0.32806834E+03</pdfrwt>
<pdfrwt beam="2">  1       21 0.19584678E+00 0.32806834E+03</pdfrwt>
<totfact> 0.74140504E+04</totfact>
</mgrwt>
</event>
<event>
 8    1  0.9529436E-006  0.2728166E+03  0.7546771E-02  0.1099678E+00
         21   -1    0    0  504  503  0.00000000000E+00  0.00000000000E+00  0.69820374060E+03  0.69820374060E+03  0.00000000000E+00 0.  1.
         21   -1    0    0  503  504 -0.00000000000E+00 -0.00000000000E+00 -0.26650144518E+02  0.26650144518E+02  0.00000000000E+00 0.  1.
         25    2    1    2    0    0  0.47746283235E+02 -0.18205415956E+02  0.38704559263E+03  0.40992458022E+03  0.12499090349E+03 0.  0.
         25    2    1    2    0    0 -0.47746283235E+02  0.18205415956E+02  0.28450800345E+03  0.31492930490E+03  0.12499807329E+03 0.  0.
          5    1    3    3  501    0 -0.13472847127E+02 -0.47676528509E+02  0.71509794830E+02  0.87122383674E+02  0.47000000000E+01 0. -1.
         -5    1    3    3    0  501  0.61219130362E+02  0.29471112554E+02  0.31553579780E+03  0.32280219654E+03  0.47000000000E+01 0. -1.
          5    1    4    4  502    0 -0.75223377644E+02  0.21854605418E+02  0.27383484822E+03  0.28485749845E+03  0.47000000000E+01 0. -1.
         -5    1    4    4    0  502  0.27477094409E+02 -0.36491894623E+01  0.10673155231E+02  0.30071806455E+02  0.47000000000E+01 0. -1.
<mgrwt>
<rscale>  0 0.27281665E+03</rscale>
<asrwt>0</asrwt>
<pdfrwt beam="1">  1       21 0.10741595E+00 0.27281665E+03</pdfrwt>
<pdfrwt beam="2">  1       21 0.41000228E-02 0.27281665E+03</pdfrwt>
<totfact> 0.25390422E+05</totfact>
</mgrwt>
</event>
<event>
 8    1  0.9529436E-006  0.3056192E+03  0.7546771E-02  0.1082465E+00
         21   -1    0    0  504  503  0.00000000000E+00  0.00000000000E+00  0.57875146093E+03  0.57875146093E+03  0.00000000000E+00 0. -1.
         21   -1    0    0  503  504 -0.00000000000E+00 -0.00000000000E+00 -0.40346808127E+02  0.40346808127E+02  0.00000000000E+00 0. -1.
         25    2    1    2    0    0 -0.31068082222E+02 -0.79000475213E+01  0.43497932685E+03  0.45371743700E+03  0.12499944547E+03 0.  0.
         25    2    1    2    0    0  0.31068082222E+02  0.79000475213E+01  0.10342532595E+03  0.16538083205E+03  0.12500554019E+03 0.  0.
          5    1    3    3  501    0  0.24066153879E+02  0.42864851599E+01  0.13250928246E+02  0.28199837180E+02  0.47000000000E+01 0. -1.
         -5    1    3    3    0  501 -0.55134236101E+02 -0.12186532681E+02  0.42172839861E+03  0.42551759982E+03  0.47000000000E+01 0. -1.
          5    1    4    4  502    0  0.44980449383E+02 -0.48754181850E+02  0.75256597956E+02  0.10042836557E+03  0.47000000000E+01 0. -1.
         -5    1    4    4    0  502 -0.13912367161E+02  0.56654229371E+02  0.28168727993E+02  0.64952466484E+02  0.47000000000E+01 0. -1.
<mgrwt>
<rscale>  0 0.30561920E+03</rscale>
<asrwt>0</asrwt>
<pdfrwt beam="1">  1       21 0.89038680E-01 0.30561920E+03</pdfrwt>
<pdfrwt beam="2">  1       21 0.62072017E-02 0.30561920E+03</pdfrwt>
<totfact> 0.19387038E+05</totfact>
</mgrwt>
</event>
<event>
 8    1  0.9529436E-006  0.2715379E+03  0.7546771E-02  0.1100403E+00
         21   -1    0    0  504  503  0.00000000000E+00  0.00000000000E+00  0.29304587884E+03  0.29304587884E+03  0.00000000000E+00 0. -1.
         21   -1    0    0  503  504 -0.00000000000E+00 -0.00000000000E+00 -0.62902128581E+02  0.62902128581E+02  0.00000000000E+00 0. -1.
         25    2    1    2    0    0  0.51245665194E+02 -0.11304175065E+02  0.10551512749E+03  0.17179661591E+03  0.12500692995E+03 0.  0.
         25    2    1    2    0    0 -0.51245665194E+02  0.11304175065E+02  0.12462862277E+03  0.18415139151E+03  0.12500215520E+03 0.  0.
          5    1    3    3  501    0  0.87889069607E+02  0.88076490962E+01  0.91976910781E+02  0.12760840629E+03  0.47000000000E+01 0.  1.
         -5    1    3    3    0  501 -0.36643404412E+02 -0.20111824161E+02  0.13538216706E+02  0.44188209622E+02  0.47000000000E+01 0.  1.
          5    1    4    4  502    0 -0.42226205352E+02  0.53624399920E+01  0.15009941008E+03  0.15608885638E+03  0.47000000000E+01 0.  1.
         -5    1    4    4    0  502 -0.90194598419E+01  0.59417350732E+01 -0.25470787308E+02  0.28062535124E+02  0.47000000000E+01 0.  1.
<mgrwt>
<rscale>  0 0.27153791E+03</rscale>
<asrwt>0</asrwt>
<pdfrwt beam="1">  1       21 0.45083981E-01 0.27153791E+03</pdfrwt>
<pdfrwt beam="2">  1       21 0.96772507E-02 0.27153791E+03</pdfrwt>
<totfact> 0.39898828E+05</totfact>
</mgrwt>
</event>
<event>
 8    1  0.9529436E-006  0.3093277E+03  0.7546771E-02  0.1080669E+00
         21   -1    0    0  504  503  0.00000000000E+00  0.00000000000E+00  0.92118871431E+01  0.92118871431E+01  0.00000000000E+00 0.  1.
         21   -1    0    0  503  504 -0.00000000000E+00 -0.00000000000E+00 -0.25967428856E+04  0.25967428856E+04  0.00000000000E+00 0.  1.
         25    2    1    2    0    0  0.48999466591E+02  0.26664086970E+02 -0.68719577136E+03  0.70069599425E+03  0.12499970770E+03 0.  0.
         25    2    1    2    0    0 -0.48999466591E+02 -0.26664086970E+02 -0.19003352271E+04  0.19052587785E+04  0.12500046566E+03 0.  0.
          5    1    3    3  501    0  0.86781638132E+02 -0.21134383210E+01 -0.38017798484E+03  0.38999090950E+03  0.47000000000E+01 0.  1.
         -5    1    3    3    0  501 -0.37782171540E+02  0.28777525291E+02 -0.30701778652E+03  0.31070508475E+03  0.47000000000E+01 0.  1.
          5    1    4    4  502    0 -0.27028382534E+02 -0.73540759552E+02 -0.14081851443E+04  0.14103709680E+04  0.47000000000E+01 0.  1.
         -5    1    4    4    0  502 -0.21971084057E+02  0.46876672581E+02 -0.49215008276E+03  0.49488781045E+03  0.47000000000E+01 0.  1.
<mgrwt>
<rscale>  0 0.30932767E+03</rscale>
<asrwt>0</asrwt>
<pdfrwt beam="1">  1       21 0.14172124E-02 0.30932767E+03</pdfrwt>
<pdfrwt beam="2">  1       21 0.39949918E+00 0.30932767E+03</pdfrwt>
<totfact> 0.16879769E+04</totfact>
</mgrwt>
</event>
<event>
 8    1  0.9529436E-006  0.3012624E+03  0.7546771E-02  0.1084611E+00
         21   -1    0    0  504  503  0.00000000000E+00  0.00000000000E+00  0.83327522560E+03  0.83327522560E+03  0.00000000000E+00 0.  1.
         21   -1    0    0  503  504 -0.00000000000E+00 -0.00000000000E+00 -0.27229603873E+02  0.27229603873E+02  0.00000000000E+00 0.  1.
         25    2    1    2    0    0  0.43850549310E+02  0.65601710719E+02  0.48548711869E+03  0.50749781247E+03  0.12501932702E+03 0.  0.
         25    2    1    2    0    0 -0.43850549310E+02 -0.65601710719E+02  0.32055850303E+03  0.35300701699E+03  0.12501897878E+03 0.  0.
          5    1    3    3  501    0 -0.28004402057E+01  0.46669397234E+02  0.48262600793E+02  0.67359065751E+02  0.47000000000E+01 0. -1.
         -5    1    3    3    0  501  0.46650989516E+02  0.18932313485E+02  0.43722451790E+03  0.44013874672E+03  0.47000000000E+01 0. -1.
          5    1    4    4  502    0 -0.95451276549E+01 -0.77780018766E+02  0.89499601627E+02  0.11905086926E+03  0.47000000000E+01 0.  1.
         -5    1    4    4    0  502 -0.34305421655E+02  0.12178308047E+02  0.23105890141E+03  0.23395614773E+03  0.47000000000E+01 0.  1.
<mgrwt>
<rscale>  0 0.30126237E+03</rscale>
<asrwt>0</asrwt>
<pdfrwt beam="1">  1       21 0.12819617E+00 0.30126237E+03</pdfrwt>
<pdfrwt beam="2">  1       21 0.41891705E-02 0.30126237E+03</pdfrwt>
<totfact> 0.15639028E+05</totfact>
</mgrwt>
</event>
<event>
 8    1  0.9529436E-006  0.2860630E+03  0.7546771E-02  0.1092423E+00
         21   -1    0    0  504  503  0.00000000000E+00  0.00000000000E+00  0.14189759713E+02  0.14189759713E+02  0.00000000000E+00 0.  1.
         21   -1    0    0  503  504 -0.00000000000E+00 -0.00000000000E+00 -0.14417445536E+04  0.14417445536E+04  0.00000000000E+00 0.  1.
         25    2    1    2    0    0  0.39953272930E+02 -0.52161277278E+02 -0.59835582629E+03  0.61479386028E+03  0.12499893168E+03 0.  0.
         25    2    1    2    0    0 -0.39953272930E+02  0.52161277278E+02 -0.82919896764E+03  0.84114045308E+03  0.12501708282E+03 0.  0.
          5    1    3    3  501    0  0.68071161768E+02 -0.56076497629E+01 -0.17470884952E+03  0.18764434684E+03  0.47000000000E+01 0.  1.
         -5    1    3    3    0  501 -0.28117888838E+02 -0.46553627515E+02 -0.42364697677E+03  0.42714951344E+03  0.47000000000E+01 0.  1.
          5    1    4    4  502    0 -0.61685304665E+02 -0.39693621753E+01 -0.62869914193E+03  0.63174799858E+03  0.47000000000E+01 0.  1.
         -5    1    4    4    0  502  0.21732031735E+02  0.56130639454E+02 -0.20049982572E+03  0.20939245450E+03  0.47000000000E+01 0.  1.
<mgrwt>
<rscale>  0 0.28606299E+03</rscale>
<asrwt>0</asrwt>
<pdfrwt beam="1">  1       21 0.21830386E-02 0.28606299E+03</pdfrwt>
<pdfrwt beam="2">  1       21 0.22180699E+00 0.28606299E+03</pdfrwt>
<totfact> 0.99569869E+04</totfact>
</mgrwt>
</event>
<event>
 8    1  0.9529436E-006  0.3406397E+03  0.7546771E-02  0.1066524E+00
         21   -1    0    0  504  503  0.00000000000E+00  0.00000000000E+00  0.13356168591E+04  0.13356168591E+04  0.00000000000E+00 0.  1.
         21   -1    0    0  503  504 -0.00000000000E+00 -0.00000000000E+00 -0.21719445536E+02  0.21719445536E+02  0.00000000000E+00 0.  1.
         25    2    1    2    0    0  0.10133739219E+03 -0.18706591147E+02  0.86646936949E+03  0.88148324891E+03  0.12499738495E+03 0.  0.
         25    2    1    2    0    0 -0.10133739219E+03  0.18706591147E+02  0.44742804404E+03  0.47585305569E+03  0.12500028962E+03 0.  0.
          5    1    3    3  501    0  0.87212622248E+02  0.30055731680E+02  0.33267212358E+03  0.34525674547E+03  0.47000000000E+01 0.  1.
         -5    1    3    3    0  501  0.14124769940E+02 -0.48762322827E+02  0.53379724591E+03  0.53622650344E+03  0.47000000000E+01 0.  1.
          5    1    4    4  502    0 -0.72726993184E+01  0.40596661144E+02  0.41989600879E+02  0.59044031310E+02  0.47000000000E+01 0. -1.
         -5    1    4    4    0  502 -0.94064692870E+02 -0.21890069997E+02  0.40543844316E+03  0.41680902438E+03  0.47000000000E+01 0. -1.
<mgrwt>
<rscale>  0 0.34063974E+03</rscale>
<asrwt>0</asrwt>
<pdfrwt beam="1">  1       21 0.20547945E+00 0.34063974E+03</pdfrwt>
<pdfrwt beam="2">  1       21 0.33414542E-02 0.34063974E+03</pdfrwt>
<totfact> 0.60923962E+04</totfact>
</mgrwt>
</event>
<event>
 8    1  0.9529436E-006  0.3509503E+03  0.7546771E-02  0.1062226E+00
         21   -1    0    0  504  503  0.00000000000E+00  0.00000000000E+00  0.19299335449E+03  0.19299335449E+03  0.00000000000E+00 0.  1.
         21   -1    0    0  503  504 -0.00000000000E+00 -0.00000000000E+00 -0.15954706862E+03  0.15954706862E+03  0.00000000000E+00 0.  1.
         25    2    1    2    0    0  0.33493752424E+02  0.70600688483E+02 -0.78896837974E+02  0.16720395375E+03  0.12500464968E+03 0.  0.
         25    2    1    2    0    0 -0.33493752424E+02 -0.70600688483E+02  0.11234312384E+03  0.18533646936E+03  0.12498936249E+03 0.  0.
          5    1    3    3  501    0 -0.20629075557E+02  0.42406006375E+02 -0.93012839583E+02  0.10439016459E+03  0.47000000000E+01 0.  1.
         -5    1    3    3    0  501  0.54122827982E+02  0.28194682108E+02  0.14116001609E+02  0.62813789165E+02  0.47000000000E+01 0.  1.
          5    1    4    4  502    0 -0.78841241236E+02 -0.47447376158E+02  0.92296512864E+02  0.13041445898E+03  0.47000000000E+01 0.  1.
         -5    1    4    4    0  502  0.45347488812E+02 -0.23153312325E+02  0.20046610976E+02  0.54922010386E+02  0.47000000000E+01 0.  1.
<mgrwt>
<rscale>  0 0.35095028E+03</rscale>
<asrwt>0</asrwt>
<pdfrwt beam="1">  1       21 0.29691285E-01 0.35095028E+03</pdfrwt>
<pdfrwt beam="2">  1       21 0.24545703E-01 0.35095028E+03</pdfrwt>
<totfact> 0.16355181E+05</totfact>
</mgrwt>
</event>
<event>
 8    1  0.9529436E-006  0.2598278E+03  0.7546771E-02  0.1107247E+00
         21   -1    0    0  504  503  0.00000000000E+00  0.00000000000E+00  0.22034794367E+02  0.22034794367E+02  0.00000000000E+00 0. -1.
         21   -1    0    0  503  504 -0.00000000000E+00 -0.00000000000E+00 -0.76595322746E+03  0.76595322746E+03  0.00000000000E+00 0. -1.
         25    2    1    2    0    0 -0.21567811091E+02  0.25716831081E+01 -0.28705388541E+03  0.31383575751E+03  0.12498466121E+03 0.  0.
         25    2    1    2    0    0  0.21567811091E+02 -0.25716831081E+01 -0.45686454769E+03  0.47415226432E+03  0.12499348300E+03 0.  0.
          5    1    3    3  501    0 -0.16544727943E+02  0.40435477919E+02 -0.26671044787E+03  0.27030595424E+03  0.47000000000E+01 0.  1.
         -5    1    3    3    0  501 -0.50230831478E+01 -0.37863794811E+02 -0.20343437537E+02  0.43529803269E+02  0.47000000000E+01 0.  1.
          5    1    4    4  502    0  0.47949432184E+02 -0.36447430219E+02 -0.38931086737E+03  0.39397030937E+03  0.47000000000E+01 0. -1.
         -5    1    4    4    0  502 -0.26381621093E+02  0.33875747111E+02 -0.67553680321E+02  0.80181954944E+02  0.47000000000E+01 0. -1.
<mgrwt>
<rscale>  0 0.25982780E+03</rscale>
<asrwt>0</asrwt>
<pdfrwt beam="1">  1       21 0.33899681E-02 0.25982780E+03</pdfrwt>
<pdfrwt beam="2">  1       21 0.11783897E+00 0.25982780E+03</pdfrwt>
<totfact> 0.27953937E+05</totfact>
</mgrwt>
</event>
<event>
 8    1  0.9529436E-006  0.3145630E+03  0.7546771E-02  0.1078179E+00
         21   -1    0    0  504  503  0.00000000000E+00  0.00000000000E+00  0.33173283646E+02  0.33173283646E+02  0.00000000000E+00 0. -1.
         21   -1    0    0  503  504 -0.00000000000E+00 -0.00000000000E+00 -0.74570454318E+03  0.74570454318E+03  0.00000000000E+00 0. -1.
         25    2    1    2    0    0  0.12674988998E+02  0.71672064056E+02 -0.20332246913E+03  0.24952364231E+03  0.12499792602E+03 0.  0.
         25    2    1    2    0    0 -0.12674988998E+02 -0.71672064056E+02 -0.50920879041E+03  0.52935418451E+03  0.12499888128E+03 0.  0.
          5    1    3    3  501    0 -0.36062558488E+00  0.11042881571E+02 -0.18401033817E+03  0.18440165356E+03  0.47000000000E+01 0.  1.
         -5    1    3    3    0  501  0.13035614583E+02  0.60629182485E+02 -0.19312130958E+02  0.65121988748E+02  0.47000000000E+01 0.  1.
          5    1    4    4  502    0 -0.20204467923E+01 -0.22065097249E+02 -0.58108715765E+01  0.23383903659E+02  0.47000000000E+01 0.  1.
         -5    1    4    4    0  502 -0.10654542206E+02 -0.49606966807E+02 -0.50339791883E+03  0.50597028085E+03  0.47000000000E+01 0.  1.
<mgrwt>
<rscale>  0 0.31456299E+03</rscale>
<asrwt>0</asrwt>
<pdfrwt beam="1">  1       21 0.51035824E-02 0.31456299E+03</pdfrwt>
<pdfrwt beam="2">  1       21 0.11472377E+00 0.31456299E+03</pdfrwt>
<totfact> 0.14716183E+05</totfact>
</mgrwt>
</event>
<event>
 8    1  0.9529436E-006  0.5834180E+03  0.7546771E-02  0.9940418E-01
         21   -1    0    0  504  503  0.00000000000E+00  0.00000000000E+00  0.14543522376E+04  0.14543522376E+04  0.00000000000E+00 0. -1.
         21   -1    0    0  503  504 -0.00000000000E+00 -0.00000000000E+00 -0.58509996778E+02  0.58509996778E+02  0.00000000000E+00 0. -1.
         25    2    1    2    0    0  0.86254251537E+02  0.22141570635E+03  0.99362583861E+03  0.10292622051E+04  0.12499467483E+03 0.  0.
         25    2    1    2    0    0 -0.86254251537E+02 -0.22141570635E+03  0.40221640222E+03  0.48360002930E+03  0.12500497268E+03 0.  0.
          5    1    3    3  501    0  0.78358623537E+02  0.49469029382E+02  0.43108478600E+03  0.44095741457E+03  0.47000000000E+01 0. -1.
         -5    1    3    3    0  501  0.78956280010E+01  0.17194667697E+03  0.56254105261E+03  0.58830479051E+03  0.47000000000E+01 0. -1.
          5    1    4    4  502    0 -0.76495230546E+02 -0.42924771568E+02  0.15999479740E+03  0.18252255068E+03  0.47000000000E+01 0. -1.
         -5    1    4    4    0  502 -0.97590209916E+01 -0.17849093479E+03  0.24222160481E+03  0.30107747862E+03  0.47000000000E+01 0. -1.
<mgrwt>
<rscale>  0 0.58341801E+03</rscale>
<asrwt>0</asrwt>
<pdfrwt beam="1">  1       21 0.22374647E+00 0.58341801E+03</pdfrwt>
<pdfrwt beam="2">  1       21 0.90015391E-02 0.58341801E+03</pdfrwt>
<totfact> 0.76744168E+03</totfact>
</mgrwt>
</event>
<event>
 8    1  0.9529436E-006  0.2583037E+03  0.7546771E-02  0.1108167E+00
         21   -1    0    0  504  503  0.00000000000E+00  0.00000000000E+00  0.57631982553E+03  0.57631982553E+03  0.00000000000E+00 0.  1.
         21   -1    0    0  503  504 -0.00000000000E+00 -0.00000000000E+00 -0.28942609124E+02  0.28942609124E+02  0.00000000000E+00 0.  1.
         25    2    1    2    0    0 -0.23616859394E+02  0.88424251674E+01  0.32155381473E+03  0.34592227698E+03  0.12501768440E+03 0.  0.
         25    2    1    2    0    0  0.23616859394E+02 -0.88424251674E+01  0.22582340167E+03  0.25934015767E+03  0.12500065643E+03 0.  0.
          5    1    3    3  501    0  0.38545360479E+02  0.34328647311E+02  0.20362168394E+03  0.21011444741E+03  0.47000000000E+01 0. -1.
         -5    1    3    3    0  501 -0.62162219873E+02 -0.25486222143E+02  0.11793213079E+03  0.13580782957E+03  0.47000000000E+01 0. -1.
          5    1    4    4  502    0  0.59359337761E+02  0.33125302991E+01  0.45406181226E+02  0.74955420951E+02  0.47000000000E+01 0.  1.
         -5    1    4    4    0  502 -0.35742478367E+02 -0.12154955467E+02  0.18041722045E+03  0.18438473672E+03  0.47000000000E+01 0.  1.
<mgrwt>
<rscale>  0 0.25830369E+03</rscale>
<asrwt>0</asrwt>
<pdfrwt beam="1">  1       21 0.88664580E-01 0.25830369E+03</pdfrwt>
<pdfrwt beam="2">  1       21 0.44527095E-02 0.25830369E+03</pdfrwt>
<totfact> 0.34985478E+05</totfact>
</mgrwt>
</event>
<event>
 8    1  0.9529436E-006  0.2562200E+03  0.7546771E-02  0.1109436E+00
         21   -1    0    0  504  503  0.00000000000E+00  0.00000000000E+00  0.31001252965E+02  0.31001252965E+02  0.00000000000E+00 0. -1.
         21   -1    0    0  503  504 -0.00000000000E+00 -0.00000000000E+00 -0.52940347130E+03  0.52940347130E+03  0.00000000000E+00 0. -1.
         25    2    1    2    0    0  0.11008362607E+02  0.18377786212E+02 -0.28866090932E+03  0.31529357531E+03  0.12500396390E+03 0.  0.
         25    2    1    2    0    0 -0.11008362607E+02 -0.18377786212E+02 -0.20974130902E+03  0.24511114895E+03  0.12501652515E+03 0.  0.
          5    1    3    3  501    0  0.12343583087E+02  0.45159061841E+02 -0.28375783398E+03  0.28763223612E+03  0.47000000000E+01 0. -1.
         -5    1    3    3    0  501 -0.13352204793E+01 -0.26781275629E+02 -0.49030753354E+01  0.27661339190E+02  0.47000000000E+01 0. -1.
          5    1    4    4  502    0  0.58544631071E+01 -0.70003879743E+02 -0.13888788335E+03  0.15571368616E+03  0.47000000000E+01 0. -1.
         -5    1    4    4    0  502 -0.16862825715E+02  0.51626093531E+02 -0.70853425668E+02  0.89397462790E+02  0.47000000000E+01 0. -1.
<mgrwt>
<rscale>  0 0.25621999E+03</rscale>
<asrwt>0</asrwt>
<pdfrwt beam="1">  1       21 0.47694238E-02 0.25621999E+03</pdfrwt>
<pdfrwt beam="2">  1       21 0.81446684E-01 0.25621999E+03</pdfrwt>
<totfact> 0.37881255E+05</totfact>
</mgrwt>
</event>
<event>
 8    1  0.9529436E-006  0.4317853E+03  0.7546771E-02  0.1033297E+00
         21   -1    0    0  504  503  0.00000000000E+00  0.00000000000E+00  0.45185920158E+02  0.45185920158E+02  0.00000000000E+00 0. -1.
         21   -1    0    0  503  504 -0.00000000000E+00 -0.00000000000E+00 -0.10315081662E+04  0.10315081662E+04  0.00000000000E+00 0. -1.
         25    2    1    2    0    0  0.52294355069E+02  0.15205039559E+03 -0.67176315110E+03  0.70195875988E+03  0.12500538799E+03 0.  0.
         25    2    1    2    0    0 -0.52294355069E+02 -0.15205039559E+03 -0.31455909493E+03  0.37473532646E+03  0.12500047331E+03 0.  0.
          5    1    3    3  501    0  0.80028971048E+02  0.12318362798E+03 -0.61514598102E+03  0.63245988835E+03  0.47000000000E+01 0.  1.
         -5    1    3    3    0  501 -0.27734615979E+02  0.28866767611E+02 -0.56617170076E+02  0.69498871525E+02  0.47000000000E+01 0.  1.
          5    1    4    4  502    0  0.32891016704E+02 -0.70835182965E+02 -0.17773206571E+03  0.19419119267E+03  0.47000000000E+01 0. -1.
         -5    1    4    4    0  502 -0.85185371773E+02 -0.81215212623E+02 -0.13682702921E+03  0.18054413380E+03  0.47000000000E+01 0. -1.
<mgrwt>
<rscale>  0 0.43178534E+03</rscale>
<asrwt>0</asrwt>
<pdfrwt beam="1">  1       21 0.69516801E-02 0.43178534E+03</pdfrwt>
<pdfrwt beam="2">  1       21 0.15869356E+00 0.43178534E+03</pdfrwt>
<totfact> 0.35676469E+04</totfact>
</mgrwt>
</event>
<event>
 8    1  0.9529436E-006  0.3381943E+03  0.7546771E-02  0.1067568E+00
         21   -1    0    0  504  503  0.00000000000E+00  0.00000000000E+00  0.19907220966E+04  0.19907220966E+04  0.00000000000E+00 0. -1.
         21   -1    0    0  503  504 -0.00000000000E+00 -0.00000000000E+00 -0.14363551568E+02  0.14363551568E+02  0.00000000000E+00 0. -1.
         25    2    1    2    0    0  0.24940623584E+02  0.26381250569E+02  0.16281134756E+04  0.16333086420E+04  0.12500250232E+03 0.  0.
         25    2    1    2    0    0 -0.24940623584E+02 -0.26381250569E+02  0.34824506947E+03  0.37177700618E+03  0.12500203530E+03 0.  0.
          5    1    3    3  501    0 -0.44740583457E+02 -0.16679656480E+02  0.63787322978E+03  0.63967513475E+03  0.47000000000E+01 0.  1.
         -5    1    3    3    0  501  0.69681207041E+02  0.43060907050E+02  0.99024024581E+03  0.99363350726E+03  0.47000000000E+01 0.  1.
          5    1    4    4  502    0 -0.18377247169E+02 -0.71538593802E+02  0.27949148619E+03  0.28912466943E+03  0.47000000000E+01 0. -1.
         -5    1    4    4    0  502 -0.65633764153E+01  0.45157343232E+02  0.68753583271E+02  0.82652336751E+02  0.47000000000E+01 0. -1.
<mgrwt>
<rscale>  0 0.33819426E+03</rscale>
<asrwt>0</asrwt>
<pdfrwt beam="1">  1       21 0.30626472E+00 0.33819426E+03</pdfrwt>
<pdfrwt beam="2">  1       21 0.22097787E-02 0.33819426E+03</pdfrwt>
<totfact> 0.29567737E+04</totfact>
</mgrwt>
</event>
<event>
 8    1  0.9529436E-006  0.2528601E+03  0.7546771E-02  0.1111511E+00
         21   -1    0    0  504  503  0.00000000000E+00  0.00000000000E+00  0.80535596426E+02  0.80535596426E+02  0.00000000000E+00 0.  1.
         21   -1    0    0  503  504 -0.00000000000E+00 -0.00000000000E+00 -0.19847809709E+03  0.19847809709E+03  0.00000000000E+00 0.  1.
         25    2    1    2    0    0 -0.58086720567E+01  0.17052602189E+02 -0.52556531532E+02  0.13679419682E+03  0.12500372540E+03 0.  0.
         25    2    1    2    0    0  0.58086720567E+01 -0.17052602189E+02 -0.65385969135E+02  0.14221949670E+03  0.12500611333E+03 0.  0.
          5    1    3    3  501    0 -0.56248193766E+02 -0.23406194895E+02 -0.30653488868E+02  0.68362530974E+02  0.47000000000E+01 0.  1.
         -5    1    3    3    0  501  0.50439521710E+02  0.40458797085E+02 -0.21903042664E+02  0.68431665841E+02  0.47000000000E+01 0.  1.
          5    1    4    4  502    0  0.36011155290E+02  0.17447080293E+02  0.20155435219E+02  0.45050366092E+02  0.47000000000E+01 0.  1.
         -5    1    4    4    0  502 -0.30202483234E+02 -0.34499682483E+02 -0.85541404355E+02  0.97169130612E+02  0.47000000000E+01 0.  1.
<mgrwt>
<rscale>  0 0.25286006E+03</rscale>
<asrwt>0</asrwt>
<pdfrwt beam="1">  1       21 0.12390092E-01 0.25286006E+03</pdfrwt>
<pdfrwt beam="2">  1       21 0.30535092E-01 0.25286006E+03</pdfrwt>
<totfact> 0.56421606E+05</totfact>
</mgrwt>
</event>
<event>
 8    1  0.9529436E-006  0.3719931E+03  0.7546771E-02  0.1053933E+00
         21   -1    0    0  504  503  0.00000000000E+00  0.00000000000E+00  0.10713453188E+03  0.10713453188E+03  0.00000000000E+00 0. -1.
         21   -1    0    0  503  504 -0.00000000000E+00 -0.00000000000E+00 -0.32290914343E+03  0.32290914343E+03  0.00000000000E+00 0. -1.
         25    2    1    2    0    0  0.53504331235E+02  0.11123257934E+03 -0.17849202932E+03  0.25043973157E+03  0.12500101779E+03 0.  0.
         25    2    1    2    0    0 -0.53504331235E+02 -0.11123257934E+03 -0.37282582226E+02  0.17960394375E+03  0.12502873872E+03 0.  0.
          5    1    3    3  501    0 -0.27130608456E+02  0.68985927140E+01 -0.82566907266E+02  0.87310049090E+02  0.47000000000E+01 0.  1.
         -5    1    3    3    0  501  0.80634939691E+02  0.10433398662E+03 -0.95925122054E+02  0.16312968248E+03  0.47000000000E+01 0.  1.
          5    1    4    4  502    0 -0.38112667646E+02 -0.85270389386E+02 -0.82720394464E+02  0.12485338762E+03  0.47000000000E+01 0. -1.
         -5    1    4    4    0  502 -0.15391663590E+02 -0.25962189950E+02  0.45437812237E+02  0.54750556125E+02  0.47000000000E+01 0. -1.
<mgrwt>
<rscale>  0 0.37199312E+03</rscale>
<asrwt>0</asrwt>
<pdfrwt beam="1">  1       21 0.16482236E-01 0.37199312E+03</pdfrwt>
<pdfrwt beam="2">  1       21 0.49678329E-01 0.37199312E+03</pdfrwt>
<totfact> 0.12118275E+05</totfact>
</mgrwt>
</event>
<event>
 8    1  0.9529436E-006  0.3211260E+03  0.7546771E-02  0.1075132E+00
         21   -1    0    0  504  503  0.00000000000E+00  0.00000000000E+00  0.39913284443E+03  0.39913284443E+03  0.00000000000E+00 0.  1.
         21   -1    0    0  503  504 -0.00000000000E+00 -0.00000000000E+00 -0.64591209980E+02  0.64591209980E+02  0.00000000000E+00 0.  1.
         25    2    1    2    0    0 -0.29934555835E+02  0.75073725307E+02  0.80350902136E+02  0.16915655088E+03  0.12500211745E+03 0.  0.
         25    2    1    2    0    0  0.29934555835E+02 -0.75073725307E+02  0.25419073232E+03  0.29456750353E+03  0.12499977550E+03 0.  0.
          5    1    3    3  501    0 -0.56959928579E+02  0.47433001571E+02 -0.59156661929E+01  0.74507772804E+02  0.47000000000E+01 0.  1.
         -5    1    3    3    0  501  0.27025372743E+02  0.27640723736E+02  0.86266568329E+02  0.94648778079E+02  0.47000000000E+01 0.  1.
          5    1    4    4  502    0  0.27718737594E+02  0.20644903964E+02  0.14559816182E+03  0.14971791876E+03  0.47000000000E+01 0. -1.
         -5    1    4    4    0  502  0.22158182414E+01 -0.95718629270E+02  0.10859257050E+03  0.14484958477E+03  0.47000000000E+01 0. -1.
<mgrwt>
<rscale>  0 0.32112598E+03</rscale>
<asrwt>0</asrwt>
<pdfrwt beam="1">  1       21 0.61405052E-01 0.32112598E+03</pdfrwt>
<pdfrwt beam="2">  1       21 0.99371095E-02 0.32112598E+03</pdfrwt>
<totfact> 0.19540631E+05</totfact>
</mgrwt>
</event>
<event>
 8    1  0.9529436E-006  0.4181784E+03  0.7546771E-02  0.1037661E+00
         21   -1    0    0  504  503  0.00000000000E+00  0.00000000000E+00  0.16382204493E+03  0.16382204493E+03  0.00000000000E+00 0.  1.
         21   -1    0    0  503  504 -0.00000000000E+00 -0.00000000000E+00 -0.26686458769E+03  0.26686458769E+03  0.00000000000E+00 0.  1.
         25    2    1    2    0    0  0.86919242406E+02 -0.14291918929E+03 -0.62408457667E+02  0.21794994698E+03  0.12500605757E+03 0.  0.
         25    2    1    2    0    0 -0.86919242406E+02  0.14291918929E+03 -0.40634085088E+02  0.21273668564E+03  0.12499967671E+03 0.  0.
          5    1    3    3  501    0  0.10020150514E+03 -0.15864878413E+03 -0.55632385969E+02  0.19577239516E+03  0.47000000000E+01 0. -1.
         -5    1    3    3    0  501 -0.13282262729E+02  0.15729594838E+02 -0.67760716983E+01  0.22177551818E+02  0.47000000000E+01 0. -1.
          5    1    4    4  502    0 -0.11409689992E+03  0.84967806819E+02 -0.13227736305E+02  0.14294996948E+03  0.47000000000E+01 0. -1.
         -5    1    4    4    0  502  0.27177657514E+02  0.57951382473E+02 -0.27406348783E+02  0.69786716158E+02  0.47000000000E+01 0. -1.
<mgrwt>
<rscale>  0 0.41817844E+03</rscale>
<asrwt>0</asrwt>
<pdfrwt beam="1">  1       21 0.25203392E-01 0.41817844E+03</pdfrwt>
<pdfrwt beam="2">  1       21 0.41056090E-01 0.41817844E+03</pdfrwt>
<totfact> 0.79694039E+04</totfact>
</mgrwt>
</event>
<event>
 8    1  0.9529436E-006  0.2952494E+03  0.7546771E-02  0.1087640E+00
         21   -1    0    0  504  503  0.00000000000E+00  0.00000000000E+00  0.10645379584E+03  0.10645379584E+03  0.00000000000E+00 0.  1.
         21   -1    0    0  503  504 -0.00000000000E+00 -0.00000000000E+00 -0.20471843908E+03  0.20471843908E+03  0.00000000000E+00 0.  1.
         25    2    1    2    0    0  0.16229225455E+02  0.22342354471E+02 -0.12661390521E+03  0.18005065580E+03  0.12499835640E+03 0.  0.
         25    2    1    2    0    0 -0.16229225455E+02 -0.22342354471E+02  0.28349261965E+02  0.13112157911E+03  0.12500647700E+03 0.  0.
          5    1    3    3  501    0  0.97510932632E+01  0.68391173091E+02 -0.11089841902E+03  0.13074014578E+03  0.47000000000E+01 0. -1.
         -5    1    3    3    0  501  0.64781321917E+01 -0.46048818620E+02 -0.15715486184E+02  0.49310510026E+02  0.47000000000E+01 0. -1.
          5    1    4    4  502    0 -0.49545139680E+02 -0.57637606718E+02  0.31157480039E+02  0.82278144950E+02  0.47000000000E+01 0.  1.
         -5    1    4    4    0  502  0.33315914225E+02  0.35295252247E+02 -0.28082180739E+01  0.48843434161E+02  0.47000000000E+01 0.  1.
<mgrwt>
<rscale>  0 0.29524942E+03</rscale>
<asrwt>0</asrwt>
<pdfrwt beam="1">  1       21 0.16377507E-01 0.29524942E+03</pdfrwt>
<pdfrwt beam="2">  1       21 0.31495144E-01 0.29524942E+03</pdfrwt>
<totfact> 0.31628734E+05</totfact>
</mgrwt>
</event>
<event>
 8    1  0.9529436E-006  0.4610530E+03  0.7546771E-02  0.1024476E+00
         21   -1    0    0  504  503  0.00000000000E+00  0.00000000000E+00  0.23432898676E+03  0.23432898676E+03  0.00000000000E+00 0.  1.
         21   -1    0    0  503  504 -0.00000000000E+00 -0.00000000000E+00 -0.22678574635E+03  0.22678574635E+03  0.00000000000E+00 0.  1.
         25    2    1    2    0    0 -0.12823155076E+03  0.75336099004E+02  0.12787854632E+03  0.23258661652E+03  0.12499901261E+03 0.  0.
         25    2    1    2    0    0  0.12823155076E+03 -0.75336099004E+02 -0.12033530592E+03  0.22852811659E+03  0.12500262316E+03 0.  0.
          5    1    3    3  501    0 -0.81132261528E+02  0.61522988150E+02  0.14768902590E+03  0.17944821064E+03  0.47000000000E+01 0.  1.
         -5    1    3    3    0  501 -0.47099289237E+02  0.13813110854E+02 -0.19810479584E+02  0.53138405880E+02  0.47000000000E+01 0.  1.
          5    1    4    4  502    0  0.10289448158E+02 -0.22409941165E+02  0.23984631374E+02  0.34719313768E+02  0.47000000000E+01 0. -1.
         -5    1    4    4    0  502  0.11794210261E+03 -0.52926157839E+02 -0.14431993729E+03  0.19380880282E+03  0.47000000000E+01 0. -1.
<mgrwt>
<rscale>  0 0.46105303E+03</rscale>
<asrwt>0</asrwt>
<pdfrwt beam="1">  1       21 0.36050613E-01 0.46105303E+03</pdfrwt>
<pdfrwt beam="2">  1       21 0.34890115E-01 0.46105303E+03</pdfrwt>
<totfact> 0.54079938E+04</totfact>
</mgrwt>
</event>
<event>
 8    1  0.9529436E-006  0.2992325E+03  0.7546771E-02  0.1085625E+00
         21   -1    0    0  504  503  0.00000000000E+00  0.00000000000E+00  0.34065770604E+02  0.34065770604E+02  0.00000000000E+00 0. -1.
         21   -1    0    0  503  504 -0.00000000000E+00 -0.00000000000E+00 -0.65711191839E+03  0.65711191839E+03  0.00000000000E+00 0. -1.
         25    2    1    2    0    0 -0.26522509682E+01  0.19510073790E+02 -0.49590826797E+03  0.51180038226E+03  0.12500777429E+03 0.  0.
         25    2    1    2    0    0  0.26522509682E+01 -0.19510073790E+02 -0.12713787982E+03  0.17937730673E+03  0.12499800107E+03 0.  0.
          5    1    3    3  501    0 -0.24940467774E+02  0.38275016953E+02 -0.47085131738E+03  0.47308567611E+03  0.47000000000E+01 0.  1.
         -5    1    3    3    0  501  0.22288216806E+02 -0.18764943163E+02 -0.25056950585E+02  0.38714706158E+02  0.47000000000E+01 0.  1.
          5    1    4    4  502    0 -0.55453012011E+02 -0.30166024833E+02 -0.87831256192E+02  0.10826562317E+03  0.47000000000E+01 0.  1.
         -5    1    4    4    0  502  0.58105262979E+02  0.10655951043E+02 -0.39306623629E+02  0.71111683566E+02  0.47000000000E+01 0.  1.
<mgrwt>
<rscale>  0 0.29923251E+03</rscale>
<asrwt>0</asrwt>
<pdfrwt beam="1">  1       21 0.52408877E-02 0.29923251E+03</pdfrwt>
<pdfrwt beam="2">  1       21 0.10109414E+00 0.29923251E+03</pdfrwt>
<totfact> 0.19233285E+05</totfact>
</mgrwt>
</event>
<event>
 8    1  0.9529436E-006  0.5145339E+03  0.7546771E-02  0.1010053E+00
         21   -1    0    0  504  503  0.00000000000E+00  0.00000000000E+00  0.65733797929E+02  0.65733797929E+02  0.00000000000E+00 0.  1.
         21   -1    0    0  503  504 -0.00000000000E+00 -0.00000000000E+00 -0.10068837641E+04  0.10068837641E+04  0.00000000000E+00 0.  1.
         25    2    1    2    0    0  0.98787602023E+02 -0.11490393157E+03 -0.81689506349E+03  0.84018213261E+03  0.12500626945E+03 0.  0.
         25    2    1    2    0    0 -0.98787602023E+02  0.11490393157E+03 -0.12425490268E+03  0.23243542942E+03  0.12500017682E+03 0.  0.
          5    1    3    3  501    0 -0.94040230299E+01 -0.15431760532E+02 -0.12530112276E+02  0.22487076197E+02  0.47000000000E+01 0.  1.
         -5    1    3    3    0  501  0.10819162505E+03 -0.99472171038E+02 -0.80436495122E+03  0.81769505642E+03  0.47000000000E+01 0.  1.
          5    1    4    4  502    0 -0.81157150847E+02  0.21849093387E+02 -0.11267998503E+02  0.84928933854E+02  0.47000000000E+01 0. -1.
         -5    1    4    4    0  502 -0.17630451176E+02  0.93054838183E+02 -0.11298690418E+03  0.14750649557E+03  0.47000000000E+01 0. -1.
<mgrwt>
<rscale>  0 0.51453394E+03</rscale>
<asrwt>0</asrwt>
<pdfrwt beam="1">  1       21 0.10112893E-01 0.51453394E+03</pdfrwt>
<pdfrwt beam="2">  1       21 0.15490518E+00 0.51453394E+03</pdfrwt>
<totfact> 0.19143439E+04</totfact>
</mgrwt>
</event>
<event>
 8    1  0.9529436E-006  0.3413332E+03  0.7546771E-02  0.1066230E+00
         21   -1    0    0  504  503  0.00000000000E+00  0.00000000000E+00  0.28961786390E+02  0.28961786390E+02  0.00000000000E+00 0.  1.
         21   -1    0    0  503  504 -0.00000000000E+00 -0.00000000000E+00 -0.10057075432E+04  0.10057075432E+04  0.00000000000E+00 0.  1.
         25    2    1    2    0    0  0.42160867279E+02 -0.94062719468E+02 -0.65085170053E+03  0.67071559036E+03  0.12500453250E+03 0.  0.
         25    2    1    2    0    0 -0.42160867279E+02  0.94062719468E+02 -0.32589405631E+03  0.36395373926E+03  0.12502021621E+03 0.  0.
          5    1    3    3  501    0  0.58186154337E+02 -0.18193682425E+02 -0.12496783377E+03  0.13912472143E+03  0.47000000000E+01 0. -1.
         -5    1    3    3    0  501 -0.16025287058E+02 -0.75869037043E+02 -0.52588386675E+03  0.53159086892E+03  0.47000000000E+01 0. -1.
          5    1    4    4  502    0 -0.36943626884E+02 -0.23584144237E+02 -0.94433115985E+02  0.10421490691E+03  0.47000000000E+01 0. -1.
         -5    1    4    4    0  502 -0.52172403949E+01  0.11764686371E+03 -0.23146094032E+03  0.25973883235E+03  0.47000000000E+01 0. -1.
<mgrwt>
<rscale>  0 0.34133319E+03</rscale>
<asrwt>0</asrwt>
<pdfrwt beam="1">  1       21 0.44556590E-02 0.34133319E+03</pdfrwt>
<pdfrwt beam="2">  1       21 0.15472425E+00 0.34133319E+03</pdfrwt>
<totfact> 0.84812586E+04</totfact>
</mgrwt>
</event>
<event>
 8    1  0.9529436E-006  0.3485533E+03  0.7546771E-02  0.1063210E+00
         21   -1    0    0  504  503  0.00000000000E+00  0.00000000000E+00  0.95251812580E+02  0.95251812580E+02  0.00000000000E+00 0.  1.
         21   -1    0    0  503  504 -0.00000000000E+00 -0.00000000000E+00 -0.31886377176E+03  0.31886377176E+03  0.00000000000E+00 0.  1.
         25    2    1    2    0    0 -0.10223114060E+03  0.27942130646E+02 -0.41334513834E+02  0.16901555372E+03  0.12500298633E+03 0.  0.
         25    2    1    2    0    0  0.10223114060E+03 -0.27942130646E+02 -0.18227744535E+03  0.24510003062E+03  0.12496795251E+03 0.  0.
          5    1    3    3  501    0 -0.31430795884E+02  0.28734681181E+02 -0.78111967738E+02  0.89090663576E+02  0.47000000000E+01 0.  1.
         -5    1    3    3    0  501 -0.70800344719E+02 -0.79255053574E+00  0.36777453904E+02  0.79924890143E+02  0.47000000000E+01 0.  1.
          5    1    4    4  502    0 -0.20714931627E+02 -0.30684600607E+02 -0.65835205191E+02  0.75677059597E+02  0.47000000000E+01 0. -1.
         -5    1    4    4    0  502  0.12294607223E+03  0.27424699610E+01 -0.11644224016E+03  0.16942297102E+03  0.47000000000E+01 0. -1.
<mgrwt>
<rscale>  0 0.34855331E+03</rscale>
<asrwt>0</asrwt>
<pdfrwt beam="1">  1       21 0.14654125E-01 0.34855331E+03</pdfrwt>
<pdfrwt beam="2">  1       21 0.49055966E-01 0.34855331E+03</pdfrwt>
<totfact> 0.15549627E+05</totfact>
</mgrwt>
</event>
<event>
 8    1  0.9529436E-006  0.2828231E+03  0.7546771E-02  0.1094157E+00
         21   -1    0    0  504  503  0.00000000000E+00  0.00000000000E+00  0.22696169946E+03  0.22696169946E+03  0.00000000000E+00 0.  1.
         21   -1    0    0  503  504 -0.00000000000E+00 -0.00000000000E+00 -0.88108383208E+02  0.88108383208E+02  0.00000000000E+00 0.  1.
         25    2    1    2    0    0  0.48076480697E+02 -0.22654378776E+01  0.11989905774E+03  0.17978657156E+03  0.12502378598E+03 0.  0.
         25    2    1    2    0    0 -0.48076480697E+02  0.22654378776E+01  0.18954258510E+02  0.13528351111E+03  0.12500353698E+03 0.  0.
          5    1    3    3  501    0 -0.18248942578E+02 -0.29436538046E+02  0.98985220657E+02  0.10497474737E+03  0.47000000000E+01 0. -1.
         -5    1    3    3    0  501  0.66325423275E+02  0.27171100169E+02  0.20913837088E+02  0.74811824191E+02  0.47000000000E+01 0. -1.
          5    1    4    4  502    0 -0.29614278897E+02 -0.14140928577E+02 -0.51067573609E+02  0.60884796542E+02  0.47000000000E+01 0. -1.
         -5    1    4    4    0  502 -0.18462201800E+02  0.16406366454E+02  0.70021832119E+02  0.74398714564E+02  0.47000000000E+01 0. -1.
<mgrwt>
<rscale>  0 0.28282311E+03</rscale>
<asrwt>0</asrwt>
<pdfrwt beam="1">  1       21 0.34917184E-01 0.28282311E+03</pdfrwt>
<pdfrwt beam="2">  1       21 0.13555136E-01 0.28282311E+03</pdfrwt>
<totfact> 0.36544089E+05</totfact>
</mgrwt>
</event>
<event>
 8    1  0.9529436E-006  0.2719902E+03  0.7546771E-02  0.1100146E+00
         21   -1    0    0  504  503  0.00000000000E+00  0.00000000000E+00  0.52078175310E+02  0.52078175310E+02  0.00000000000E+00 0.  1.
         21   -1    0    0  503  504 -0.00000000000E+00 -0.00000000000E+00 -0.35513280713E+03  0.35513280713E+03  0.00000000000E+00 0.  1.
         25    2    1    2    0    0 -0.51274014522E+01 -0.51712391664E+02 -0.13199841551E+03  0.18907200634E+03  0.12499672071E+03 0.  0.
         25    2    1    2    0    0  0.51274014522E+01  0.51712391664E+02 -0.17105621631E+03  0.21813897610E+03  0.12499568816E+03 0.  0.
          5    1    3    3  501    0 -0.37325459789E+00  0.36350224611E+02 -0.91617612242E+01  0.37782350602E+02  0.47000000000E+01 0. -1.
         -5    1    3    3    0  501 -0.47541468543E+01 -0.88062616275E+02 -0.12283665428E+03  0.15128965574E+03  0.47000000000E+01 0. -1.
          5    1    4    4  502    0 -0.43356044950E+02  0.70661351553E+02 -0.10826712208E+03  0.13644278273E+03  0.47000000000E+01 0.  1.
         -5    1    4    4    0  502  0.48483446402E+02 -0.18948959888E+02 -0.62789094239E+02  0.81696193371E+02  0.47000000000E+01 0.  1.
<mgrwt>
<rscale>  0 0.27199021E+03</rscale>
<asrwt>0</asrwt>
<pdfrwt beam="1">  1       21 0.80120272E-02 0.27199021E+03</pdfrwt>
<pdfrwt beam="2">  1       21 0.54635815E-01 0.27199021E+03</pdfrwt>
<totfact> 0.37183482E+05</totfact>
</mgrwt>
</event>
<event>
 8    1  0.9529436E-006  0.2590126E+03  0.7546771E-02  0.1107738E+00
         21   -1    0    0  504  503  0.00000000000E+00  0.00000000000E+00  0.51843612978E+03  0.51843612978E+03  0.00000000000E+00 0.  1.
         21   -1    0    0  503  504 -0.00000000000E+00 -0.00000000000E+00 -0.32350900179E+02  0.32350900179E+02  0.00000000000E+00 0.  1.
         25    2    1    2    0    0 -0.31842903158E+02 -0.11543087044E+02  0.23880896473E+03  0.27164860873E+03  0.12496412146E+03 0.  0.
         25    2    1    2    0    0  0.31842903158E+02  0.11543087044E+02  0.24727626488E+03  0.27913842123E+03  0.12500197476E+03 0.  0.
          5    1    3    3  501    0 -0.43923130037E+02 -0.37001328222E+01  0.24930648456E+03  0.25321679561E+03  0.47000000000E+01 0. -1.
         -5    1    3    3    0  501  0.12080226879E+02 -0.78429542218E+01 -0.10497519833E+02  0.18431813123E+02  0.47000000000E+01 0. -1.
          5    1    4    4  502    0  0.34133137101E+02 -0.11286464121E+02  0.60260396781E+01  0.36754026649E+02  0.47000000000E+01 0.  1.
         -5    1    4    4    0  502 -0.22902339424E+01  0.22829551165E+02  0.24125022520E+03  0.24238439458E+03  0.47000000000E+01 0.  1.
<mgrwt>
<rscale>  0 0.25901255E+03</rscale>
<asrwt>0</asrwt>
<pdfrwt beam="1">  1       21 0.79759398E-01 0.25901255E+03</pdfrwt>
<pdfrwt beam="2">  1       21 0.49770620E-02 0.25901255E+03</pdfrwt>
<totfact> 0.36928479E+05</totfact>
</mgrwt>
</event>
<event>
 8    1  0.9529436E-006  0.8503254E+03  0.7546771E-02  0.9489900E-01
         21   -1    0    0  504  503  0.00000000000E+00  0.00000000000E+00  0.45017516946E+03  0.45017516946E+03  0.00000000000E+00 0. -1.
         21   -1    0    0  503  504 -0.00000000000E+00 -0.00000000000E+00 -0.40153996883E+03  0.40153996883E+03  0.00000000000E+00 0. -1.
         25    2    1    2    0    0  0.33855486881E+03  0.20068665803E+03 -0.77057056093E+02  0.42007205418E+03  0.12501282695E+03 0.  0.
         25    2    1    2    0    0 -0.33855486881E+03 -0.20068665803E+03  0.12569225673E+03  0.43164308411E+03  0.12499069866E+03 0.  0.
          5    1    3    3  501    0  0.16971143721E+03  0.38385902488E+02 -0.19304463526E+01  0.17407258846E+03  0.47000000000E+01 0.  1.
         -5    1    3    3    0  501  0.16884343160E+03  0.16230075554E+03 -0.75126609741E+02  0.24599946572E+03  0.47000000000E+01 0.  1.
          5    1    4    4  502    0 -0.59516903090E+02 -0.39101171493E+02 -0.25094461397E+02  0.75650415454E+02  0.47000000000E+01 0. -1.
         -5    1    4    4    0  502 -0.27903796572E+03 -0.16158548654E+03  0.15078671813E+03  0.35599266865E+03  0.47000000000E+01 0. -1.
<mgrwt>
<rscale>  0 0.85032540E+03</rscale>
<asrwt>0</asrwt>
<pdfrwt beam="1">  1       21 0.69257719E-01 0.85032540E+03</pdfrwt>
<pdfrwt beam="2">  1       21 0.61775380E-01 0.85032540E+03</pdfrwt>
<totfact> 0.36777711E+03</totfact>
</mgrwt>
</event>
<event>
 8    1  0.9529436E-006  0.3283420E+03  0.7546771E-02  0.1071873E+00
         21   -1    0    0  504  503  0.00000000000E+00  0.00000000000E+00  0.12305497836E+03  0.12305497836E+03  0.00000000000E+00 0. -1.
         21   -1    0    0  503  504 -0.00000000000E+00 -0.00000000000E+00 -0.21902505104E+03  0.21902505104E+03  0.00000000000E+00 0. -1.
         25    2    1    2    0    0 -0.97023852344E+02  0.43462351932E+02 -0.42741316486E+02  0.16956819950E+03  0.12499580068E+03 0.  0.
         25    2    1    2    0    0  0.97023852344E+02 -0.43462351932E+02 -0.53228756195E+02  0.17251182990E+03  0.12499770802E+03 0.  0.
          5    1    3    3  501    0 -0.20551190010E+02  0.44302321700E+02 -0.72356914336E+02  0.87422309344E+02  0.47000000000E+01 0. -1.
         -5    1    3    3    0  501 -0.76472662334E+02 -0.83996976828E+00  0.29615597850E+02  0.82145890157E+02  0.47000000000E+01 0. -1.
          5    1    4    4  502    0  0.11291904158E+03 -0.15696201433E+02 -0.72194565511E+02  0.13502305721E+03  0.47000000000E+01 0.  1.
         -5    1    4    4    0  502 -0.15895189233E+02 -0.27766150499E+02  0.18965809316E+02  0.37488772683E+02  0.47000000000E+01 0.  1.
<mgrwt>
<rscale>  0 0.32834203E+03</rscale>
<asrwt>0</asrwt>
<pdfrwt beam="1">  1       21 0.18931535E-01 0.32834203E+03</pdfrwt>
<pdfrwt beam="2">  1       21 0.33696162E-01 0.32834203E+03</pdfrwt>
<totfact> 0.20962054E+05</totfact>
</mgrwt>
</event>
<event>
 8    1  0.9529436E-006  0.3184668E+03  0.7546771E-02  0.1076357E+00
         21   -1    0    0  504  503  0.00000000000E+00  0.00000000000E+00  0.13240446757E+03  0.13240446757E+03  0.00000000000E+00 0. -1.
         21   -1    0    0  503  504 -0.00000000000E+00 -0.00000000000E+00 -0.19149858569E+03  0.19149858569E+03  0.00000000000E+00 0. -1.
         25    2    1    2    0    0 -0.15121290986E+02 -0.97390152268E+02 -0.25450097563E+02  0.16120410979E+03  0.12500224937E+03 0.  0.
         25    2    1    2    0    0  0.15121290986E+02  0.97390152268E+02 -0.33644020553E+02  0.16269894347E+03  0.12500212353E+03 0.  0.
          5    1    3    3  501    0 -0.53020734326E+02 -0.29232697705E+02  0.27664053049E+02  0.66731841835E+02  0.47000000000E+01 0. -1.
         -5    1    3    3    0  501  0.37899443341E+02 -0.68157454563E+02 -0.53114150612E+02  0.94472267959E+02  0.47000000000E+01 0. -1.
          5    1    4    4  502    0  0.15230192824E+02  0.11965160492E+03 -0.53937519142E+02  0.13221123744E+03  0.47000000000E+01 0. -1.
         -5    1    4    4    0  502 -0.10890183832E+00 -0.22261452657E+02  0.20293498589E+02  0.30487706031E+02  0.47000000000E+01 0. -1.
<mgrwt>
<rscale>  0 0.31846675E+03</rscale>
<asrwt>0</asrwt>
<pdfrwt beam="1">  1       21 0.20369918E-01 0.31846675E+03</pdfrwt>
<pdfrwt beam="2">  1       21 0.29461321E-01 0.31846675E+03</pdfrwt>
<totfact> 0.23878293E+05</totfact>
</mgrwt>
</event>
<event>
 8    1  0.9529436E-006  0.3235282E+03  0.7546771E-02  0.1074037E+00
         21   -1    0    0  504  503  0.00000000000E+00  0.00000000000E+00  0.25418442294E+03  0.25418442294E+03  0.00000000000E+00 0. -1.
         21   -1    0    0  503  504 -0.00000000000E+00 -0.00000000000E+00 -0.10294739852E+03  0.10294739852E+03  0.00000000000E+00 0. -1.
         25    2    1    2    0    0  0.42708532727E+02 -0.61598825976E+00  0.17869043585E+03  0.22221515140E+03  0.12499961376E+03 0.  0.
         25    2    1    2    0    0 -0.42708532727E+02  0.61598825976E+00 -0.27453411430E+02  0.13491667006E+03  0.12499767938E+03 0.  0.
          5    1    3    3  501    0 -0.36648239636E+02  0.26068734268E+02  0.86406645987E+02  0.97523693764E+02  0.47000000000E+01 0. -1.
         -5    1    3    3    0  501  0.79356772363E+02 -0.26684722528E+02  0.92283789865E+02  0.12469145764E+03  0.47000000000E+01 0. -1.
          5    1    4    4  502    0 -0.26638071415E+02  0.47557349980E+02 -0.55329556944E+02  0.77812198642E+02  0.47000000000E+01 0. -1.
         -5    1    4    4    0  502 -0.16070461312E+02 -0.46941361720E+02  0.27876145513E+02  0.57104471415E+02  0.47000000000E+01 0. -1.
<mgrwt>
<rscale>  0 0.32352821E+03</rscale>
<asrwt>0</asrwt>
<pdfrwt beam="1">  1       21 0.39105296E-01 0.32352821E+03</pdfrwt>
<pdfrwt beam="2">  1       21 0.15838061E-01 0.32352821E+03</pdfrwt>
<totfact> 0.21668719E+05</totfact>
</mgrwt>
</event>
<event>
 8    1  0.9529436E-006  0.2928150E+03  0.7546771E-02  0.1088889E+00
         21   -1    0    0  504  503  0.00000000000E+00  0.00000000000E+00  0.40472684338E+02  0.40472684338E+02  0.00000000000E+00 0.  1.
         21   -1    0    0  503  504 -0.00000000000E+00 -0.00000000000E+00 -0.52962023287E+03  0.52962023287E+03  0.00000000000E+00 0.  1.
         25    2    1    2    0    0 -0.22185380535E+01  0.98962101987E+01 -0.97499291058E+02  0.15885516431E+03  0.12500397827E+03 0.  0.
         25    2    1    2    0    0  0.22185380535E+01 -0.98962101987E+01 -0.39164825747E+03  0.41123775289E+03  0.12500109975E+03 0.  0.
          5    1    3    3  501    0 -0.39422650809E+02 -0.23128733223E+02  0.35927681618E+01  0.46087760635E+02  0.47000000000E+01 0. -1.
         -5    1    3    3    0  501  0.37204112755E+02  0.33024943422E+02 -0.10109205922E+03  0.11276740367E+03  0.47000000000E+01 0. -1.
          5    1    4    4  502    0  0.17106708738E+02  0.37204730906E+02 -0.32776732973E+03  0.33034882159E+03  0.47000000000E+01 0.  1.
         -5    1    4    4    0  502 -0.14888170684E+02 -0.47100941105E+02 -0.63880927741E+02  0.80888931309E+02  0.47000000000E+01 0.  1.
<mgrwt>
<rscale>  0 0.29281498E+03</rscale>
<asrwt>0</asrwt>
<pdfrwt beam="1">  1       21 0.62265669E-02 0.29281498E+03</pdfrwt>
<pdfrwt beam="2">  1       21 0.81480034E-01 0.29281498E+03</pdfrwt>
<totfact> 0.23753095E+05</totfact>
</mgrwt>
</event>
<event>
 8    1  0.9529436E-006  0.3507571E+03  0.7546771E-02  0.1062305E+00
         21   -1    0    0  504  503  0.00000000000E+00  0.00000000000E+00  0.74069179481E+03  0.74069179481E+03  0.00000000000E+00 0. -1.
         21   -1    0    0  503  504 -0.00000000000E+00 -0.00000000000E+00 -0.41525547114E+02  0.41525547114E+02  0.00000000000E+00 0. -1.
         25    2    1    2    0    0 -0.61567335049E+02  0.62121954846E+02  0.54249582317E+03  0.56353849402E+03  0.12499696822E+03 0.  0.
         25    2    1    2    0    0  0.61567335049E+02 -0.62121954846E+02  0.15667042453E+03  0.21867884791E+03  0.12500057033E+03 0.  0.
          5    1    3    3  501    0 -0.66928493721E+02  0.87051253381E+02  0.29711125768E+03  0.31678783661E+03  0.47000000000E+01 0.  1.
         -5    1    3    3    0  501  0.53611586723E+01 -0.24929298536E+02  0.24538456549E+03  0.24675065740E+03  0.47000000000E+01 0.  1.
          5    1    4    4  502    0 -0.19646348601E+02  0.25793879519E+02  0.35094661114E+02  0.48010712062E+02  0.47000000000E+01 0.  1.
         -5    1    4    4    0  502  0.81213683650E+02 -0.87915834365E+02  0.12157576342E+03  0.17066813585E+03  0.47000000000E+01 0.  1.
<mgrwt>
<rscale>  0 0.35075708E+03</rscale>
<asrwt>0</asrwt>
<pdfrwt beam="1">  1       21 0.11395257E+00 0.35075708E+03</pdfrwt>
<pdfrwt beam="2">  1       21 0.63885463E-02 0.35075708E+03</pdfrwt>
<totfact> 0.10056578E+05</totfact>
</mgrwt>
</event>
<event>
 8    1  0.9529436E-006  0.3384425E+03  0.7546771E-02  0.1067461E+00
         21   -1    0    0  504  503  0.00000000000E+00  0.00000000000E+00  0.51712132571E+03  0.51712132571E+03  0.00000000000E+00 0.  1.
         21   -1    0    0  503  504 -0.00000000000E+00 -0.00000000000E+00 -0.55375455392E+02  0.55375455392E+02  0.00000000000E+00 0.  1.
         25    2    1    2    0    0 -0.34010981472E+02 -0.10882902249E+03  0.23526291198E+03  0.28979425519E+03  0.12502627560E+03 0.  0.
         25    2    1    2    0    0  0.34010981472E+02  0.10882902249E+03  0.22648295834E+03  0.28270252591E+03  0.12500273895E+03 0.  0.
          5    1    3    3  501    0 -0.59592562796E+02 -0.98281045177E+02  0.10242652049E+03  0.15402506121E+03  0.47000000000E+01 0.  1.
         -5    1    3    3    0  501  0.25581581324E+02 -0.10547977311E+02  0.13283639149E+03  0.13576919398E+03  0.47000000000E+01 0.  1.
          5    1    4    4  502    0  0.18209041463E+02  0.45732272229E+02  0.26017369591E+01  0.49516350324E+02  0.47000000000E+01 0. -1.
         -5    1    4    4    0  502  0.15801940009E+02  0.63096750259E+02  0.22388122138E+03  0.23318617559E+03  0.47000000000E+01 0. -1.
<mgrwt>
<rscale>  0 0.33844248E+03</rscale>
<asrwt>0</asrwt>
<pdfrwt beam="1">  1       21 0.79557124E-01 0.33844248E+03</pdfrwt>
<pdfrwt beam="2">  1       21 0.85193012E-02 0.33844248E+03</pdfrwt>
<totfact> 0.14343301E+05</totfact>
</mgrwt>
</event>
<event>
 8    1  0.9529436E-006  0.3438197E+03  0.7546771E-02  0.1065181E+00
         21   -1    0    0  504  503  0.00000000000E+00  0.00000000000E+00  0.29555447871E+02  0.29555447871E+02  0.00000000000E+00 0. -1.
         21   -1    0    0  503  504 -0.00000000000E+00 -0.00000000000E+00 -0.99991709721E+03  0.99991709721E+03  0.00000000000E+00 0. -1.
         25    2    1    2    0    0  0.86606166929E+02  0.52987476227E+02 -0.30503263009E+03  0.34493298666E+03  0.12500223630E+03 0.  0.
         25    2    1    2    0    0 -0.86606166929E+02 -0.52987476227E+02 -0.66532901925E+03  0.68453955842E+03  0.12499360943E+03 0.  0.
          5    1    3    3  501    0  0.54373289988E+02  0.36942547994E+01 -0.27158470091E+03  0.27703870118E+03  0.47000000000E+01 0. -1.
         -5    1    3    3    0  501  0.32232876941E+02  0.49293221428E+02 -0.33447929177E+02  0.67894285480E+02  0.47000000000E+01 0. -1.
          5    1    4    4  502    0 -0.84132560568E+02 -0.89335365735E+02 -0.54813424657E+03  0.56172265183E+03  0.47000000000E+01 0.  1.
         -5    1    4    4    0  502 -0.24736063605E+01  0.36347889508E+02 -0.11719477268E+03  0.12281690659E+03  0.47000000000E+01 0.  1.
<mgrwt>
<rscale>  0 0.34381971E+03</rscale>
<asrwt>0</asrwt>
<pdfrwt beam="1">  1       21 0.45469919E-02 0.34381971E+03</pdfrwt>
<pdfrwt beam="2">  1       21 0.15383340E+00 0.34381971E+03</pdfrwt>
<totfact> 0.83155760E+04</totfact>
</mgrwt>
</event>
<event>
 8    1  0.9529436E-006  0.4183081E+03  0.7546771E-02  0.1037618E+00
         21   -1    0    0  504  503  0.00000000000E+00  0.00000000000E+00  0.21900584283E+02  0.21900584283E+02  0.00000000000E+00 0.  1.
         21   -1    0    0  503  504 -0.00000000000E+00 -0.00000000000E+00 -0.19974540522E+04  0.19974540522E+04  0.00000000000E+00 0.  1.
         25    2    1    2    0    0 -0.11283442413E+03  0.27425649156E+02 -0.40353624622E+03  0.43810781401E+03  0.12495271579E+03 0.  0.
         25    2    1    2    0    0  0.11283442413E+03 -0.27425649156E+02 -0.15720172217E+04  0.15812468225E+04  0.12497837722E+03 0.  0.
          5    1    3    3  501    0 -0.54999329599E+02  0.30223147805E+01 -0.35322285494E+03  0.35752277675E+03  0.47000000000E+01 0. -1.
         -5    1    3    3    0  501 -0.57835094532E+02  0.24403334375E+02 -0.50313391281E+02  0.80585037261E+02  0.47000000000E+01 0. -1.
          5    1    4    4  502    0  0.12102932336E+03 -0.58818401982E+02 -0.11249903199E+04  0.11330194224E+04  0.47000000000E+01 0. -1.
         -5    1    4    4    0  502 -0.81948992288E+01  0.31392752827E+02 -0.44702690179E+03  0.44822740013E+03  0.47000000000E+01 0. -1.
<mgrwt>
<rscale>  0 0.41830807E+03</rscale>
<asrwt>0</asrwt>
<pdfrwt beam="1">  1       21 0.33693202E-02 0.41830807E+03</pdfrwt>
<pdfrwt beam="2">  1       21 0.30730067E+00 0.41830807E+03</pdfrwt>
<totfact> 0.13837235E+04</totfact>
</mgrwt>
</event>
<event>
 8    1  0.9529436E-006  0.3177641E+03  0.7546771E-02  0.1076683E+00
         21   -1    0    0  504  503  0.00000000000E+00  0.00000000000E+00  0.11975747528E+03  0.11975747528E+03  0.00000000000E+00 0. -1.
         21   -1    0    0  503  504 -0.00000000000E+00 -0.00000000000E+00 -0.21078856015E+03  0.21078856015E+03  0.00000000000E+00 0. -1.
         25    2    1    2    0    0  0.36007039311E+02  0.91447986203E+01  0.48899981458E+02  0.13927249496E+03  0.12500194176E+03 0.  0.
         25    2    1    2    0    0 -0.36007039311E+02 -0.91447986203E+01 -0.13993106633E+03  0.19127354048E+03  0.12499891896E+03 0.  0.
          5    1    3    3  501    0 -0.19910149951E+02  0.20693149695E+02 -0.29982293625E+02  0.41780957940E+02  0.47000000000E+01 0. -1.
         -5    1    3    3    0  501  0.55917189261E+02 -0.11548351075E+02  0.78882275082E+02  0.97491537015E+02  0.47000000000E+01 0. -1.
          5    1    4    4  502    0  0.28055551658E+02 -0.46289034120E+02 -0.43506013413E+02  0.69603533399E+02  0.47000000000E+01 0. -1.
         -5    1    4    4    0  502 -0.64062590969E+02  0.37144235500E+02 -0.96425052914E+02  0.12167000708E+03  0.47000000000E+01 0. -1.
<mgrwt>
<rscale>  0 0.31776410E+03</rscale>
<asrwt>0</asrwt>
<pdfrwt beam="1">  1       21 0.18424227E-01 0.31776410E+03</pdfrwt>
<pdfrwt beam="2">  1       21 0.32429009E-01 0.31776410E+03</pdfrwt>
<totfact> 0.23862344E+05</totfact>
</mgrwt>
</event>
<event>
 8    1  0.9529436E-006  0.2733222E+03  0.7546771E-02  0.1099393E+00
         21   -1    0    0  504  503  0.00000000000E+00  0.00000000000E+00  0.64727044122E+02  0.64727044122E+02  0.00000000000E+00 0. -1.
         21   -1    0    0  503  504 -0.00000000000E+00 -0.00000000000E+00 -0.28853875080E+03  0.28853875080E+03  0.00000000000E+00 0. -1.
         25    2    1    2    0    0  0.34074817409E+02 -0.43054613033E+02 -0.10395346552E+03  0.17159429157E+03  0.12499393993E+03 0.  0.
         25    2    1    2    0    0 -0.34074817409E+02  0.43054613033E+02 -0.11985824116E+03  0.18167150336E+03  0.12499497700E+03 0.  0.
          5    1    3    3  501    0  0.11404608791E+02  0.44106187767E+02 -0.27935040366E+02  0.53645851483E+02  0.47000000000E+01 0.  1.
         -5    1    3    3    0  501  0.22670208618E+02 -0.87160800800E+02 -0.76018425158E+02  0.11794844008E+03  0.47000000000E+01 0.  1.
          5    1    4    4  502    0  0.58887596204E+01 -0.13121440041E+02 -0.11097530915E+03  0.11200204873E+03  0.47000000000E+01 0. -1.
         -5    1    4    4    0  502 -0.39963577029E+02  0.56176053073E+02 -0.88829320125E+01  0.69669454634E+02  0.47000000000E+01 0. -1.
<mgrwt>
<rscale>  0 0.27332223E+03</rscale>
<asrwt>0</asrwt>
<pdfrwt beam="1">  1       21 0.99580069E-02 0.27332223E+03</pdfrwt>
<pdfrwt beam="2">  1       21 0.44390577E-01 0.27332223E+03</pdfrwt>
<totfact> 0.39143226E+05</totfact>
</mgrwt>
</event>
<event>
 8    1  0.9529436E-006  0.3154967E+03  0.7546771E-02  0.1077741E+00
         21   -1    0    0  504  503  0.00000000000E+00  0.00000000000E+00  0.33091343238E+03  0.33091343238E+03  0.00000000000E+00 0. -1.
         21   -1    0    0  503  504 -0.00000000000E+00 -0.00000000000E+00 -0.75199547015E+02  0.75199547015E+02  0.00000000000E+00 0. -1.
         25    2    1    2    0    0  0.18530190467E+02  0.46268159048E+02  0.23381164601E+03  0.26977129284E+03  0.12499821651E+03 0.  0.
         25    2    1    2    0    0 -0.18530190467E+02 -0.46268159048E+02  0.21902239355E+02  0.13634168655E+03  0.12500094761E+03 0.  0.
          5    1    3    3  501    0 -0.44091690053E+02  0.45221229339E+02  0.16432043149E+03  0.17610318260E+03  0.47000000000E+01 0.  1.
         -5    1    3    3    0  501  0.62621880520E+02  0.10469297091E+01  0.69491214519E+02  0.93668110246E+02  0.47000000000E+01 0.  1.
          5    1    4    4  502    0 -0.34149056513E+02  0.35268429921E+00 -0.42790761214E+02  0.54949264710E+02  0.47000000000E+01 0.  1.
         -5    1    4    4    0  502  0.15618866046E+02 -0.46620843347E+02  0.64693000569E+02  0.81392421844E+02  0.47000000000E+01 0.  1.
<mgrwt>
<rscale>  0 0.31549669E+03</rscale>
<asrwt>0</asrwt>
<pdfrwt beam="1">  1       21 0.50909758E-01 0.31549669E+03</pdfrwt>
<pdfrwt beam="2">  1       21 0.11569161E-01 0.31549669E+03</pdfrwt>
<totfact> 0.22274722E+05</totfact>
</mgrwt>
</event>
<event>
 8    1  0.9529436E-006  0.3248730E+03  0.7546771E-02  0.1073428E+00
         21   -1    0    0  504  503  0.00000000000E+00  0.00000000000E+00  0.26754015518E+02  0.26754015518E+02  0.00000000000E+00 0. -1.
         21   -1    0    0  503  504 -0.00000000000E+00 -0.00000000000E+00 -0.98623009615E+03  0.98623009615E+03  0.00000000000E+00 0. -1.
         25    2    1    2    0    0  0.10163260138E+03  0.93361808626E+01 -0.53750992220E+03  0.56121165619E+03  0.12500102655E+03 0.  0.
         25    2    1    2    0    0 -0.10163260138E+03 -0.93361808626E+01 -0.42196615842E+03  0.45177245548E+03  0.12500625079E+03 0.  0.
          5    1    3    3  501    0 -0.79889720432E+01 -0.36945434962E+02 -0.82367100478E+02  0.90748102349E+02  0.47000000000E+01 0. -1.
         -5    1    3    3    0  501  0.10962157342E+03  0.46281615824E+02 -0.45514282173E+03  0.47046355384E+03  0.47000000000E+01 0. -1.
          5    1    4    4  502    0 -0.31655397458E+02  0.54695560983E+02 -0.21324308506E+03  0.22245982088E+03  0.47000000000E+01 0. -1.
         -5    1    4    4    0  502 -0.69977203917E+02 -0.64031741846E+02 -0.20872307337E+03  0.22931263460E+03  0.47000000000E+01 0. -1.
<mgrwt>
<rscale>  0 0.32487299E+03</rscale>
<asrwt>0</asrwt>
<pdfrwt beam="1">  1       21 0.41160031E-02 0.32487299E+03</pdfrwt>
<pdfrwt beam="2">  1       21 0.15172768E+00 0.32487299E+03</pdfrwt>
<totfact> 0.10286008E+05</totfact>
</mgrwt>
</event>
<event>
 8    1  0.9529436E-006  0.2730345E+03  0.7546771E-02  0.1099555E+00
         21   -1    0    0  504  503  0.00000000000E+00  0.00000000000E+00  0.18995287074E+03  0.18995287074E+03  0.00000000000E+00 0. -1.
         21   -1    0    0  503  504 -0.00000000000E+00 -0.00000000000E+00 -0.98113582823E+02  0.98113582823E+02  0.00000000000E+00 0. -1.
         25    2    1    2    0    0 -0.23519690059E+02  0.49450180407E+02  0.42101748557E+02  0.14281365543E+03  0.12499874712E+03 0.  0.
         25    2    1    2    0    0  0.23519690059E+02 -0.49450180407E+02  0.49737539362E+02  0.14525279814E+03  0.12500422546E+03 0.  0.
          5    1    3    3  501    0 -0.72352298681E+02  0.14538077362E+02  0.10128250171E+02  0.74638343157E+02  0.47000000000E+01 0. -1.
         -5    1    3    3    0  501  0.48832608622E+02  0.34912103046E+02  0.31973498386E+02  0.68175312269E+02  0.47000000000E+01 0. -1.
          5    1    4    4  502    0 -0.76472081542E+01 -0.77324068736E+02  0.64052267068E+02  0.10080810640E+03  0.47000000000E+01 0.  1.
         -5    1    4    4    0  502  0.31166898213E+02  0.27873888329E+02 -0.14314727706E+02  0.44444691743E+02  0.47000000000E+01 0.  1.
<mgrwt>
<rscale>  0 0.27303448E+03</rscale>
<asrwt>0</asrwt>
<pdfrwt beam="1">  1       21 0.29223519E-01 0.27303448E+03</pdfrwt>
<pdfrwt beam="2">  1       21 0.15094397E-01 0.27303448E+03</pdfrwt>
<totfact> 0.42781399E+05</totfact>
</mgrwt>
</event>
<event>
 8    1  0.9529436E-006  0.2835064E+03  0.7546771E-02  0.1093789E+00
         21   -1    0    0  504  503  0.00000000000E+00  0.00000000000E+00  0.69283788780E+03  0.69283788780E+03  0.00000000000E+00 0.  1.
         21   -1    0    0  503  504 -0.00000000000E+00 -0.00000000000E+00 -0.29002413682E+02  0.29002413682E+02  0.00000000000E+00 0.  1.
         25    2    1    2    0    0  0.17255954553E+02 -0.46454430324E+02  0.44616497845E+03  0.46598785774E+03  0.12500285401E+03 0.  0.
         25    2    1    2    0    0 -0.17255954553E+02  0.46454430324E+02  0.21767049567E+03  0.25585244374E+03  0.12499698483E+03 0.  0.
          5    1    3    3  501    0  0.16634323478E+02 -0.86126915009E+02  0.36630203834E+03  0.37668796039E+03  0.47000000000E+01 0. -1.
         -5    1    3    3    0  501  0.62163107428E+00  0.39672484685E+02  0.79862940104E+02  0.89299897359E+02  0.47000000000E+01 0. -1.
          5    1    4    4  502    0  0.38221615329E+02  0.59640288768E+02  0.81112552512E+02  0.10779235640E+03  0.47000000000E+01 0. -1.
         -5    1    4    4    0  502 -0.55477569882E+02 -0.13185858444E+02  0.13655794316E+03  0.14806008734E+03  0.47000000000E+01 0. -1.
<mgrwt>
<rscale>  0 0.28350641E+03</rscale>
<asrwt>0</asrwt>
<pdfrwt beam="1">  1       21 0.10659043E+00 0.28350641E+03</pdfrwt>
<pdfrwt beam="2">  1       21 0.44619103E-02 0.28350641E+03</pdfrwt>
<totfact> 0.22353696E+05</totfact>
</mgrwt>
</event>
<event>
 8    1  0.9529436E-006  0.4048681E+03  0.7546771E-02  0.1042107E+00
         21   -1    0    0  504  503  0.00000000000E+00  0.00000000000E+00  0.51334328279E+03  0.51334328279E+03  0.00000000000E+00 0. -1.
         21   -1    0    0  503  504 -0.00000000000E+00 -0.00000000000E+00 -0.79828752615E+02  0.79828752615E+02  0.00000000000E+00 0. -1.
         25    2    1    2    0    0  0.14418073865E+03 -0.97867198185E+01  0.11885892382E+03  0.22504595490E+03  0.12503748543E+03 0.  0.
         25    2    1    2    0    0 -0.14418073865E+03  0.97867198185E+01  0.31465560635E+03  0.36812608051E+03  0.12499918103E+03 0.  0.
          5    1    3    3  501    0  0.16259718892E+03 -0.12137465092E+02  0.12436428954E+03  0.20511882024E+03  0.47000000000E+01 0.  1.
         -5    1    3    3    0  501 -0.18416450274E+02  0.23507452738E+01 -0.55053657206E+01  0.19927134660E+02  0.47000000000E+01 0.  1.
          5    1    4    4  502    0 -0.78243017892E+02  0.10804515985E+02  0.46148750831E+02  0.91599697695E+02  0.47000000000E+01 0.  1.
         -5    1    4    4    0  502 -0.65937720754E+02 -0.10177961668E+01  0.26850685552E+03  0.27652638281E+03  0.47000000000E+01 0.  1.
<mgrwt>
<rscale>  0 0.40486815E+03</rscale>
<asrwt>0</asrwt>
<pdfrwt beam="1">  1       21 0.78975888E-01 0.40486815E+03</pdfrwt>
<pdfrwt beam="2">  1       21 0.12281347E-01 0.40486815E+03</pdfrwt>
<totfact> 0.74510766E+04</totfact>
</mgrwt>
</event>
<event>
 8    1  0.9529436E-006  0.3142476E+03  0.7546771E-02  0.1078328E+00
         21   -1    0    0  504  503  0.00000000000E+00  0.00000000000E+00  0.44331424307E+02  0.44331424307E+02  0.00000000000E+00 0. -1.
         21   -1    0    0  503  504 -0.00000000000E+00 -0.00000000000E+00 -0.55689368323E+03  0.55689368323E+03  0.00000000000E+00 0. -1.
         25    2    1    2    0    0 -0.37591055113E+02 -0.22679234841E+02 -0.41787627835E+03  0.43837448996E+03  0.12499669725E+03 0.  0.
         25    2    1    2    0    0  0.37591055113E+02  0.22679234841E+02 -0.94685980571E+02  0.16285061757E+03  0.12500981405E+03 0.  0.
          5    1    3    3  501    0 -0.79601215267E+02 -0.26378279981E+02 -0.33369998348E+03  0.34410744848E+03  0.47000000000E+01 0. -1.
         -5    1    3    3    0  501  0.42010160155E+02  0.36990451397E+01 -0.84176294877E+02  0.94267041485E+02  0.47000000000E+01 0. -1.
          5    1    4    4  502    0  0.17116457449E+02  0.78844944693E+01  0.29893556994E+02  0.35649026892E+02  0.47000000000E+01 0. -1.
         -5    1    4    4    0  502  0.20474597664E+02  0.14794740372E+02 -0.12457953756E+03  0.12720159068E+03  0.47000000000E+01 0. -1.
<mgrwt>
<rscale>  0 0.31424761E+03</rscale>
<asrwt>0</asrwt>
<pdfrwt beam="1">  1       21 0.68202196E-02 0.31424761E+03</pdfrwt>
<pdfrwt beam="2">  1       21 0.85675946E-01 0.31424761E+03</pdfrwt>
<totfact> 0.17968293E+05</totfact>
</mgrwt>
</event>
<event>
 8    1  0.9529436E-006  0.3362978E+03  0.7546771E-02  0.1068384E+00
         21   -1    0    0  504  503  0.00000000000E+00  0.00000000000E+00  0.15288960964E+03  0.15288960964E+03  0.00000000000E+00 0.  1.
         21   -1    0    0  503  504 -0.00000000000E+00 -0.00000000000E+00 -0.18493112320E+03  0.18493112320E+03  0.00000000000E+00 0.  1.
         25    2    1    2    0    0 -0.86743139489E+02  0.60699242125E+02 -0.54148888100E+02  0.17252808310E+03  0.12500026853E+03 0.  0.
         25    2    1    2    0    0  0.86743139489E+02 -0.60699242125E+02  0.22107374541E+02  0.16529264973E+03  0.12499661517E+03 0.  0.
          5    1    3    3  501    0 -0.38627283019E+02  0.95663148052E+02 -0.25672032551E+02  0.10641733009E+03  0.47000000000E+01 0. -1.
         -5    1    3    3    0  501 -0.48115856470E+02 -0.34963905927E+02 -0.28476855549E+02  0.66110753009E+02  0.47000000000E+01 0. -1.
          5    1    4    4  502    0  0.44035124397E+01  0.34238485078E+02  0.18583105050E+02  0.39485270362E+02  0.47000000000E+01 0.  1.
         -5    1    4    4    0  502  0.82339627049E+02 -0.94937727202E+02  0.35242694906E+01  0.12580737937E+03  0.47000000000E+01 0.  1.
<mgrwt>
<rscale>  0 0.33629777E+03</rscale>
<asrwt>0</asrwt>
<pdfrwt beam="1">  1       21 0.23521479E-01 0.33629777E+03</pdfrwt>
<pdfrwt beam="2">  1       21 0.28450942E-01 0.33629777E+03</pdfrwt>
<totfact> 0.19368430E+05</totfact>
</mgrwt>
</event>
<event>
 8    1  0.9529436E-006  0.2873397E+03  0.7546771E-02  0.1091746E+00
         21   -1    0    0  504  503  0.00000000000E+00  0.00000000000E+00  0.13193821105E+02  0.13193821105E+02  0.00000000000E+00 0.  1.
         21   -1    0    0  503  504 -0.00000000000E+00 -0.00000000000E+00 -0.15644468290E+04  0.15644468290E+04  0.00000000000E+00 0.  1.
         25    2    1    2    0    0  0.42594651760E+02 -0.36895280741E+02 -0.10111911882E+04  0.10204445193E+04  0.12499532744E+03 0.  0.
         25    2    1    2    0    0 -0.42594651760E+02  0.36895280741E+02 -0.54006181973E+03  0.55719613079E+03  0.12500077174E+03 0.  0.
          5    1    3    3  501    0 -0.43298631389E+02 -0.19576660963E+02 -0.28521102698E+03  0.28918063048E+03  0.47000000000E+01 0.  1.
         -5    1    3    3    0  501  0.85893283149E+02 -0.17318619778E+02 -0.72598016118E+03  0.73126388883E+03  0.47000000000E+01 0.  1.
          5    1    4    4  502    0  0.19991482502E+02  0.30426975902E+02 -0.41967364230E+03  0.42127605709E+03  0.47000000000E+01 0.  1.
         -5    1    4    4    0  502 -0.62586134262E+02  0.64683048393E+01 -0.12038817743E+03  0.13592007370E+03  0.47000000000E+01 0.  1.
<mgrwt>
<rscale>  0 0.28733974E+03</rscale>
<asrwt>0</asrwt>
<pdfrwt beam="1">  1       21 0.20298195E-02 0.28733974E+03</pdfrwt>
<pdfrwt beam="2">  1       21 0.24068402E+00 0.28733974E+03</pdfrwt>
<totfact> 0.85854477E+04</totfact>
</mgrwt>
</event>
<event>
 8    1  0.9529436E-006  0.2721092E+03  0.7546771E-02  0.1100078E+00
         21   -1    0    0  504  503  0.00000000000E+00  0.00000000000E+00  0.41312621227E+02  0.41312621227E+02  0.00000000000E+00 0. -1.
         21   -1    0    0  503  504 -0.00000000000E+00 -0.00000000000E+00 -0.44806776744E+03  0.44806776744E+03  0.00000000000E+00 0. -1.
         25    2    1    2    0    0 -0.10613593976E+02  0.28494075435E+01 -0.29793649044E+03  0.32328435129E+03  0.12500340777E+03 0.  0.
         25    2    1    2    0    0  0.10613593976E+02 -0.28494075435E+01 -0.10881865578E+03  0.16609603738E+03  0.12500250512E+03 0.  0.
          5    1    3    3  501    0  0.18075534006E+02 -0.56343226142E+02 -0.14982853420E+03  0.16115819471E+03  0.47000000000E+01 0.  1.
         -5    1    3    3    0  501 -0.28689127982E+02  0.59192633685E+02 -0.14810795623E+03  0.16212615658E+03  0.47000000000E+01 0.  1.
          5    1    4    4  502    0 -0.32334403521E+02  0.21786507420E+02  0.71458006171E+01  0.39916387901E+02  0.47000000000E+01 0.  1.
         -5    1    4    4    0  502  0.42947997497E+02 -0.24635914963E+02 -0.11596445639E+03  0.12617964948E+03  0.47000000000E+01 0.  1.
<mgrwt>
<rscale>  0 0.27210920E+03</rscale>
<asrwt>0</asrwt>
<pdfrwt beam="1">  1       21 0.63557878E-02 0.27210920E+03</pdfrwt>
<pdfrwt beam="2">  1       21 0.68933504E-01 0.27210920E+03</pdfrwt>
<totfact> 0.33578379E+05</totfact>
</mgrwt>
</event>
<event>
 8    1  0.9529436E-006  0.2880802E+03  0.7546771E-02  0.1091356E+00
         21   -1    0    0  504  503  0.00000000000E+00  0.00000000000E+00  0.26968305585E+03  0.26968305585E+03  0.00000000000E+00 0.  1.
         21   -1    0    0  503  504 -0.00000000000E+00 -0.00000000000E+00 -0.76933096402E+02  0.76933096402E+02  0.00000000000E+00 0.  1.
         25    2    1    2    0    0  0.43917272555E+02 -0.45677858472E+02  0.13641270703E+03  0.19557417943E+03  0.12500255772E+03 0.  0.
         25    2    1    2    0    0 -0.43917272555E+02  0.45677858472E+02  0.56337252420E+02  0.15104197283E+03  0.12499839184E+03 0.  0.
          5    1    3    3  501    0  0.42803940949E+02 -0.78818996835E+02  0.13488076318E+03  0.16204790002E+03  0.47000000000E+01 0. -1.
         -5    1    3    3    0  501  0.11133316058E+01  0.33141138364E+02  0.15319438481E+01  0.33526279413E+02  0.47000000000E+01 0. -1.
          5    1    4    4  502    0 -0.20967166863E+02  0.31328942080E+02  0.95743550604E+02  0.10300505900E+03  0.47000000000E+01 0.  1.
         -5    1    4    4    0  502 -0.22950105691E+02  0.14348916392E+02 -0.39406298184E+02  0.48036913821E+02  0.47000000000E+01 0.  1.
<mgrwt>
<rscale>  0 0.28808021E+03</rscale>
<asrwt>0</asrwt>
<pdfrwt beam="1">  1       21 0.41489700E-01 0.28808021E+03</pdfrwt>
<pdfrwt beam="2">  1       21 0.11835861E-01 0.28808021E+03</pdfrwt>
<totfact> 0.32917448E+05</totfact>
</mgrwt>
</event>
<event>
 8    1  0.9529436E-006  0.3107466E+03  0.7546771E-02  0.1079989E+00
         21   -1    0    0  504  503  0.00000000000E+00  0.00000000000E+00  0.76249834301E+02  0.76249834301E+02  0.00000000000E+00 0. -1.
         21   -1    0    0  503  504 -0.00000000000E+00 -0.00000000000E+00 -0.31660208141E+03  0.31660208141E+03  0.00000000000E+00 0. -1.
         25    2    1    2    0    0  0.18298203431E+02 -0.87309256559E+02 -0.90358141167E+02  0.17818724184E+03  0.12501347508E+03 0.  0.
         25    2    1    2    0    0 -0.18298203431E+02  0.87309256559E+02 -0.14999410594E+03  0.21466467387E+03  0.12499983944E+03 0.  0.
          5    1    3    3  501    0 -0.77601992395E+01  0.30963530566E+02 -0.21805845680E+02  0.38942853300E+02  0.47000000000E+01 0.  1.
         -5    1    3    3    0  501  0.26058402670E+02 -0.11827278713E+03 -0.68552295487E+02  0.13924438854E+03  0.47000000000E+01 0.  1.
          5    1    4    4  502    0 -0.18430195448E+02  0.11735054208E+03 -0.13756377168E+03  0.18181502444E+03  0.47000000000E+01 0. -1.
         -5    1    4    4    0  502  0.13199201708E+00 -0.30041285526E+02 -0.12430334261E+02  0.32849649432E+02  0.47000000000E+01 0. -1.
<mgrwt>
<rscale>  0 0.31074656E+03</rscale>
<asrwt>0</asrwt>
<pdfrwt beam="1">  1       21 0.11730744E-01 0.31074656E+03</pdfrwt>
<pdfrwt beam="2">  1       21 0.48708012E-01 0.31074656E+03</pdfrwt>
<totfact> 0.23870156E+05</totfact>
</mgrwt>
</event>
<event>
 8    1  0.9529436E-006  0.2731419E+03  0.7546771E-02  0.1099495E+00
         21   -1    0    0  504  503  0.00000000000E+00  0.00000000000E+00  0.28524710109E+02  0.28524710109E+02  0.00000000000E+00 0. -1.
         21   -1    0    0  503  504 -0.00000000000E+00 -0.00000000000E+00 -0.65387598367E+03  0.65387598367E+03  0.00000000000E+00 0. -1.
         25    2    1    2    0    0 -0.37509747315E+02  0.20637226538E+02 -0.39905579588E+03  0.42035775278E+03  0.12498894282E+03 0.  0.
         25    2    1    2    0    0  0.37509747315E+02 -0.20637226538E+02 -0.22629547767E+03  0.26204294100E+03  0.12499593373E+03 0.  0.
          5    1    3    3  501    0  0.24216313461E+02 -0.36457981396E+02 -0.18879927973E+03  0.19386302451E+03  0.47000000000E+01 0.  1.
         -5    1    3    3    0  501 -0.61726060776E+02  0.57095207934E+02 -0.21025651616E+03  0.22649472827E+03  0.47000000000E+01 0.  1.
          5    1    4    4  502    0 -0.24552703013E+02  0.32910536371E+02 -0.12497891072E+03  0.13163493744E+03  0.47000000000E+01 0.  1.
         -5    1    4    4    0  502  0.62062450328E+02 -0.53547762910E+02 -0.10131656695E+03  0.13040800356E+03  0.47000000000E+01 0.  1.
<mgrwt>
<rscale>  0 0.27314189E+03</rscale>
<asrwt>0</asrwt>
<pdfrwt beam="1">  1       21 0.43884174E-02 0.27314189E+03</pdfrwt>
<pdfrwt beam="2">  1       21 0.10059629E+00 0.27314189E+03</pdfrwt>
<totfact> 0.26522197E+05</totfact>
</mgrwt>
</event>
<event>
 8    1  0.9529436E-006  0.2574986E+03  0.7546771E-02  0.1108655E+00
         21   -1    0    0  504  503  0.00000000000E+00  0.00000000000E+00  0.23522329665E+02  0.23522329665E+02  0.00000000000E+00 0.  1.
         21   -1    0    0  503  504 -0.00000000000E+00 -0.00000000000E+00 -0.70470836942E+03  0.70470836942E+03  0.00000000000E+00 0.  1.
         25    2    1    2    0    0 -0.89126152490E+01  0.23923574005E+02 -0.29153769106E+03  0.31823077221E+03  0.12499930788E+03 0.  0.
         25    2    1    2    0    0  0.89126152490E+01 -0.23923574005E+02 -0.38964834870E+03  0.40999992688E+03  0.12498932870E+03 0.  0.
          5    1    3    3  501    0  0.47187393097E+02  0.44687127712E+02 -0.18234990633E+03  0.19364185444E+03  0.47000000000E+01 0.  1.
         -5    1    3    3    0  501 -0.56100008346E+02 -0.20763553706E+02 -0.10918778473E+03  0.12458891777E+03  0.47000000000E+01 0.  1.
          5    1    4    4  502    0  0.11134446996E+02 -0.57228674954E+02 -0.36115950238E+03  0.36586523927E+03  0.47000000000E+01 0.  1.
         -5    1    4    4    0  502 -0.22218317471E+01  0.33305100949E+02 -0.28488846323E+02  0.44134687609E+02  0.47000000000E+01 0.  1.
<mgrwt>
<rscale>  0 0.25749860E+03</rscale>
<asrwt>0</asrwt>
<pdfrwt beam="1">  1       21 0.36188204E-02 0.25749860E+03</pdfrwt>
<pdfrwt beam="2">  1       21 0.10841666E+00 0.25749860E+03</pdfrwt>
<totfact> 0.30756393E+05</totfact>
</mgrwt>
</event>
<event>
 8    1  0.9529436E-006  0.2989947E+03  0.7546771E-02  0.1085744E+00
         21   -1    0    0  504  503  0.00000000000E+00  0.00000000000E+00  0.35662538521E+03  0.35662538521E+03  0.00000000000E+00 0. -1.
         21   -1    0    0  503  504 -0.00000000000E+00 -0.00000000000E+00 -0.62669302536E+02  0.62669302536E+02  0.00000000000E+00 0. -1.
         25    2    1    2    0    0  0.43115929710E+02  0.52496914190E+02  0.82582236308E+02  0.16450519459E+03  0.12500889528E+03 0.  0.
         25    2    1    2    0    0 -0.43115929710E+02 -0.52496914190E+02  0.21137384636E+03  0.25478949315E+03  0.12499549391E+03 0.  0.
          5    1    3    3  501    0 -0.14322942157E+02 -0.13040198727E+02  0.74201085400E+02  0.76831533431E+02  0.47000000000E+01 0. -1.
         -5    1    3    3    0  501  0.57438871867E+02  0.65537112918E+02  0.83811509082E+01  0.87673661162E+02  0.47000000000E+01 0. -1.
          5    1    4    4  502    0  0.17069872866E+02 -0.26490438650E+02  0.17845066840E+03  0.18127287429E+03  0.47000000000E+01 0. -1.
         -5    1    4    4    0  502 -0.60185802576E+02 -0.26006475540E+02  0.32923177961E+02  0.73516618861E+02  0.47000000000E+01 0. -1.
<mgrwt>
<rscale>  0 0.29899474E+03</rscale>
<asrwt>0</asrwt>
<pdfrwt beam="1">  1       21 0.54865443E-01 0.29899474E+03</pdfrwt>
<pdfrwt beam="2">  1       21 0.96414314E-02 0.29899474E+03</pdfrwt>
<totfact> 0.26425605E+05</totfact>
</mgrwt>
</event>
<event>
 8    1  0.9529436E-006  0.3494157E+03  0.7546771E-02  0.1062855E+00
         21   -1    0    0  504  503  0.00000000000E+00  0.00000000000E+00  0.90212269266E+03  0.90212269266E+03  0.00000000000E+00 0. -1.
         21   -1    0    0  503  504 -0.00000000000E+00 -0.00000000000E+00 -0.33834466677E+02  0.33834466677E+02  0.00000000000E+00 0. -1.
         25    2    1    2    0    0 -0.19588125399E+02 -0.81883350039E+02  0.67087130420E+03  0.68759128795E+03  0.12499957917E+03 0.  0.
         25    2    1    2    0    0  0.19588125399E+02  0.81883350039E+02  0.19741692179E+03  0.24836587139E+03  0.12499434945E+03 0.  0.
          5    1    3    3  501    0 -0.48730262661E+02 -0.37405686761E+02  0.57130508495E+03  0.57461762415E+03  0.47000000000E+01 0.  1.
         -5    1    3    3    0  501  0.29142137262E+02 -0.44477663278E+02  0.99566219250E+02  0.11297366379E+03  0.47000000000E+01 0.  1.
          5    1    4    4  502    0  0.46090842856E+02  0.10504642458E+03  0.14296705209E+03  0.18335971503E+03  0.47000000000E+01 0.  1.
         -5    1    4    4    0  502 -0.26502717457E+02 -0.23163074544E+02  0.54449869693E+02  0.65006156359E+02  0.47000000000E+01 0.  1.
<mgrwt>
<rscale>  0 0.34941574E+03</rscale>
<asrwt>0</asrwt>
<pdfrwt beam="1">  1       21 0.13878809E+00 0.34941574E+03</pdfrwt>
<pdfrwt beam="2">  1       21 0.52053033E-02 0.34941574E+03</pdfrwt>
<totfact> 0.86678766E+04</totfact>
</mgrwt>
</event>
<event>
 8    1  0.9529436E-006  0.2593489E+03  0.7546771E-02  0.1107535E+00
         21   -1    0    0  504  503  0.00000000000E+00  0.00000000000E+00  0.47225251634E+03  0.47225251634E+03  0.00000000000E+00 0.  1.
         21   -1    0    0  503  504 -0.00000000000E+00 -0.00000000000E+00 -0.35606933701E+02  0.35606933701E+02  0.00000000000E+00 0.  1.
         25    2    1    2    0    0  0.10971785786E+02  0.29973480235E+02  0.19288083023E+03  0.23205910614E+03  0.12501849651E+03 0.  0.
         25    2    1    2    0    0 -0.10971785786E+02 -0.29973480235E+02  0.24376475241E+03  0.27580034391E+03  0.12500314228E+03 0.  0.
          5    1    3    3  501    0  0.56360597247E+02  0.32557197185E+02  0.16753767895E+03  0.17979836451E+03  0.47000000000E+01 0. -1.
         -5    1    3    3    0  501 -0.45388811460E+02 -0.25837169505E+01  0.25343151279E+02  0.52260741631E+02  0.47000000000E+01 0. -1.
          5    1    4    4  502    0  0.44605572786E+02  0.70695791915E+01  0.17096385963E+03  0.17689083462E+03  0.47000000000E+01 0. -1.
         -5    1    4    4    0  502 -0.55577358573E+02 -0.37043059426E+02  0.72800892783E+02  0.98909509288E+02  0.47000000000E+01 0. -1.
<mgrwt>
<rscale>  0 0.25934891E+03</rscale>
<asrwt>0</asrwt>
<pdfrwt beam="1">  1       21 0.72654229E-01 0.25934891E+03</pdfrwt>
<pdfrwt beam="2">  1       21 0.54779901E-02 0.25934891E+03</pdfrwt>
<totfact> 0.38685645E+05</totfact>
</mgrwt>
</event>
<event>
 8    1  0.9529436E-006  0.2772642E+03  0.7546771E-02  0.1097193E+00
         21   -1    0    0  504  503  0.00000000000E+00  0.00000000000E+00  0.21133782706E+02  0.21133782706E+02  0.00000000000E+00 0.  1.
         21   -1    0    0  503  504 -0.00000000000E+00 -0.00000000000E+00 -0.90939071986E+03  0.90939071986E+03  0.00000000000E+00 0.  1.
         25    2    1    2    0    0 -0.28640493287E+02 -0.52325742309E+02 -0.42453246440E+03  0.44655896157E+03  0.12501532573E+03 0.  0.
         25    2    1    2    0    0  0.28640493287E+02  0.52325742309E+02 -0.46372447275E+03  0.48396554099E+03  0.12499598824E+03 0.  0.
          5    1    3    3  501    0  0.47702484694E+01 -0.75605449920E+02 -0.14148371420E+03  0.16055737514E+03  0.47000000000E+01 0. -1.
         -5    1    3    3    0  501 -0.33410741757E+02  0.23279707611E+02 -0.28304875021E+03  0.28600158644E+03  0.47000000000E+01 0. -1.
          5    1    4    4  502    0  0.62926801552E+02  0.24015867463E+01 -0.34360685970E+03  0.34936129437E+03  0.47000000000E+01 0. -1.
         -5    1    4    4    0  502 -0.34286308265E+02  0.49924155562E+02 -0.12011761305E+03  0.13460424662E+03  0.47000000000E+01 0. -1.
<mgrwt>
<rscale>  0 0.27726425E+03</rscale>
<asrwt>0</asrwt>
<pdfrwt beam="1">  1       21 0.32513516E-02 0.27726425E+03</pdfrwt>
<pdfrwt beam="2">  1       21 0.13990624E+00 0.27726425E+03</pdfrwt>
<totfact> 0.19261807E+05</totfact>
</mgrwt>
</event>
<event>
 8    1  0.9529436E-006  0.3421141E+03  0.7546771E-02  0.1065899E+00
         21   -1    0    0  504  503  0.00000000000E+00  0.00000000000E+00  0.25057923525E+02  0.25057923525E+02  0.00000000000E+00 0.  1.
         21   -1    0    0  503  504 -0.00000000000E+00 -0.00000000000E+00 -0.11677152187E+04  0.11677152187E+04  0.00000000000E+00 0.  1.
         25    2    1    2    0    0  0.50595179120E+02 -0.30348549862E+02 -0.92266731233E+03  0.93296319013E+03  0.12499775305E+03 0.  0.
         25    2    1    2    0    0 -0.50595179120E+02  0.30348549862E+02 -0.21998998285E+03  0.25980995210E+03  0.12499884810E+03 0.  0.
          5    1    3    3  501    0  0.53509101520E+02  0.26660425299E+02 -0.71596733428E+03  0.71847429737E+03  0.47000000000E+01 0.  1.
         -5    1    3    3    0  501 -0.29139223997E+01 -0.57008975161E+02 -0.20669997805E+03  0.21448889276E+03  0.47000000000E+01 0.  1.
          5    1    4    4  502    0 -0.49265522297E+02 -0.27036579388E+02 -0.35730374835E+02  0.66759403817E+02  0.47000000000E+01 0.  1.
         -5    1    4    4    0  502 -0.13296568225E+01  0.57385129250E+02 -0.18425960802E+03  0.19305054828E+03  0.47000000000E+01 0.  1.
<mgrwt>
<rscale>  0 0.34211413E+03</rscale>
<asrwt>0</asrwt>
<pdfrwt beam="1">  1       21 0.38550655E-02 0.34211413E+03</pdfrwt>
<pdfrwt beam="2">  1       21 0.17964848E+00 0.34211413E+03</pdfrwt>
<totfact> 0.71366112E+04</totfact>
</mgrwt>
</event>
<event>
 8    1  0.9529436E-006  0.3830943E+03  0.7546771E-02  0.1049796E+00
         21   -1    0    0  504  503  0.00000000000E+00  0.00000000000E+00  0.18536745275E+03  0.18536745275E+03  0.00000000000E+00 0.  1.
         21   -1    0    0  503  504 -0.00000000000E+00 -0.00000000000E+00 -0.19793288564E+03  0.19793288564E+03  0.00000000000E+00 0.  1.
         25    2    1    2    0    0 -0.57517667749E+02 -0.23105396288E+02  0.12502590562E+03  0.18734791976E+03  0.12500249806E+03 0.  0.
         25    2    1    2    0    0  0.57517667749E+02  0.23105396288E+02 -0.13759133851E+03  0.19595241863E+03  0.12499532989E+03 0.  0.
          5    1    3    3  501    0 -0.60509517548E+02  0.35955701222E+02  0.33052753459E+02  0.77902430485E+02  0.47000000000E+01 0. -1.
         -5    1    3    3    0  501  0.29918497987E+01 -0.59061097510E+02  0.91973152157E+02  0.10944548927E+03  0.47000000000E+01 0. -1.
          5    1    4    4  502    0  0.71318621761E+02 -0.33268478706E+02 -0.96877274061E+02  0.12490169620E+03  0.47000000000E+01 0. -1.
         -5    1    4    4    0  502 -0.13800954012E+02  0.56373874995E+02 -0.40714064453E+02  0.71050722430E+02  0.47000000000E+01 0. -1.
<mgrwt>
<rscale>  0 0.38309432E+03</rscale>
<asrwt>0</asrwt>
<pdfrwt beam="1">  1       21 0.28518070E-01 0.38309432E+03</pdfrwt>
<pdfrwt beam="2">  1       21 0.30451213E-01 0.38309432E+03</pdfrwt>
<totfact> 0.11535802E+05</totfact>
</mgrwt>
</event>
<event>
 8    1  0.9529436E-006  0.3732345E+03  0.7546771E-02  0.1053463E+00
         21   -1    0    0  504  503  0.00000000000E+00  0.00000000000E+00  0.11112176686E+03  0.11112176686E+03  0.00000000000E+00 0. -1.
         21   -1    0    0  503  504 -0.00000000000E+00 -0.00000000000E+00 -0.31340394303E+03  0.31340394303E+03  0.00000000000E+00 0. -1.
         25    2    1    2    0    0  0.11887676291E+03 -0.25088972196E+02 -0.25353760171E+02  0.17615009289E+03  0.12499960314E+03 0.  0.
         25    2    1    2    0    0 -0.11887676291E+03  0.25088972196E+02 -0.17692841600E+03  0.24837561700E+03  0.12500256576E+03 0.  0.
          5    1    3    3  501    0  0.10823338666E+03 -0.23826374793E+02  0.33713421535E+02  0.11593466659E+03  0.47000000000E+01 0. -1.
         -5    1    3    3    0  501  0.10643376241E+02 -0.12625974031E+01 -0.59067181706E+02  0.60215426302E+02  0.47000000000E+01 0. -1.
          5    1    4    4  502    0  0.11215024563E+01  0.21959045307E+02  0.11233944941E+02  0.25134616716E+02  0.47000000000E+01 0. -1.
         -5    1    4    4    0  502 -0.11999826536E+03  0.31299268899E+01 -0.18816236094E+03  0.22324100029E+03  0.47000000000E+01 0. -1.
<mgrwt>
<rscale>  0 0.37323451E+03</rscale>
<asrwt>0</asrwt>
<pdfrwt beam="1">  1       21 0.17095657E-01 0.37323451E+03</pdfrwt>
<pdfrwt beam="2">  1       21 0.48215990E-01 0.37323451E+03</pdfrwt>
<totfact> 0.12053872E+05</totfact>
</mgrwt>
</event>
<event>
 8    1  0.9529436E-006  0.5757031E+03  0.7546771E-02  0.9957137E-01
         21   -1    0    0  504  503  0.00000000000E+00  0.00000000000E+00  0.35140636560E+03  0.35140636560E+03  0.00000000000E+00 0.  1.
         21   -1    0    0  503  504 -0.00000000000E+00 -0.00000000000E+00 -0.23579111981E+03  0.23579111981E+03  0.00000000000E+00 0.  1.
         25    2    1    2    0    0 -0.77935379549E+02  0.62025730919E+02 -0.18636610504E+03  0.24552302998E+03  0.12501247323E+03 0.  0.
         25    2    1    2    0    0  0.77935379549E+02 -0.62025730919E+02  0.30198135083E+03  0.34167445542E+03  0.12501032981E+03 0.  0.
          5    1    3    3  501    0  0.21440666847E+02  0.31507437224E+02 -0.83109243617E+01  0.39288449435E+02  0.47000000000E+01 0.  1.
         -5    1    3    3    0  501 -0.99376046396E+02  0.30518293696E+02 -0.17805518068E+03  0.20623458055E+03  0.47000000000E+01 0.  1.
          5    1    4    4  502    0  0.96190020884E+01  0.65097537396E+01 -0.93391278576E+01  0.15627264766E+02  0.47000000000E+01 0. -1.
         -5    1    4    4    0  502  0.68316377461E+02 -0.68535484659E+02  0.31132047869E+03  0.32604719066E+03  0.47000000000E+01 0. -1.
<mgrwt>
<rscale>  0 0.57570305E+03</rscale>
<asrwt>0</asrwt>
<pdfrwt beam="1">  1       21 0.54062518E-01 0.57570305E+03</pdfrwt>
<pdfrwt beam="2">  1       21 0.36275557E-01 0.57570305E+03</pdfrwt>
<totfact> 0.20875665E+04</totfact>
</mgrwt>
</event>
<event>
 8    1  0.9529436E-006  0.3554188E+03  0.7546771E-02  0.1060413E+00
         21   -1    0    0  504  503  0.00000000000E+00  0.00000000000E+00  0.35255347040E+03  0.35255347040E+03  0.00000000000E+00 0.  1.
         21   -1    0    0  503  504 -0.00000000000E+00 -0.00000000000E+00 -0.89576879436E+02  0.89576879436E+02  0.00000000000E+00 0.  1.
         25    2    1    2    0    0  0.98901102537E+02  0.35043743594E+02  0.21898365217E+03  0.27310713346E+03  0.12499669747E+03 0.  0.
         25    2    1    2    0    0 -0.98901102537E+02 -0.35043743594E+02  0.43992938790E+02  0.16902321638E+03  0.12499590778E+03 0.  0.
          5    1    3    3  501    0  0.91429359304E+02 -0.71792383408E+01  0.20978176967E+03  0.22900076439E+03  0.47000000000E+01 0.  1.
         -5    1    3    3    0  501  0.74717432333E+01  0.42222981935E+02  0.92018824990E+01  0.44106369063E+02  0.47000000000E+01 0.  1.
          5    1    4    4  502    0  0.21565717693E+02 -0.36471378919E+02  0.11683185508E+02  0.44202132115E+02  0.47000000000E+01 0.  1.
         -5    1    4    4    0  502 -0.12046682023E+03  0.14276353248E+01  0.32309753282E+02  0.12482108426E+03  0.47000000000E+01 0.  1.
<mgrwt>
<rscale>  0 0.35541885E+03</rscale>
<asrwt>0</asrwt>
<pdfrwt beam="1">  1       21 0.54238995E-01 0.35541885E+03</pdfrwt>
<pdfrwt beam="2">  1       21 0.13781059E-01 0.35541885E+03</pdfrwt>
<totfact> 0.14040792E+05</totfact>
</mgrwt>
</event>
<event>
 8    1  0.9529436E-006  0.3265777E+03  0.7546771E-02  0.1072661E+00
         21   -1    0    0  504  503  0.00000000000E+00  0.00000000000E+00  0.39017949538E+03  0.39017949538E+03  0.00000000000E+00 0.  1.
         21   -1    0    0  503  504 -0.00000000000E+00 -0.00000000000E+00 -0.68335846519E+02  0.68335846519E+02  0.00000000000E+00 0.  1.
         25    2    1    2    0    0  0.61873171784E+02  0.83143918011E+02  0.13670286412E+03  0.21225902215E+03  0.12500007575E+03 0.  0.
         25    2    1    2    0    0 -0.61873171784E+02 -0.83143918011E+02  0.18514078474E+03  0.24625631974E+03  0.12499545732E+03 0.  0.
          5    1    3    3  501    0 -0.15934063948E+02  0.45242565403E+02  0.11231356766E+03  0.12221788576E+03  0.47000000000E+01 0.  1.
         -5    1    3    3    0  501  0.77807235732E+02  0.37901352608E+02  0.24389296460E+02  0.90041136396E+02  0.47000000000E+01 0.  1.
          5    1    4    4  502    0 -0.48559100190E+02 -0.55531477306E+02  0.17752823201E+02  0.76019628483E+02  0.47000000000E+01 0.  1.
         -5    1    4    4    0  502 -0.13314071594E+02 -0.27612440705E+02  0.16738796154E+03  0.17023669126E+03  0.47000000000E+01 0.  1.
<mgrwt>
<rscale>  0 0.32657769E+03</rscale>
<asrwt>0</asrwt>
<pdfrwt beam="1">  1       21 0.60027613E-01 0.32657769E+03</pdfrwt>
<pdfrwt beam="2">  1       21 0.10513207E-01 0.32657769E+03</pdfrwt>
<totfact> 0.18539493E+05</totfact>
</mgrwt>
</event>
<event>
 8    1  0.9529436E-006  0.2999017E+03  0.7546771E-02  0.1085290E+00
         21   -1    0    0  504  503  0.00000000000E+00  0.00000000000E+00  0.13542984012E+03  0.13542984012E+03  0.00000000000E+00 0. -1.
         21   -1    0    0  503  504 -0.00000000000E+00 -0.00000000000E+00 -0.16602885564E+03  0.16602885564E+03  0.00000000000E+00 0. -1.
         25    2    1    2    0    0  0.83164360725E+01  0.80432346293E+02  0.27187953487E+01  0.14890400414E+03  0.12500594051E+03 0.  0.
         25    2    1    2    0    0 -0.83164360725E+01 -0.80432346293E+02 -0.33317810868E+02  0.15255469162E+03  0.12499732787E+03 0.  0.
          5    1    3    3  501    0  0.14451283203E+02  0.66399237462E+02 -0.55911561703E+02  0.88124293210E+02  0.47000000000E+01 0. -1.
         -5    1    3    3    0  501 -0.61348471307E+01  0.14033108831E+02  0.58630357051E+02  0.60779710930E+02  0.47000000000E+01 0. -1.
          5    1    4    4  502    0 -0.57927152747E+02 -0.33603099187E+02  0.15044472749E+02  0.68797888489E+02  0.47000000000E+01 0.  1.
         -5    1    4    4    0  502  0.49610716674E+02 -0.46829247106E+02 -0.48362283617E+02  0.83756803127E+02  0.47000000000E+01 0.  1.
<mgrwt>
<rscale>  0 0.29990173E+03</rscale>
<asrwt>0</asrwt>
<pdfrwt beam="1">  1       21 0.20835360E-01 0.29990173E+03</pdfrwt>
<pdfrwt beam="2">  1       21 0.25542901E-01 0.29990173E+03</pdfrwt>
<totfact> 0.30330878E+05</totfact>
</mgrwt>
</event>
<event>
 8    1  0.9529436E-006  0.4011236E+03  0.7546771E-02  0.1043391E+00
         21   -1    0    0  504  503  0.00000000000E+00  0.00000000000E+00  0.22808258973E+03  0.22808258973E+03  0.00000000000E+00 0. -1.
         21   -1    0    0  503  504 -0.00000000000E+00 -0.00000000000E+00 -0.17636174244E+03  0.17636174244E+03  0.00000000000E+00 0. -1.
         25    2    1    2    0    0 -0.15533411298E+02  0.60943185307E+02  0.17073972572E+03  0.22074563582E+03  0.12498489145E+03 0.  0.
         25    2    1    2    0    0  0.15533411298E+02 -0.60943185307E+02 -0.11901887843E+03  0.18369869635E+03  0.12499743563E+03 0.  0.
          5    1    3    3  501    0  0.54686714536E+02  0.33825244071E+02  0.76765271532E+02  0.10024859499E+03  0.47000000000E+01 0.  1.
         -5    1    3    3    0  501 -0.70220125834E+02  0.27117941236E+02  0.93974454189E+02  0.12049704083E+03  0.47000000000E+01 0.  1.
          5    1    4    4  502    0 -0.19418796698E+02  0.14419965821E+02  0.12837814778E+02  0.27783530513E+02  0.47000000000E+01 0.  1.
         -5    1    4    4    0  502  0.34952207996E+02 -0.75363151128E+02 -0.13185669321E+03  0.15591516583E+03  0.47000000000E+01 0.  1.
<mgrwt>
<rscale>  0 0.40112364E+03</rscale>
<asrwt>0</asrwt>
<pdfrwt beam="1">  1       21 0.35089629E-01 0.40112364E+03</pdfrwt>
<pdfrwt beam="2">  1       21 0.27132576E-01 0.40112364E+03</pdfrwt>
<totfact> 0.95428669E+04</totfact>
</mgrwt>
</event>
<event>
 8    1  0.9529436E-006  0.2751918E+03  0.7546771E-02  0.1098344E+00
         21   -1    0    0  504  503  0.00000000000E+00  0.00000000000E+00  0.88402895566E+02  0.88402895566E+02  0.00000000000E+00 0. -1.
         21   -1    0    0  503  504 -0.00000000000E+00 -0.00000000000E+00 -0.21416300142E+03  0.21416300142E+03  0.00000000000E+00 0. -1.
         25    2    1    2    0    0  0.27826489990E+02 -0.50328858838E+02 -0.62238419563E+02  0.15101020392E+03  0.12499261275E+03 0.  0.
         25    2    1    2    0    0 -0.27826489990E+02  0.50328858838E+02 -0.63521686289E+02  0.15155569306E+03  0.12500726336E+03 0.  0.
          5    1    3    3  501    0  0.21874954741E+02  0.28978798037E+02 -0.61222629197E+02  0.71334316471E+02  0.47000000000E+01 0.  1.
         -5    1    3    3    0  501  0.59515352488E+01 -0.79307656875E+02 -0.10157903660E+01  0.79675887450E+02  0.47000000000E+01 0.  1.
          5    1    4    4  502    0  0.27219249018E+02 -0.29317943905E+02 -0.13531384869E+02  0.42492560859E+02  0.47000000000E+01 0. -1.
         -5    1    4    4    0  502 -0.55045739008E+02  0.79646802743E+02 -0.49990301420E+02  0.10906313220E+03  0.47000000000E+01 0. -1.
<mgrwt>
<rscale>  0 0.27519178E+03</rscale>
<asrwt>0</asrwt>
<pdfrwt beam="1">  1       21 0.13600446E-01 0.27519178E+03</pdfrwt>
<pdfrwt beam="2">  1       21 0.32948154E-01 0.27519178E+03</pdfrwt>
<totfact> 0.40838998E+05</totfact>
</mgrwt>
</event>
<event>
 8    1  0.9529436E-006  0.2529211E+03  0.7546771E-02  0.1111473E+00
         21   -1    0    0  504  503  0.00000000000E+00  0.00000000000E+00  0.64736782654E+02  0.64736782654E+02  0.00000000000E+00 0.  1.
         21   -1    0    0  503  504 -0.00000000000E+00 -0.00000000000E+00 -0.24703523466E+03  0.24703523466E+03  0.00000000000E+00 0.  1.
         25    2    1    2    0    0 -0.12016016326E+02 -0.60023417611E+01 -0.10798421836E+03  0.16572794864E+03  0.12499899515E+03 0.  0.
         25    2    1    2    0    0  0.12016016326E+02  0.60023417611E+01 -0.74314233646E+02  0.14604406868E+03  0.12500340763E+03 0.  0.
          5    1    3    3  501    0 -0.48224045779E+00 -0.62188407130E+02 -0.31103092536E+02  0.69693062083E+02  0.47000000000E+01 0.  1.
         -5    1    3    3    0  501 -0.11533775869E+02  0.56186065369E+02 -0.76881125827E+02  0.96034886556E+02  0.47000000000E+01 0.  1.
          5    1    4    4  502    0 -0.12116262770E+02 -0.38594501353E+01 -0.10479086632E+03  0.10566416064E+03  0.47000000000E+01 0. -1.
         -5    1    4    4    0  502  0.24132279097E+02  0.98617918964E+01  0.30476632678E+02  0.40379908038E+02  0.47000000000E+01 0. -1.
<mgrwt>
<rscale>  0 0.25292107E+03</rscale>
<asrwt>0</asrwt>
<pdfrwt beam="1">  1       21 0.99595048E-02 0.25292107E+03</pdfrwt>
<pdfrwt beam="2">  1       21 0.38005422E-01 0.25292107E+03</pdfrwt>
<totfact> 0.53944631E+05</totfact>
</mgrwt>
</event>
<event>
 8    1  0.9529436E-006  0.4404065E+03  0.7546771E-02  0.1030622E+00
         21   -1    0    0  504  503  0.00000000000E+00  0.00000000000E+00  0.15742465095E+03  0.15742465095E+03  0.00000000000E+00 0.  1.
         21   -1    0    0  503  504 -0.00000000000E+00 -0.00000000000E+00 -0.30801698134E+03  0.30801698134E+03  0.00000000000E+00 0.  1.
         25    2    1    2    0    0 -0.46552225694E+02 -0.85045994052E+02 -0.23718496743E+03  0.28510712581E+03  0.12501773310E+03 0.  0.
         25    2    1    2    0    0  0.46552225694E+02  0.85045994052E+02  0.86592637037E+02  0.18033450648E+03  0.12498927401E+03 0.  0.
          5    1    3    3  501    0 -0.11138523657E+02 -0.40921318923E+02 -0.15165753075E+01  0.42696733509E+02  0.47000000000E+01 0. -1.
         -5    1    3    3    0  501 -0.35413702038E+02 -0.44124675128E+02 -0.23566839212E+03  0.24241039230E+03  0.47000000000E+01 0. -1.
          5    1    4    4  502    0  0.22213859088E+02  0.94464313539E+02  0.10871496151E+03  0.14580121716E+03  0.47000000000E+01 0.  1.
         -5    1    4    4    0  502  0.24338366606E+02 -0.94183194875E+01 -0.22122324477E+02  0.34533289321E+02  0.47000000000E+01 0.  1.
<mgrwt>
<rscale>  0 0.44040647E+03</rscale>
<asrwt>0</asrwt>
<pdfrwt beam="1">  1       21 0.24219178E-01 0.44040647E+03</pdfrwt>
<pdfrwt beam="2">  1       21 0.47387227E-01 0.44040647E+03</pdfrwt>
<totfact> 0.63535301E+04</totfact>
</mgrwt>
</event>
<event>
 8    1  0.9529436E-006  0.3889420E+03  0.7546771E-02  0.1047677E+00
         21   -1    0    0  504  503  0.00000000000E+00  0.00000000000E+00  0.17909369630E+03  0.17909369630E+03  0.00000000000E+00 0.  1.
         21   -1    0    0  503  504 -0.00000000000E+00 -0.00000000000E+00 -0.21116861245E+03  0.21116861245E+03  0.00000000000E+00 0.  1.
         25    2    1    2    0    0  0.23408371848E+02 -0.12326740907E+03  0.64553918905E+02  0.18850746101E+03  0.12500019359E+03 0.  0.
         25    2    1    2    0    0 -0.23408371848E+02  0.12326740907E+03 -0.96628835059E+02  0.20175484774E+03  0.12500032324E+03 0.  0.
          5    1    3    3  501    0 -0.31957306581E+02 -0.10655565185E+03  0.15285115028E+02  0.11238817164E+03  0.47000000000E+01 0.  1.
         -5    1    3    3    0  501  0.55365678428E+02 -0.16711757225E+02  0.49268803877E+02  0.76119289362E+02  0.47000000000E+01 0.  1.
          5    1    4    4  502    0 -0.32027289134E+02  0.38099872375E+02 -0.10431802851E+03  0.11567924877E+03  0.47000000000E+01 0. -1.
         -5    1    4    4    0  502  0.86189172860E+01  0.85167536696E+02  0.76891934524E+01  0.86075598969E+02  0.47000000000E+01 0. -1.
<mgrwt>
<rscale>  0 0.38894199E+03</rscale>
<asrwt>0</asrwt>
<pdfrwt beam="1">  1       21 0.27552877E-01 0.38894199E+03</pdfrwt>
<pdfrwt beam="2">  1       21 0.32487479E-01 0.38894199E+03</pdfrwt>
<totfact> 0.10837463E+05</totfact>
</mgrwt>
</event>
<event>
 8    1  0.9529436E-006  0.3120283E+03  0.7546771E-02  0.1079378E+00
         21   -1    0    0  504  503  0.00000000000E+00  0.00000000000E+00  0.25447320389E+03  0.25447320389E+03  0.00000000000E+00 0.  1.
         21   -1    0    0  503  504 -0.00000000000E+00 -0.00000000000E+00 -0.95650221062E+02  0.95650221062E+02  0.00000000000E+00 0.  1.
         25    2    1    2    0    0 -0.34181907981E+02 -0.86632082220E+02  0.72177846133E+02  0.17178230380E+03  0.12500399163E+03 0.  0.
         25    2    1    2    0    0  0.34181907981E+02  0.86632082220E+02  0.86645136696E+02  0.17834112115E+03  0.12499862110E+03 0.  0.
          5    1    3    3  501    0 -0.43545563604E+02  0.19345747860E+02  0.33693411552E+02  0.58547502525E+02  0.47000000000E+01 0. -1.
         -5    1    3    3    0  501  0.93636556226E+01 -0.10597783008E+03  0.38484434581E+02  0.11323480128E+03  0.47000000000E+01 0. -1.
          5    1    4    4  502    0  0.38936885567E+01  0.63593029432E+02  0.11438413949E+03  0.13101547836E+03  0.47000000000E+01 0.  1.
         -5    1    4    4    0  502  0.30288219424E+02  0.23039052787E+02 -0.27739002797E+02  0.47325642789E+02  0.47000000000E+01 0.  1.
<mgrwt>
<rscale>  0 0.31202832E+03</rscale>
<asrwt>0</asrwt>
<pdfrwt beam="1">  1       21 0.39149723E-01 0.31202832E+03</pdfrwt>
<pdfrwt beam="2">  1       21 0.14715419E-01 0.31202832E+03</pdfrwt>
<totfact> 0.24815396E+05</totfact>
</mgrwt>
</event>
<event>
 8    1  0.9529436E-006  0.2731275E+03  0.7546771E-02  0.1099503E+00
         21   -1    0    0  504  503  0.00000000000E+00  0.00000000000E+00  0.13695801581E+03  0.13695801581E+03  0.00000000000E+00 0. -1.
         21   -1    0    0  503  504 -0.00000000000E+00 -0.00000000000E+00 -0.13617065246E+03  0.13617065246E+03  0.00000000000E+00 0. -1.
         25    2    1    2    0    0  0.34300005041E+02  0.18313028676E+02  0.39292837235E+02  0.13667997281E+03  0.12500252216E+03 0.  0.
         25    2    1    2    0    0 -0.34300005041E+02 -0.18313028676E+02 -0.38505473887E+02  0.13644869545E+03  0.12499487032E+03 0.  0.
          5    1    3    3  501    0  0.62128593631E+02 -0.34314108543E+02  0.19248882156E+02  0.73688734932E+02  0.47000000000E+01 0. -1.
         -5    1    3    3    0  501 -0.27828588589E+02  0.52627137218E+02  0.20043955078E+02  0.62991237882E+02  0.47000000000E+01 0. -1.
          5    1    4    4  502    0  0.18860750771E+01 -0.56634969613E+02 -0.56886157235E+02  0.80431349281E+02  0.47000000000E+01 0.  1.
         -5    1    4    4    0  502 -0.36186080118E+02  0.38321940937E+02  0.18380683347E+02  0.56017346169E+02  0.47000000000E+01 0.  1.
<mgrwt>
<rscale>  0 0.27312753E+03</rscale>
<asrwt>0</asrwt>
<pdfrwt beam="1">  1       21 0.21070464E-01 0.27312753E+03</pdfrwt>
<pdfrwt beam="2">  1       21 0.20949331E-01 0.27312753E+03</pdfrwt>
<totfact> 0.43594372E+05</totfact>
</mgrwt>
</event>
<event>
 8    1  0.9529436E-006  0.2954406E+03  0.7546771E-02  0.1087542E+00
         21   -1    0    0  504  503  0.00000000000E+00  0.00000000000E+00  0.34676228447E+03  0.34676228447E+03  0.00000000000E+00 0. -1.
         21   -1    0    0  503  504 -0.00000000000E+00 -0.00000000000E+00 -0.62928668370E+02  0.62928668370E+02  0.00000000000E+00 0. -1.
         25    2    1    2    0    0 -0.66657133020E+02  0.35109044542E+02  0.17355983594E+03  0.22676323800E+03  0.12499092393E+03 0.  0.
         25    2    1    2    0    0  0.66657133020E+02 -0.35109044542E+02  0.11027378016E+03  0.18292771484E+03  0.12500569537E+03 0.  0.
          5    1    3    3  501    0  0.25837713510E+02  0.14032873474E+01 -0.98248172811E+00  0.26317521258E+02  0.47000000000E+01 0.  1.
         -5    1    3    3    0  501 -0.92494846531E+02  0.33705757195E+02  0.17454231766E+03  0.20044571674E+03  0.47000000000E+01 0.  1.
          5    1    4    4  502    0  0.83180492059E+01  0.45056495796E+02  0.27178312720E+02  0.53479233711E+02  0.47000000000E+01 0. -1.
         -5    1    4    4    0  502  0.58339083815E+02 -0.80165540339E+02  0.83095467443E+02  0.12944848113E+03  0.47000000000E+01 0. -1.
<mgrwt>
<rscale>  0 0.29544061E+03</rscale>
<asrwt>0</asrwt>
<pdfrwt beam="1">  1       21 0.53348043E-01 0.29544061E+03</pdfrwt>
<pdfrwt beam="2">  1       21 0.96813338E-02 0.29544061E+03</pdfrwt>
<totfact> 0.27869608E+05</totfact>
</mgrwt>
</event>
<event>
 8    1  0.9529436E-006  0.3232733E+03  0.7546771E-02  0.1074153E+00
         21   -1    0    0  504  503  0.00000000000E+00  0.00000000000E+00  0.21822956911E+02  0.21822956911E+02  0.00000000000E+00 0. -1.
         21   -1    0    0  503  504 -0.00000000000E+00 -0.00000000000E+00 -0.11971984915E+04  0.11971984915E+04  0.00000000000E+00 0. -1.
         25    2    1    2    0    0 -0.45915688652E+02 -0.73401149506E+02 -0.38104306773E+03  0.41026640614E+03  0.12501490044E+03 0.  0.
         25    2    1    2    0    0  0.45915688652E+02  0.73401149506E+02 -0.79433246683E+03  0.80875504224E+03  0.12499868508E+03 0.  0.
          5    1    3    3  501    0 -0.63684895997E+02 -0.83706535510E+02 -0.18315110912E+03  0.21125569540E+03  0.47000000000E+01 0.  1.
         -5    1    3    3    0  501  0.17769207345E+02  0.10305386004E+02 -0.19789195861E+03  0.19901071075E+03  0.47000000000E+01 0.  1.
          5    1    4    4  502    0  0.15042158309E+02 -0.70730265648E+01 -0.53801968810E+03  0.53829691530E+03  0.47000000000E+01 0. -1.
         -5    1    4    4    0  502  0.30873530343E+02  0.80474176071E+02 -0.25631277873E+03  0.27045812695E+03  0.47000000000E+01 0. -1.
<mgrwt>
<rscale>  0 0.32327333E+03</rscale>
<asrwt>0</asrwt>
<pdfrwt beam="1">  1       21 0.33573768E-02 0.32327333E+03</pdfrwt>
<pdfrwt beam="2">  1       21 0.18418445E+00 0.32327333E+03</pdfrwt>
<totfact> 0.84382409E+04</totfact>
</mgrwt>
</event>
<event>
 8    1  0.9529436E-006  0.3526663E+03  0.7546771E-02  0.1061526E+00
         21   -1    0    0  504  503  0.00000000000E+00  0.00000000000E+00  0.19154804457E+03  0.19154804457E+03  0.00000000000E+00 0.  1.
         21   -1    0    0  503  504 -0.00000000000E+00 -0.00000000000E+00 -0.16232682116E+03  0.16232682116E+03  0.00000000000E+00 0.  1.
         25    2    1    2    0    0  0.66534408803E+02 -0.59115565007E+01  0.11988241624E+03  0.18563070889E+03  0.12500076921E+03 0.  0.
         25    2    1    2    0    0 -0.66534408803E+02  0.59115565007E+01 -0.90661192832E+02  0.16824415684E+03  0.12499948147E+03 0.  0.
          5    1    3    3  501    0  0.27383227548E+02  0.28771733161E+02  0.12652576699E+03  0.13269707417E+03  0.47000000000E+01 0.  1.
         -5    1    3    3    0  501  0.39151181255E+02 -0.34683289662E+02 -0.66433507498E+01  0.52933634719E+02  0.47000000000E+01 0.  1.
          5    1    4    4  502    0 -0.30307295648E+02  0.55137843185E+02 -0.55248242814E+01  0.63335042464E+02  0.47000000000E+01 0. -1.
         -5    1    4    4    0  502 -0.36227113155E+02 -0.49226286684E+02 -0.85136368551E+02  0.10490911437E+03  0.47000000000E+01 0. -1.
<mgrwt>
<rscale>  0 0.35266633E+03</rscale>
<asrwt>0</asrwt>
<pdfrwt beam="1">  1       21 0.29468930E-01 0.35266633E+03</pdfrwt>
<pdfrwt beam="2">  1       21 0.24973357E-01 0.35266633E+03</pdfrwt>
<totfact> 0.16048669E+05</totfact>
</mgrwt>
</event>
<event>
 8    1  0.9529436E-006  0.3322575E+03  0.7546771E-02  0.1070142E+00
         21   -1    0    0  504  503  0.00000000000E+00  0.00000000000E+00  0.49039329959E+02  0.49039329959E+02  0.00000000000E+00 0. -1.
         21   -1    0    0  503  504 -0.00000000000E+00 -0.00000000000E+00 -0.56278846271E+03  0.56278846271E+03  0.00000000000E+00 0. -1.
         25    2    1    2    0    0 -0.47644562980E+02  0.95197204440E+02 -0.30348564678E+03  0.34505512274E+03  0.12500795098E+03 0.  0.
         25    2    1    2    0    0  0.47644562980E+02 -0.95197204440E+02 -0.21026348597E+03  0.26677266993E+03  0.12499764708E+03 0.  0.
          5    1    3    3  501    0 -0.40383750263E+02  0.35904010880E+02 -0.24165708527E+02  0.59380272407E+02  0.47000000000E+01 0. -1.
         -5    1    3    3    0  501 -0.72608127179E+01  0.59293193559E+02 -0.27931993825E+03  0.28567485033E+03  0.47000000000E+01 0. -1.
          5    1    4    4  502    0  0.80614785862E+02 -0.10210034993E+03 -0.16666562810E+03  0.21147753249E+03  0.47000000000E+01 0. -1.
         -5    1    4    4    0  502 -0.32970222882E+02  0.69031454923E+01 -0.43597857865E+02  0.55295137444E+02  0.47000000000E+01 0. -1.
<mgrwt>
<rscale>  0 0.33225755E+03</rscale>
<asrwt>0</asrwt>
<pdfrwt beam="1">  1       21 0.75445125E-02 0.33225755E+03</pdfrwt>
<pdfrwt beam="2">  1       21 0.86582838E-01 0.33225755E+03</pdfrwt>
<totfact> 0.14633233E+05</totfact>
</mgrwt>
</event>
<event>
 8    1  0.9529436E-006  0.3105313E+03  0.7546771E-02  0.1080091E+00
         21   -1    0    0  504  503  0.00000000000E+00  0.00000000000E+00  0.34622232755E+03  0.34622232755E+03  0.00000000000E+00 0.  1.
         21   -1    0    0  503  504 -0.00000000000E+00 -0.00000000000E+00 -0.69629892682E+02  0.69629892682E+02  0.00000000000E+00 0.  1.
         25    2    1    2    0    0 -0.75204748424E+02  0.48009606883E+02  0.10774281710E+03  0.18760062260E+03  0.12499920971E+03 0.  0.
         25    2    1    2    0    0  0.75204748424E+02 -0.48009606883E+02  0.16884961777E+03  0.22825159763E+03  0.12501168689E+03 0.  0.
          5    1    3    3  501    0  0.12223764336E+02 -0.22825351919E+02  0.59543048402E+02  0.65099014722E+02  0.47000000000E+01 0. -1.
         -5    1    3    3    0  501 -0.87428512760E+02  0.70834958802E+02  0.48199768693E+02  0.12250160788E+03  0.47000000000E+01 0. -1.
          5    1    4    4  502    0  0.41003294615E+02 -0.90005898410E+02  0.10331330088E+03  0.14310157252E+03  0.47000000000E+01 0. -1.
         -5    1    4    4    0  502  0.34201453809E+02  0.41996291527E+02  0.65536316891E+02  0.85150025111E+02  0.47000000000E+01 0. -1.
<mgrwt>
<rscale>  0 0.31053131E+03</rscale>
<asrwt>0</asrwt>
<pdfrwt beam="1">  1       21 0.53264973E-01 0.31053131E+03</pdfrwt>
<pdfrwt beam="2">  1       21 0.10712291E-01 0.31053131E+03</pdfrwt>
<totfact> 0.23264201E+05</totfact>
</mgrwt>
</event>
<event>
 8    1  0.9529436E-006  0.3015695E+03  0.7546771E-02  0.1084459E+00
         21   -1    0    0  504  503  0.00000000000E+00  0.00000000000E+00  0.45831575694E+03  0.45831575694E+03  0.00000000000E+00 0.  1.
         21   -1    0    0  503  504 -0.00000000000E+00 -0.00000000000E+00 -0.49607823947E+02  0.49607823947E+02  0.00000000000E+00 0.  1.
         25    2    1    2    0    0  0.22510655187E+02  0.51752266431E+02  0.30989351356E+03  0.33888439609E+03  0.12499446983E+03 0.  0.
         25    2    1    2    0    0 -0.22510655187E+02 -0.51752266431E+02  0.98814419439E+02  0.16903918481E+03  0.12499971933E+03 0.  0.
          5    1    3    3  501    0 -0.39771386702E+02  0.50248165155E+02  0.22155867193E+03  0.23068804999E+03  0.47000000000E+01 0. -1.
         -5    1    3    3    0  501  0.62282041889E+02  0.15041012755E+01  0.88334841625E+02  0.10819634609E+03  0.47000000000E+01 0. -1.
          5    1    4    4  502    0 -0.70034354857E+02 -0.11977572973E+02  0.72276134558E+02  0.10146035059E+03  0.47000000000E+01 0.  1.
         -5    1    4    4    0  502  0.47523699670E+02 -0.39774693458E+02  0.26538284881E+02  0.67578834219E+02  0.47000000000E+01 0.  1.
<mgrwt>
<rscale>  0 0.30156954E+03</rscale>
<asrwt>0</asrwt>
<pdfrwt beam="1">  1       21 0.70510114E-01 0.30156954E+03</pdfrwt>
<pdfrwt beam="2">  1       21 0.76319732E-02 0.30156954E+03</pdfrwt>
<totfact> 0.23067131E+05</totfact>
</mgrwt>
</event>
<event>
 8    1  0.9529436E-006  0.2983552E+03  0.7546771E-02  0.1086066E+00
         21   -1    0    0  504  503  0.00000000000E+00  0.00000000000E+00  0.15410348639E+03  0.15410348639E+03  0.00000000000E+00 0. -1.
         21   -1    0    0  503  504 -0.00000000000E+00 -0.00000000000E+00 -0.14440915004E+03  0.14440915004E+03  0.00000000000E+00 0. -1.
         25    2    1    2    0    0  0.53022429314E+01  0.75898587838E+02 -0.24141425538E+02  0.14831600591E+03  0.12500447899E+03 0.  0.
         25    2    1    2    0    0 -0.53022429314E+01 -0.75898587838E+02  0.33835761888E+02  0.15019663052E+03  0.12500183847E+03 0.  0.
          5    1    3    3  501    0 -0.59487821062E+02  0.29986051491E+02 -0.11737223147E+02  0.67807201284E+02  0.47000000000E+01 0.  1.
         -5    1    3    3    0  501  0.64790063994E+02  0.45912536347E+02 -0.12404202391E+02  0.80508804630E+02  0.47000000000E+01 0.  1.
          5    1    4    4  502    0 -0.56396884078E+02 -0.72337896590E+02  0.68154645246E+01  0.92097341837E+02  0.47000000000E+01 0.  1.
         -5    1    4    4    0  502  0.51094641146E+02 -0.35606912477E+01  0.27020297364E+02  0.58099288685E+02  0.47000000000E+01 0.  1.
<mgrwt>
<rscale>  0 0.29835518E+03</rscale>
<asrwt>0</asrwt>
<pdfrwt beam="1">  1       21 0.23708229E-01 0.29835518E+03</pdfrwt>
<pdfrwt beam="2">  1       21 0.22216792E-01 0.29835518E+03</pdfrwt>
<totfact> 0.31000794E+05</totfact>
</mgrwt>
</event>
<event>
 8    1  0.9529436E-006  0.3591948E+03  0.7546771E-02  0.1058903E+00
         21   -1    0    0  504  503  0.00000000000E+00  0.00000000000E+00  0.46766083686E+02  0.46766083686E+02  0.00000000000E+00 0. -1.
         21   -1    0    0  503  504 -0.00000000000E+00 -0.00000000000E+00 -0.68971392991E+03  0.68971392991E+03  0.00000000000E+00 0. -1.
         25    2    1    2    0    0  0.10957313941E+02  0.12827537050E+03 -0.33664976178E+03  0.38148777129E+03  0.12500089654E+03 0.  0.
         25    2    1    2    0    0 -0.10957313941E+02 -0.12827537050E+03 -0.30629808445E+03  0.35499224230E+03  0.12500536849E+03 0.  0.
          5    1    3    3  501    0 -0.28932611347E+02  0.11362626198E+03 -0.15240241052E+03  0.19234502370E+03  0.47000000000E+01 0.  1.
         -5    1    3    3    0  501  0.39889925289E+02  0.14649108517E+02 -0.18424735126E+03  0.18914274759E+03  0.47000000000E+01 0.  1.
          5    1    4    4  502    0 -0.40218789667E+02 -0.35111547378E+02 -0.21376368777E+03  0.22038007172E+03  0.47000000000E+01 0. -1.
         -5    1    4    4    0  502  0.29261475726E+02 -0.93163823124E+02 -0.92534396676E+02  0.13461217058E+03  0.47000000000E+01 0. -1.
<mgrwt>
<rscale>  0 0.35919476E+03</rscale>
<asrwt>0</asrwt>
<pdfrwt beam="1">  1       21 0.71947826E-02 0.35919476E+03</pdfrwt>
<pdfrwt beam="2">  1       21 0.10610983E+00 0.35919476E+03</pdfrwt>
<totfact> 0.97203849E+04</totfact>
</mgrwt>
</event>
<event>
 8    1  0.9529436E-006  0.2632072E+03  0.7546771E-02  0.1105231E+00
         21   -1    0    0  504  503  0.00000000000E+00  0.00000000000E+00  0.14746200214E+03  0.14746200214E+03  0.00000000000E+00 0.  1.
         21   -1    0    0  503  504 -0.00000000000E+00 -0.00000000000E+00 -0.11745065581E+03  0.11745065581E+03  0.00000000000E+00 0.  1.
         25    2    1    2    0    0  0.38468459030E+02  0.26038489842E+01  0.51963806629E+00  0.13081733975E+03  0.12500521583E+03 0.  0.
         25    2    1    2    0    0 -0.38468459030E+02 -0.26038489842E+01  0.29491708266E+02  0.13409531821E+03  0.12500076455E+03 0.  0.
          5    1    3    3  501    0 -0.22013467814E+02 -0.39070501219E+02 -0.26632882624E+02  0.52368857802E+02  0.47000000000E+01 0. -1.
         -5    1    3    3    0  501  0.60481926844E+02  0.41674350203E+02  0.27152520690E+02  0.78448481945E+02  0.47000000000E+01 0. -1.
          5    1    4    4  502    0  0.30020278803E+02 -0.27632935567E+02  0.43356216850E+02  0.59721418327E+02  0.47000000000E+01 0. -1.
         -5    1    4    4    0  502 -0.68488737833E+02  0.25029086583E+02 -0.13864508584E+02  0.74373899880E+02  0.47000000000E+01 0. -1.
<mgrwt>
<rscale>  0 0.26320721E+03</rscale>
<asrwt>0</asrwt>
<pdfrwt beam="1">  1       21 0.22686462E-01 0.26320721E+03</pdfrwt>
<pdfrwt beam="2">  1       21 0.18069332E-01 0.26320721E+03</pdfrwt>
<totfact> 0.50098756E+05</totfact>
</mgrwt>
</event>
<event>
 8    1  0.9529436E-006  0.3707039E+03  0.7546771E-02  0.1054424E+00
         21   -1    0    0  504  503  0.00000000000E+00  0.00000000000E+00  0.87688118276E+02  0.87688118276E+02  0.00000000000E+00 0. -1.
         21   -1    0    0  503  504 -0.00000000000E+00 -0.00000000000E+00 -0.39179015733E+03  0.39179015733E+03  0.00000000000E+00 0. -1.
         25    2    1    2    0    0 -0.17479512674E+02  0.11376913020E+03 -0.56287089950E+02  0.17900249356E+03  0.12499883142E+03 0.  0.
         25    2    1    2    0    0  0.17479512674E+02 -0.11376913020E+03 -0.24781494911E+03  0.30047578205E+03  0.12499799297E+03 0.  0.
          5    1    3    3  501    0 -0.70199640317E+02  0.46876486884E+02 -0.30755322417E+02  0.89963183471E+02  0.47000000000E+01 0. -1.
         -5    1    3    3    0  501  0.52720127642E+02  0.66892643314E+02 -0.25531767533E+02  0.89039310091E+02  0.47000000000E+01 0. -1.
          5    1    4    4  502    0  0.41265962719E+02 -0.36493106966E+02 -0.19758295405E+03  0.20517246469E+03  0.47000000000E+01 0. -1.
         -5    1    4    4    0  502 -0.23786450045E+02 -0.77276023232E+02 -0.50231995058E+02  0.95303317360E+02  0.47000000000E+01 0. -1.
<mgrwt>
<rscale>  0 0.37070388E+03</rscale>
<asrwt>0</asrwt>
<pdfrwt beam="1">  1       21 0.13490480E-01 0.37070388E+03</pdfrwt>
<pdfrwt beam="2">  1       21 0.60275408E-01 0.37070388E+03</pdfrwt>
<totfact> 0.11582469E+05</totfact>
</mgrwt>
</event>
<event>
 8    1  0.9529436E-006  0.3201004E+03  0.7546771E-02  0.1075603E+00
         21   -1    0    0  504  503  0.00000000000E+00  0.00000000000E+00  0.49474130880E+02  0.49474130880E+02  0.00000000000E+00 0.  1.
         21   -1    0    0  503  504 -0.00000000000E+00 -0.00000000000E+00 -0.51776683489E+03  0.51776683489E+03  0.00000000000E+00 0.  1.
         25    2    1    2    0    0  0.39083468061E+02  0.74920912706E+02 -0.32874747926E+03  0.36171866819E+03  0.12499931667E+03 0.  0.
         25    2    1    2    0    0 -0.39083468061E+02 -0.74920912706E+02 -0.13954522476E+03  0.20552229758E+03  0.12500353760E+03 0.  0.
          5    1    3    3  501    0  0.79821242660E+02  0.45438715075E+02 -0.26426585560E+03  0.27981179396E+03  0.47000000000E+01 0.  1.
         -5    1    3    3    0  501 -0.40737774599E+02  0.29482197631E+02 -0.64481623661E+02  0.81906874231E+02  0.47000000000E+01 0.  1.
          5    1    4    4  502    0 -0.13386971674E+02 -0.10202366481E+03 -0.13148198340E+03  0.16702586970E+03  0.47000000000E+01 0. -1.
         -5    1    4    4    0  502 -0.25696496386E+02  0.27102752103E+02 -0.80632413617E+01  0.38496427878E+02  0.47000000000E+01 0. -1.
<mgrwt>
<rscale>  0 0.32010039E+03</rscale>
<asrwt>0</asrwt>
<pdfrwt beam="1">  1       21 0.76114044E-02 0.32010039E+03</pdfrwt>
<pdfrwt beam="2">  1       21 0.79656440E-01 0.32010039E+03</pdfrwt>
<totfact> 0.17517957E+05</totfact>
</mgrwt>
</event>
<event>
 8    1  0.9529436E-006  0.4228203E+03  0.7546771E-02  0.1036152E+00
         21   -1    0    0  504  503  0.00000000000E+00  0.00000000000E+00  0.12858514049E+03  0.12858514049E+03  0.00000000000E+00 0.  1.
         21   -1    0    0  503  504 -0.00000000000E+00 -0.00000000000E+00 -0.34758483711E+03  0.34758483711E+03  0.00000000000E+00 0.  1.
         25    2    1    2    0    0  0.21699627883E+02  0.14524074436E+03 -0.20704852130E+03  0.28294844541E+03  0.12499993965E+03 0.  0.
         25    2    1    2    0    0 -0.21699627883E+02 -0.14524074436E+03 -0.11951175323E+02  0.19322153220E+03  0.12500392890E+03 0.  0.
          5    1    3    3  501    0  0.71056222311E-01  0.13228375950E+03 -0.21801741141E+03  0.25505426825E+03  0.47000000000E+01 0. -1.
         -5    1    3    3    0  501  0.21628571660E+02  0.12956984867E+02  0.10968890111E+02  0.27894177156E+02  0.47000000000E+01 0. -1.
          5    1    4    4  502    0  0.18403776381E+01 -0.10275480028E+03  0.49978765052E+02  0.11437614667E+03  0.47000000000E+01 0.  1.
         -5    1    4    4    0  502 -0.23540005521E+02 -0.42485944085E+02 -0.61929940375E+02  0.78845385531E+02  0.47000000000E+01 0.  1.
<mgrwt>
<rscale>  0 0.42282027E+03</rscale>
<asrwt>0</asrwt>
<pdfrwt beam="1">  1       21 0.19782329E-01 0.42282027E+03</pdfrwt>
<pdfrwt beam="2">  1       21 0.53474591E-01 0.42282027E+03</pdfrwt>
<totfact> 0.72705120E+04</totfact>
</mgrwt>
</event>
<event>
 8    1  0.9529436E-006  0.2621097E+03  0.7546771E-02  0.1105882E+00
         21   -1    0    0  504  503  0.00000000000E+00  0.00000000000E+00  0.17330618936E+02  0.17330618936E+02  0.00000000000E+00 0.  1.
         21   -1    0    0  503  504 -0.00000000000E+00 -0.00000000000E+00 -0.99104205300E+03  0.99104205300E+03  0.00000000000E+00 0.  1.
         25    2    1    2    0    0 -0.12824933083E+02  0.36717368165E+02 -0.51002129826E+03  0.52655633367E+03  0.12500881493E+03 0.  0.
         25    2    1    2    0    0  0.12824933083E+02 -0.36717368165E+02 -0.46369013581E+03  0.48181633827E+03  0.12500319096E+03 0.  0.
          5    1    3    3  501    0  0.21690711881E+02  0.69181513591E+02 -0.19772894614E+03  0.21065468176E+03  0.47000000000E+01 0.  1.
         -5    1    3    3    0  501 -0.34515644964E+02 -0.32464145426E+02 -0.31229235212E+03  0.31590165191E+03  0.47000000000E+01 0.  1.
          5    1    4    4  502    0  0.17903349662E+02  0.17671786889E+02 -0.38533450114E+03  0.38618336286E+03  0.47000000000E+01 0.  1.
         -5    1    4    4    0  502 -0.50784165794E+01 -0.54389155054E+02 -0.78355634669E+02  0.95632975416E+02  0.47000000000E+01 0.  1.
<mgrwt>
<rscale>  0 0.26210969E+03</rscale>
<asrwt>0</asrwt>
<pdfrwt beam="1">  1       21 0.26662482E-02 0.26210969E+03</pdfrwt>
<pdfrwt beam="2">  1       21 0.15246806E+00 0.26210969E+03</pdfrwt>
<totfact> 0.21450342E+05</totfact>
</mgrwt>
</event>
<event>
 8    1  0.9529436E-006  0.2755318E+03  0.7546771E-02  0.1098155E+00
         21   -1    0    0  504  503  0.00000000000E+00  0.00000000000E+00  0.28539838101E+03  0.28539838101E+03  0.00000000000E+00 0. -1.
         21   -1    0    0  503  504 -0.00000000000E+00 -0.00000000000E+00 -0.66501597643E+02  0.66501597643E+02  0.00000000000E+00 0. -1.
         25    2    1    2    0    0 -0.89770285132E+01 -0.41058236264E+02  0.16034286724E+03  0.20760955780E+03  0.12500211042E+03 0.  0.
         25    2    1    2    0    0  0.89770285132E+01  0.41058236264E+02  0.58553916123E+02  0.14429042085E+03  0.12499919459E+03 0.  0.
          5    1    3    3  501    0 -0.36124496515E+02 -0.69111196491E+02  0.14630855113E+03  0.16586023895E+03  0.47000000000E+01 0.  1.
         -5    1    3    3    0  501  0.27147468002E+02  0.28052960227E+02  0.14034316108E+02  0.41749318857E+02  0.47000000000E+01 0.  1.
          5    1    4    4  502    0  0.31947788270E+02  0.79666934839E+02  0.45551605477E+02  0.97285766911E+02  0.47000000000E+01 0. -1.
         -5    1    4    4    0  502 -0.22970759757E+02 -0.38608698575E+02  0.13002310646E+02  0.47004653935E+02  0.47000000000E+01 0. -1.
<mgrwt>
<rscale>  0 0.27553184E+03</rscale>
<asrwt>0</asrwt>
<pdfrwt beam="1">  1       21 0.43907443E-01 0.27553184E+03</pdfrwt>
<pdfrwt beam="2">  1       21 0.10231015E-01 0.27553184E+03</pdfrwt>
<totfact> 0.38138427E+05</totfact>
</mgrwt>
</event>
<event>
 8    1  0.9529436E-006  0.3946546E+03  0.7546771E-02  0.1045646E+00
         21   -1    0    0  504  503  0.00000000000E+00  0.00000000000E+00  0.24014986106E+03  0.24014986106E+03  0.00000000000E+00 0.  1.
         21   -1    0    0  503  504 -0.00000000000E+00 -0.00000000000E+00 -0.16214071558E+03  0.16214071558E+03  0.00000000000E+00 0.  1.
         25    2    1    2    0    0  0.94329920588E+02 -0.11866743834E+03  0.20411334043E+02  0.19753522096E+03  0.12499378434E+03 0.  0.
         25    2    1    2    0    0 -0.94329920588E+02  0.11866743834E+03  0.57597811443E+02  0.20475535568E+03  0.12500861153E+03 0.  0.
          5    1    3    3  501    0  0.11717652230E+03 -0.95931739633E+02  0.43474770298E+02  0.15762417867E+03  0.47000000000E+01 0. -1.
         -5    1    3    3    0  501 -0.22846601713E+02 -0.22735698702E+02 -0.23063436255E+02  0.39911042297E+02  0.47000000000E+01 0. -1.
          5    1    4    4  502    0 -0.94751861965E+02  0.22032646776E+02  0.44658701063E+02  0.10714402667E+03  0.47000000000E+01 0. -1.
         -5    1    4    4    0  502  0.42194137720E+00  0.96634791559E+02  0.12939110380E+02  0.97611329013E+02  0.47000000000E+01 0. -1.
<mgrwt>
<rscale>  0 0.39465464E+03</rscale>
<asrwt>0</asrwt>
<pdfrwt beam="1">  1       21 0.36946133E-01 0.39465464E+03</pdfrwt>
<pdfrwt beam="2">  1       21 0.24944725E-01 0.39465464E+03</pdfrwt>
<totfact> 0.10140825E+05</totfact>
</mgrwt>
</event>
<event>
 8    1  0.9529436E-006  0.3902774E+03  0.7546771E-02  0.1047199E+00
         21   -1    0    0  504  503  0.00000000000E+00  0.00000000000E+00  0.11084296300E+02  0.11084296300E+02  0.00000000000E+00 0. -1.
         21   -1    0    0  503  504 -0.00000000000E+00 -0.00000000000E+00 -0.34354115447E+04  0.34354115447E+04  0.00000000000E+00 0. -1.
         25    2    1    2    0    0  0.10873753110E+03  0.13724348828E+02 -0.80979923712E+03  0.82668776222E+03  0.12500257337E+03 0.  0.
         25    2    1    2    0    0 -0.10873753110E+03 -0.13724348828E+02 -0.26145280113E+04  0.26198080788E+04  0.12500175772E+03 0.  0.
          5    1    3    3  501    0  0.13130225996E+03  0.31719099934E+02 -0.61269075510E+03  0.62742205584E+03  0.47000000000E+01 0. -1.
         -5    1    3    3    0  501 -0.22564728855E+02 -0.17994751106E+02 -0.19710848202E+03  0.19926570638E+03  0.47000000000E+01 0. -1.
          5    1    4    4  502    0 -0.95422205322E+02  0.35326451562E+02 -0.21643553504E+04  0.21667509152E+04  0.47000000000E+01 0.  1.
         -5    1    4    4    0  502 -0.13315325781E+02 -0.49050800390E+02 -0.45017266086E+03  0.45305716362E+03  0.47000000000E+01 0.  1.
<mgrwt>
<rscale>  0 0.39027744E+03</rscale>
<asrwt>0</asrwt>
<pdfrwt beam="1">  1       21 0.17052749E-02 0.39027744E+03</pdfrwt>
<pdfrwt beam="2">  1       21 0.52852532E+00 0.39027744E+03</pdfrwt>
<totfact> 0.15440071E+03</totfact>
</mgrwt>
</event>
<event>
 8    1  0.9529436E-006  0.3222961E+03  0.7546771E-02  0.1074597E+00
         21   -1    0    0  504  503  0.00000000000E+00  0.00000000000E+00  0.64481162749E+02  0.64481162749E+02  0.00000000000E+00 0.  1.
         21   -1    0    0  503  504 -0.00000000000E+00 -0.00000000000E+00 -0.40273306797E+03  0.40273306797E+03  0.00000000000E+00 0.  1.
         25    2    1    2    0    0 -0.74213893253E+02  0.15971411579E+02 -0.71007354754E+02  0.16257227850E+03  0.12499965347E+03 0.  0.
         25    2    1    2    0    0  0.74213893253E+02 -0.15971411579E+02 -0.26724455047E+03  0.30464195222E+03  0.12499712540E+03 0.  0.
          5    1    3    3  501    0 -0.10051795734E+03  0.32583078682E+02 -0.76626679329E+02  0.13061108203E+03  0.47000000000E+01 0.  1.
         -5    1    3    3    0  501  0.26304064084E+02 -0.16611667104E+02  0.56193245756E+01  0.31961196473E+02  0.47000000000E+01 0.  1.
          5    1    4    4  502    0  0.16331539392E+02  0.51476658193E+02 -0.72529617018E+02  0.90549438774E+02  0.47000000000E+01 0. -1.
         -5    1    4    4    0  502  0.57882353861E+02 -0.67448069772E+02 -0.19471493345E+03  0.21409251345E+03  0.47000000000E+01 0. -1.
<mgrwt>
<rscale>  0 0.32229612E+03</rscale>
<asrwt>0</asrwt>
<pdfrwt beam="1">  1       21 0.99201791E-02 0.32229612E+03</pdfrwt>
<pdfrwt beam="2">  1       21 0.61958932E-01 0.32229612E+03</pdfrwt>
<totfact> 0.19214533E+05</totfact>
</mgrwt>
</event>
<event>
 8    1  0.9529436E-006  0.3267427E+03  0.7546771E-02  0.1072587E+00
         21   -1    0    0  504  503  0.00000000000E+00  0.00000000000E+00  0.81735743207E+03  0.81735743207E+03  0.00000000000E+00 0. -1.
         21   -1    0    0  503  504 -0.00000000000E+00 -0.00000000000E+00 -0.32654263595E+02  0.32654263595E+02  0.00000000000E+00 0. -1.
         25    2    1    2    0    0 -0.28588137331E+02  0.75396904153E+02  0.21661608601E+03  0.26277323511E+03  0.12500107848E+03 0.  0.
         25    2    1    2    0    0  0.28588137331E+02 -0.75396904153E+02  0.56808708247E+03  0.58723846056E+03  0.12499640610E+03 0.  0.
          5    1    3    3  501    0 -0.77318862818E+02  0.57994802665E+02  0.13848049197E+03  0.16893945762E+03  0.47000000000E+01 0. -1.
         -5    1    3    3    0  501  0.48730725487E+02  0.17402101488E+02  0.78135594032E+02  0.93833777487E+02  0.47000000000E+01 0. -1.
          5    1    4    4  502    0 -0.26467562399E+02 -0.56074586177E+01  0.35825427699E+03  0.35930515225E+03  0.47000000000E+01 0. -1.
         -5    1    4    4    0  502  0.55055699730E+02 -0.69789445536E+02  0.20983280548E+03  0.22793330831E+03  0.47000000000E+01 0. -1.
<mgrwt>
<rscale>  0 0.32674274E+03</rscale>
<asrwt>0</asrwt>
<pdfrwt beam="1">  1       21 0.12574728E+00 0.32674274E+03</pdfrwt>
<pdfrwt beam="2">  1       21 0.50237335E-02 0.32674274E+03</pdfrwt>
<totfact> 0.11964736E+05</totfact>
</mgrwt>
</event>
<event>
 8    1  0.9529436E-006  0.2611809E+03  0.7546771E-02  0.1106436E+00
         21   -1    0    0  504  503  0.00000000000E+00  0.00000000000E+00  0.19100474900E+03  0.19100474900E+03  0.00000000000E+00 0.  1.
         21   -1    0    0  503  504 -0.00000000000E+00 -0.00000000000E+00 -0.89285062784E+02  0.89285062784E+02  0.00000000000E+00 0.  1.
         25    2    1    2    0    0  0.10348040199E+02 -0.20292895435E+01  0.11928548972E+02  0.12601891741E+03  0.12500910892E+03 0.  0.
         25    2    1    2    0    0 -0.10348040199E+02  0.20292895435E+01  0.89791137243E+02  0.15427089437E+03  0.12500344224E+03 0.  0.
          5    1    3    3  501    0  0.31443226068E+02 -0.50911229276E+02 -0.20591115752E+02  0.63456392743E+02  0.47000000000E+01 0.  1.
         -5    1    3    3    0  501 -0.21095185869E+02  0.48881939733E+02  0.32519664724E+02  0.62562524667E+02  0.47000000000E+01 0.  1.
          5    1    4    4  502    0 -0.32422662555E+02 -0.10920239912E+02  0.11376438350E+03  0.11889030928E+03  0.47000000000E+01 0. -1.
         -5    1    4    4    0  502  0.22074622356E+02  0.12949529456E+02 -0.23973246260E+02  0.35380585093E+02  0.47000000000E+01 0. -1.
<mgrwt>
<rscale>  0 0.26118094E+03</rscale>
<asrwt>0</asrwt>
<pdfrwt beam="1">  1       21 0.29385346E-01 0.26118094E+03</pdfrwt>
<pdfrwt beam="2">  1       21 0.13736163E-01 0.26118094E+03</pdfrwt>
<totfact> 0.50389917E+05</totfact>
</mgrwt>
</event>
<event>
 8    1  0.9529436E-006  0.2921899E+03  0.7546771E-02  0.1089211E+00
         21   -1    0    0  504  503  0.00000000000E+00  0.00000000000E+00  0.46726221678E+02  0.46726221678E+02  0.00000000000E+00 0. -1.
         21   -1    0    0  503  504 -0.00000000000E+00 -0.00000000000E+00 -0.45678294732E+03  0.45678294732E+03  0.00000000000E+00 0. -1.
         25    2    1    2    0    0  0.67998037923E+02 -0.13742606501E+02 -0.15292974591E+03  0.20931427134E+03  0.12494944821E+03 0.  0.
         25    2    1    2    0    0 -0.67998037923E+02  0.13742606501E+02 -0.25712697973E+03  0.29419489766E+03  0.12499504673E+03 0.  0.
          5    1    3    3  501    0  0.10129819414E+03 -0.46508252410E+01 -0.82767012410E+02  0.13097871069E+03  0.47000000000E+01 0.  1.
         -5    1    3    3    0  501 -0.33300156212E+02 -0.90917812603E+01 -0.70162733495E+02  0.78335560646E+02  0.47000000000E+01 0.  1.
          5    1    4    4  502    0  0.35498174756E+02 -0.34475655079E+00 -0.43419604265E+02  0.56281358394E+02  0.47000000000E+01 0. -1.
         -5    1    4    4    0  502 -0.10349621268E+03  0.14087363052E+02 -0.21370737547E+03  0.23791353926E+03  0.47000000000E+01 0. -1.
<mgrwt>
<rscale>  0 0.29218995E+03</rscale>
<asrwt>0</asrwt>
<pdfrwt beam="1">  1       21 0.71886494E-02 0.29218995E+03</pdfrwt>
<pdfrwt beam="2">  1       21 0.70274301E-01 0.29218995E+03</pdfrwt>
<totfact> 0.25858523E+05</totfact>
</mgrwt>
</event>
<event>
 8    1  0.9529436E-006  0.3402170E+03  0.7546771E-02  0.1066704E+00
         21   -1    0    0  504  503  0.00000000000E+00  0.00000000000E+00  0.41911927445E+02  0.41911927445E+02  0.00000000000E+00 0.  1.
         21   -1    0    0  503  504 -0.00000000000E+00 -0.00000000000E+00 -0.69042146275E+03  0.69042146275E+03  0.00000000000E+00 0.  1.
         25    2    1    2    0    0  0.67462209139E+02 -0.77794749277E+02 -0.43632258317E+03  0.46540888412E+03  0.12499944063E+03 0.  0.
         25    2    1    2    0    0 -0.67462209139E+02  0.77794749277E+02 -0.21218695214E+03  0.26692450608E+03  0.12498886594E+03 0.  0.
          5    1    3    3  501    0  0.13243760139E+02 -0.10158762679E+03 -0.27659293419E+03  0.29499353271E+03  0.47000000000E+01 0.  1.
         -5    1    3    3    0  501  0.54218449000E+02  0.23792877510E+02 -0.15972964898E+03  0.17041535141E+03  0.47000000000E+01 0.  1.
          5    1    4    4  502    0 -0.85507376382E+02  0.82039290186E+02 -0.21692189463E+03  0.24722288511E+03  0.47000000000E+01 0. -1.
         -5    1    4    4    0  502  0.18045167244E+02 -0.42445409088E+01  0.47349424940E+01  0.19701620969E+02  0.47000000000E+01 0. -1.
<mgrwt>
<rscale>  0 0.34021696E+03</rscale>
<asrwt>0</asrwt>
<pdfrwt beam="1">  1       21 0.64479895E-02 0.34021696E+03</pdfrwt>
<pdfrwt beam="2">  1       21 0.10621868E+00 0.34021696E+03</pdfrwt>
<totfact> 0.11797845E+05</totfact>
</mgrwt>
</event>
<event>
 8    1  0.9529436E-006  0.3606761E+03  0.7546771E-02  0.1058316E+00
         21   -1    0    0  504  503  0.00000000000E+00  0.00000000000E+00  0.62946455520E+02  0.62946455520E+02  0.00000000000E+00 0.  1.
         21   -1    0    0  503  504 -0.00000000000E+00 -0.00000000000E+00 -0.51665821886E+03  0.51665821886E+03  0.00000000000E+00 0.  1.
         25    2    1    2    0    0 -0.96697085785E+01  0.33509438061E+02 -0.42807689910E+03  0.44731673104E+03  0.12500416242E+03 0.  0.
         25    2    1    2    0    0  0.96697085785E+01 -0.33509438061E+02 -0.25634864246E+02  0.13228794335E+03  0.12500627179E+03 0.  0.
          5    1    3    3  501    0  0.32553184015E+02  0.50045650811E+02 -0.10368407712E+03  0.11973618836E+03  0.47000000000E+01 0. -1.
         -5    1    3    3    0  501 -0.42222892594E+02 -0.16536212751E+02 -0.32439282198E+03  0.32758054268E+03  0.47000000000E+01 0. -1.
          5    1    4    4  502    0  0.69026603555E+01 -0.44888233739E+02  0.42870334382E+02  0.62630310699E+02  0.47000000000E+01 0.  1.
         -5    1    4    4    0  502  0.27670482230E+01  0.11378795679E+02 -0.68505198628E+02  0.69657632647E+02  0.47000000000E+01 0.  1.
<mgrwt>
<rscale>  0 0.36067605E+03</rscale>
<asrwt>0</asrwt>
<pdfrwt beam="1">  1       21 0.96840695E-02 0.36067605E+03</pdfrwt>
<pdfrwt beam="2">  1       21 0.79485884E-01 0.36067605E+03</pdfrwt>
<totfact> 0.11385509E+05</totfact>
</mgrwt>
</event>
<event>
 8    1  0.9529436E-006  0.2851610E+03  0.7546771E-02  0.1092903E+00
         21   -1    0    0  504  503  0.00000000000E+00  0.00000000000E+00  0.34148499568E+03  0.34148499568E+03  0.00000000000E+00 0.  1.
         21   -1    0    0  503  504 -0.00000000000E+00 -0.00000000000E+00 -0.59531762529E+02  0.59531762529E+02  0.00000000000E+00 0.  1.
         25    2    1    2    0    0 -0.38460705119E+02  0.53698470857E+02  0.16672105273E+03  0.21859386120E+03  0.12499846046E+03 0.  0.
         25    2    1    2    0    0  0.38460705119E+02 -0.53698470857E+02  0.11523218041E+03  0.18242289701E+03  0.12504761629E+03 0.  0.
          5    1    3    3  501    0 -0.49624734096E+02  0.42292364091E+02  0.16455739780E+02  0.67410234136E+02  0.47000000000E+01 0. -1.
         -5    1    3    3    0  501  0.11164028977E+02  0.11406106766E+02  0.15026531295E+03  0.15118362706E+03  0.47000000000E+01 0. -1.
          5    1    4    4  502    0  0.97219183489E+01  0.39039503137E+02  0.54143102064E+02  0.67617778747E+02  0.47000000000E+01 0.  1.
         -5    1    4    4    0  502  0.28738786770E+02 -0.92737973994E+02  0.61089078350E+02  0.11480511826E+03  0.47000000000E+01 0.  1.
<mgrwt>
<rscale>  0 0.28516103E+03</rscale>
<asrwt>0</asrwt>
<pdfrwt beam="1">  1       21 0.52536152E-01 0.28516103E+03</pdfrwt>
<pdfrwt beam="2">  1       21 0.91587329E-02 0.28516103E+03</pdfrwt>
<totfact> 0.31841276E+05</totfact>
</mgrwt>
</event>
<event>
 8    1  0.9529436E-006  0.2669718E+03  0.7546771E-02  0.1103025E+00
         21   -1    0    0  504  503  0.00000000000E+00  0.00000000000E+00  0.11209900030E+03  0.11209900030E+03  0.00000000000E+00 0. -1.
         21   -1    0    0  503  504 -0.00000000000E+00 -0.00000000000E+00 -0.15895310455E+03  0.15895310455E+03  0.00000000000E+00 0. -1.
         25    2    1    2    0    0  0.24229900821E+02 -0.40079912584E+02 -0.23772175494E+02  0.13558547505E+03  0.12499926891E+03 0.  0.
         25    2    1    2    0    0 -0.24229900821E+02  0.40079912584E+02 -0.23081928763E+02  0.13546662981E+03  0.12499977948E+03 0.  0.
          5    1    3    3  501    0  0.19941315565E+02 -0.13085486595E+01 -0.71140335052E+02  0.74043268683E+02  0.47000000000E+01 0. -1.
         -5    1    3    3    0  501  0.42885852563E+01 -0.38771363924E+02  0.47368159558E+02  0.61542206363E+02  0.47000000000E+01 0. -1.
          5    1    4    4  502    0 -0.44178727723E+02  0.77377839421E+02 -0.25626566567E+02  0.92832650133E+02  0.47000000000E+01 0. -1.
         -5    1    4    4    0  502  0.19948826902E+02 -0.37297926837E+02  0.25446378042E+01  0.42633979672E+02  0.47000000000E+01 0. -1.
<mgrwt>
<rscale>  0 0.26697179E+03</rscale>
<asrwt>0</asrwt>
<pdfrwt beam="1">  1       21 0.17246000E-01 0.26697179E+03</pdfrwt>
<pdfrwt beam="2">  1       21 0.24454324E-01 0.26697179E+03</pdfrwt>
<totfact> 0.47304247E+05</totfact>
</mgrwt>
</event>
<event>
 8    1  0.9529436E-006  0.3106710E+03  0.7546771E-02  0.1080025E+00
         21   -1    0    0  504  503  0.00000000000E+00  0.00000000000E+00  0.67035536723E+02  0.67035536723E+02  0.00000000000E+00 0.  1.
         21   -1    0    0  503  504 -0.00000000000E+00 -0.00000000000E+00 -0.35994515488E+03  0.35994515488E+03  0.00000000000E+00 0.  1.
         25    2    1    2    0    0 -0.76961477482E+02 -0.23868651135E+02 -0.20808477765E+03  0.25576769707E+03  0.12500023461E+03 0.  0.
         25    2    1    2    0    0  0.76961477482E+02  0.23868651135E+02 -0.84824840508E+02  0.17121299453E+03  0.12500341758E+03 0.  0.
          5    1    3    3  501    0 -0.25775194731E+00 -0.41249158851E+02 -0.15573302325E+03  0.16117203254E+03  0.47000000000E+01 0.  1.
         -5    1    3    3    0  501 -0.76703725535E+02  0.17380507716E+02 -0.52351754400E+02  0.94595664531E+02  0.47000000000E+01 0.  1.
          5    1    4    4  502    0  0.53766096346E+02 -0.35028263653E+02 -0.86392337530E+02  0.10771953562E+03  0.47000000000E+01 0.  1.
         -5    1    4    4    0  502  0.23195381137E+02  0.58896914788E+02  0.15674970219E+01  0.63493458912E+02  0.47000000000E+01 0.  1.
<mgrwt>
<rscale>  0 0.31067099E+03</rscale>
<asrwt>0</asrwt>
<pdfrwt beam="1">  1       21 0.10313159E-01 0.31067099E+03</pdfrwt>
<pdfrwt beam="2">  1       21 0.55376178E-01 0.31067099E+03</pdfrwt>
<totfact> 0.22916868E+05</totfact>
</mgrwt>
</event>
<event>
 8    1  0.9529436E-006  0.3585543E+03  0.7546771E-02  0.1059158E+00
         21   -1    0    0  504  503  0.00000000000E+00  0.00000000000E+00  0.21521891595E+02  0.21521891595E+02  0.00000000000E+00 0.  1.
         21   -1    0    0  503  504 -0.00000000000E+00 -0.00000000000E+00 -0.14933766866E+04  0.14933766866E+04  0.00000000000E+00 0.  1.
         25    2    1    2    0    0 -0.74365706287E+02  0.98157859789E+02 -0.58087661042E+03  0.60680444933E+03  0.12501511705E+03 0.  0.
         25    2    1    2    0    0  0.74365706287E+02 -0.98157859789E+02 -0.89097818458E+03  0.90809412886E+03  0.12501039058E+03 0.  0.
          5    1    3    3  501    0 -0.53037508241E+02  0.12491829569E+03 -0.51268530442E+03  0.53036390266E+03  0.47000000000E+01 0. -1.
         -5    1    3    3    0  501 -0.21328198045E+02 -0.26760435904E+02 -0.68191305998E+02  0.76440546671E+02  0.47000000000E+01 0. -1.
          5    1    4    4  502    0  0.10298176738E+03 -0.41966456650E+02 -0.52168760811E+03  0.53342898155E+03  0.47000000000E+01 0. -1.
         -5    1    4    4    0  502 -0.28616061091E+02 -0.56191403139E+02 -0.36929057647E+03  0.37466514731E+03  0.47000000000E+01 0. -1.
<mgrwt>
<rscale>  0 0.35855427E+03</rscale>
<asrwt>0</asrwt>
<pdfrwt beam="1">  1       21 0.33110602E-02 0.35855427E+03</pdfrwt>
<pdfrwt beam="2">  1       21 0.22975026E+00 0.35855427E+03</pdfrwt>
<totfact> 0.43076673E+04</totfact>
</mgrwt>
</event>
<event>
 8    1  0.9529436E-006  0.3650342E+03  0.7546771E-02  0.1056608E+00
         21   -1    0    0  504  503  0.00000000000E+00  0.00000000000E+00  0.82511013840E+02  0.82511013840E+02  0.00000000000E+00 0. -1.
         21   -1    0    0  503  504 -0.00000000000E+00 -0.00000000000E+00 -0.40373398220E+03  0.40373398220E+03  0.00000000000E+00 0. -1.
         25    2    1    2    0    0 -0.92963712250E+01  0.51764575447E+01  0.15975178045E+02  0.12646533024E+03  0.12500022084E+03 0.  0.
         25    2    1    2    0    0  0.92963712250E+01 -0.51764575447E+01 -0.33719814641E+03  0.35977966580E+03  0.12500239898E+03 0.  0.
          5    1    3    3  501    0  0.44703131347E+02  0.13921578802E+02  0.44349928921E+02  0.64662094800E+02  0.47000000000E+01 0. -1.
         -5    1    3    3    0  501 -0.53999502572E+02 -0.87451212574E+01 -0.28374750877E+02  0.61803235443E+02  0.47000000000E+01 0. -1.
          5    1    4    4  502    0  0.40888260231E+02 -0.24125577520E+02 -0.31024594801E+03  0.31389254781E+03  0.47000000000E+01 0. -1.
         -5    1    4    4    0  502 -0.31591889006E+02  0.18949119975E+02 -0.26952198397E+02  0.45887117987E+02  0.47000000000E+01 0. -1.
<mgrwt>
<rscale>  0 0.36503425E+03</rscale>
<asrwt>0</asrwt>
<pdfrwt beam="1">  1       21 0.12694002E-01 0.36503425E+03</pdfrwt>
<pdfrwt beam="2">  1       21 0.62112919E-01 0.36503425E+03</pdfrwt>
<totfact> 0.12136279E+05</totfact>
</mgrwt>
</event>
<event>
 8    1  0.9529436E-006  0.3574408E+03  0.7546771E-02  0.1059602E+00
         21   -1    0    0  504  503  0.00000000000E+00  0.00000000000E+00  0.61788915662E+02  0.61788915662E+02  0.00000000000E+00 0. -1.
         21   -1    0    0  503  504 -0.00000000000E+00 -0.00000000000E+00 -0.51693710247E+03  0.51693710247E+03  0.00000000000E+00 0. -1.
         25    2    1    2    0    0 -0.84159701106E+02  0.69508260022E+02 -0.12013012135E+03  0.20485912210E+03  0.12498704073E+03 0.  0.
         25    2    1    2    0    0  0.84159701106E+02 -0.69508260022E+02 -0.33501806546E+03  0.37386689603E+03  0.12500039305E+03 0.  0.
          5    1    3    3  501    0 -0.63626300986E+02  0.10212946193E+03 -0.11347634179E+03  0.16546209027E+03  0.47000000000E+01 0.  1.
         -5    1    3    3    0  501 -0.20533400120E+02 -0.32621201906E+02 -0.66537795568E+01  0.39397031826E+02  0.47000000000E+01 0.  1.
          5    1    4    4  502    0  0.78393135789E+02 -0.94798741945E+02 -0.32145519480E+03  0.34422059420E+03  0.47000000000E+01 0.  1.
         -5    1    4    4    0  502  0.57665653167E+01  0.25290481922E+02 -0.13562870663E+02  0.29646301827E+02  0.47000000000E+01 0.  1.
<mgrwt>
<rscale>  0 0.35744081E+03</rscale>
<asrwt>0</asrwt>
<pdfrwt beam="1">  1       21 0.95059874E-02 0.35744081E+03</pdfrwt>
<pdfrwt beam="2">  1       21 0.79528782E-01 0.35744081E+03</pdfrwt>
<totfact> 0.11763436E+05</totfact>
</mgrwt>
</event>
<event>
 8    1  0.9529436E-006  0.3191247E+03  0.7546771E-02  0.1076053E+00
         21   -1    0    0  504  503  0.00000000000E+00  0.00000000000E+00  0.76863413059E+03  0.76863413059E+03  0.00000000000E+00 0.  1.
         21   -1    0    0  503  504 -0.00000000000E+00 -0.00000000000E+00 -0.33123879357E+02  0.33123879357E+02  0.00000000000E+00 0.  1.
         25    2    1    2    0    0 -0.52766953789E+02  0.63241526327E+02  0.50653288164E+03  0.52818897264E+03  0.12499675423E+03 0.  0.
         25    2    1    2    0    0  0.52766953789E+02 -0.63241526327E+02  0.22897736959E+03  0.27356903731E+03  0.12500216128E+03 0.  0.
          5    1    3    3  501    0  0.20110810001E+02  0.61401096289E+02  0.34324549210E+03  0.34930516336E+03  0.47000000000E+01 0. -1.
         -5    1    3    3    0  501 -0.72877763790E+02  0.18404300374E+01  0.16328738954E+03  0.17888380927E+03  0.47000000000E+01 0. -1.
          5    1    4    4  502    0 -0.39591945365E+02 -0.23791217870E+02  0.49623487886E+02  0.67956785794E+02  0.47000000000E+01 0.  1.
         -5    1    4    4    0  502  0.92358899155E+02 -0.39450308457E+02  0.17935388171E+03  0.20561225152E+03  0.47000000000E+01 0.  1.
<mgrwt>
<rscale>  0 0.31912470E+03</rscale>
<asrwt>0</asrwt>
<pdfrwt beam="1">  1       21 0.11825139E+00 0.31912470E+03</pdfrwt>
<pdfrwt beam="2">  1       21 0.50959820E-02 0.31912470E+03</pdfrwt>
<totfact> 0.13668882E+05</totfact>
</mgrwt>
</event>
<event>
 8    1  0.9529436E-006  0.2723976E+03  0.7546771E-02  0.1099915E+00
         21   -1    0    0  504  503  0.00000000000E+00  0.00000000000E+00  0.29504763761E+03  0.29504763761E+03  0.00000000000E+00 0.  1.
         21   -1    0    0  503  504 -0.00000000000E+00 -0.00000000000E+00 -0.62871605447E+02  0.62871605447E+02  0.00000000000E+00 0.  1.
         25    2    1    2    0    0 -0.23743965697E+02 -0.21987812059E+02  0.17289177700E+03  0.21578639755E+03  0.12499985211E+03 0.  0.
         25    2    1    2    0    0  0.23743965697E+02  0.21987812059E+02  0.59284255159E+02  0.14213284550E+03  0.12505951813E+03 0.  0.
          5    1    3    3  501    0  0.22587228684E+02 -0.53461759747E+02  0.37676034038E+02  0.69353559359E+02  0.47000000000E+01 0. -1.
         -5    1    3    3    0  501 -0.46331194381E+02  0.31473947688E+02  0.13521574296E+03  0.14643283819E+03  0.47000000000E+01 0. -1.
          5    1    4    4  502    0  0.73362872439E+02  0.90330700853E+01  0.51114791401E+02  0.89991773555E+02  0.47000000000E+01 0. -1.
         -5    1    4    4    0  502 -0.49618906742E+02  0.12954741974E+02  0.81694637582E+01  0.52141071949E+02  0.47000000000E+01 0. -1.
<mgrwt>
<rscale>  0 0.27239764E+03</rscale>
<asrwt>0</asrwt>
<pdfrwt beam="1">  1       21 0.45391943E-01 0.27239764E+03</pdfrwt>
<pdfrwt beam="2">  1       21 0.96725549E-02 0.27239764E+03</pdfrwt>
<totfact> 0.39367352E+05</totfact>
</mgrwt>
</event>
<event>
 8    1  0.9529436E-006  0.3180932E+03  0.7546771E-02  0.1076530E+00
         21   -1    0    0  504  503  0.00000000000E+00  0.00000000000E+00  0.77311045776E+02  0.77311045776E+02  0.00000000000E+00 0.  1.
         21   -1    0    0  503  504 -0.00000000000E+00 -0.00000000000E+00 -0.32719543422E+03  0.32719543422E+03  0.00000000000E+00 0.  1.
         25    2    1    2    0    0  0.33011083550E+02 -0.68376699653E+02 -0.20440936958E+03  0.25134351956E+03  0.12500107903E+03 0.  0.
         25    2    1    2    0    0 -0.33011083550E+02  0.68376699653E+02 -0.45475018861E+02  0.15316296044E+03  0.12500324163E+03 0.  0.
          5    1    3    3  501    0 -0.12391525327E-01  0.35753313972E+02 -0.63011308705E+02  0.72600376295E+02  0.47000000000E+01 0.  1.
         -5    1    3    3    0  501  0.33023475075E+02 -0.10413001362E+03 -0.14139806088E+03  0.17874314326E+03  0.47000000000E+01 0.  1.
          5    1    4    4  502    0 -0.86522776826E+01 -0.22970316262E+02 -0.52604206140E+02  0.58239074872E+02  0.47000000000E+01 0.  1.
         -5    1    4    4    0  502 -0.24358805868E+02  0.91347015915E+02  0.71291872792E+01  0.94923885567E+02  0.47000000000E+01 0.  1.
<mgrwt>
<rscale>  0 0.31809320E+03</rscale>
<asrwt>0</asrwt>
<pdfrwt beam="1">  1       21 0.11894007E-01 0.31809320E+03</pdfrwt>
<pdfrwt beam="2">  1       21 0.50337760E-01 0.31809320E+03</pdfrwt>
<totfact> 0.21688646E+05</totfact>
</mgrwt>
</event>
<event>
 8    1  0.9529436E-006  0.2594796E+03  0.7546771E-02  0.1107456E+00
         21   -1    0    0  504  503  0.00000000000E+00  0.00000000000E+00  0.17214772325E+02  0.17214772325E+02  0.00000000000E+00 0.  1.
         21   -1    0    0  503  504 -0.00000000000E+00 -0.00000000000E+00 -0.97778919957E+03  0.97778919957E+03  0.00000000000E+00 0.  1.
         25    2    1    2    0    0  0.60754878750E+01 -0.22992108962E+02 -0.57737885018E+03  0.59123579540E+03  0.12501152147E+03 0.  0.
         25    2    1    2    0    0 -0.60754878750E+01  0.22992108962E+02 -0.38319557707E+03  0.40376817650E+03  0.12499736573E+03 0.  0.
          5    1    3    3  501    0 -0.24204074204E+02 -0.63777919551E+02 -0.42698517053E+03  0.43242558444E+03  0.47000000000E+01 0. -1.
         -5    1    3    3    0  501  0.30279562079E+02  0.40785810589E+02 -0.15039367965E+03  0.15881021096E+03  0.47000000000E+01 0. -1.
          5    1    4    4  502    0 -0.57873264952E+02  0.27383854087E+02 -0.28932893931E+03  0.29636550978E+03  0.47000000000E+01 0.  1.
         -5    1    4    4    0  502  0.51797777077E+02 -0.43917451248E+01 -0.93866637757E+02  0.10740266672E+03  0.47000000000E+01 0.  1.
<mgrwt>
<rscale>  0 0.25947962E+03</rscale>
<asrwt>0</asrwt>
<pdfrwt beam="1">  1       21 0.26484257E-02 0.25947962E+03</pdfrwt>
<pdfrwt beam="2">  1       21 0.15042915E+00 0.25947962E+03</pdfrwt>
<totfact> 0.22503030E+05</totfact>
</mgrwt>
</event>
<event>
 8    1  0.9529436E-006  0.2841842E+03  0.7546771E-02  0.1093425E+00
         21   -1    0    0  504  503  0.00000000000E+00  0.00000000000E+00  0.10613068722E+03  0.10613068722E+03  0.00000000000E+00 0.  1.
         21   -1    0    0  503  504 -0.00000000000E+00 -0.00000000000E+00 -0.19023871758E+03  0.19023871758E+03  0.00000000000E+00 0.  1.
         25    2    1    2    0    0  0.42704796865E+02  0.51067478048E+02 -0.54074505907E+02  0.15159580970E+03  0.12500260134E+03 0.  0.
         25    2    1    2    0    0 -0.42704796865E+02 -0.51067478048E+02 -0.30033524453E+02  0.14477359510E+03  0.12500317699E+03 0.  0.
          5    1    3    3  501    0  0.35771630478E+02  0.32167828242E+02 -0.94526071657E+02  0.10616801281E+03  0.47000000000E+01 0. -1.
         -5    1    3    3    0  501  0.69331663878E+01  0.18899649807E+02  0.40451565750E+02  0.45427796893E+02  0.47000000000E+01 0. -1.
          5    1    4    4  502    0 -0.71102460253E+02 -0.62038310832E+02 -0.51140150764E+02  0.10743238285E+03  0.47000000000E+01 0. -1.
         -5    1    4    4    0  502  0.28397663387E+02  0.10970832784E+02  0.21106626311E+02  0.37341212247E+02  0.47000000000E+01 0. -1.
<mgrwt>
<rscale>  0 0.28418421E+03</rscale>
<asrwt>0</asrwt>
<pdfrwt beam="1">  1       21 0.16327798E-01 0.28418421E+03</pdfrwt>
<pdfrwt beam="2">  1       21 0.29267495E-01 0.28418421E+03</pdfrwt>
<totfact> 0.36831453E+05</totfact>
</mgrwt>
</event>
<event>
 8    1  0.9529436E-006  0.4950933E+03  0.7546771E-02  0.1015068E+00
         21   -1    0    0  504  503  0.00000000000E+00  0.00000000000E+00  0.35588861490E+03  0.35588861490E+03  0.00000000000E+00 0. -1.
         21   -1    0    0  503  504 -0.00000000000E+00 -0.00000000000E+00 -0.17218688005E+03  0.17218688005E+03  0.00000000000E+00 0. -1.
         25    2    1    2    0    0 -0.39717623888E+02 -0.20212041328E+03  0.15240988437E+03  0.28510223303E+03  0.12499743724E+03 0.  0.
         25    2    1    2    0    0  0.39717623888E+02  0.20212041328E+03  0.31291850490E+02  0.24297326192E+03  0.12500669978E+03 0.  0.
          5    1    3    3  501    0  0.68741798348E-01 -0.26025394483E+02 -0.21727441427E+02  0.34227147038E+02  0.47000000000E+01 0. -1.
         -5    1    3    3    0  501 -0.39786365686E+02 -0.17609501879E+03  0.17413732579E+03  0.25087508600E+03  0.47000000000E+01 0. -1.
          5    1    4    4  502    0 -0.15075964504E+02  0.12950276870E+03  0.65109247525E+02  0.14580657022E+03  0.47000000000E+01 0. -1.
         -5    1    4    4    0  502  0.54793588392E+02  0.72617644575E+02 -0.33817397035E+02  0.97166691694E+02  0.47000000000E+01 0. -1.
<mgrwt>
<rscale>  0 0.49509333E+03</rscale>
<asrwt>0</asrwt>
<pdfrwt beam="1">  1       21 0.54752095E-01 0.49509333E+03</pdfrwt>
<pdfrwt beam="2">  1       21 0.26490289E-01 0.49509333E+03</pdfrwt>
<totfact> 0.38741459E+04</totfact>
</mgrwt>
</event>
<event>
 8    1  0.9529436E-006  0.2848567E+03  0.7546771E-02  0.1093066E+00
         21   -1    0    0  504  503  0.00000000000E+00  0.00000000000E+00  0.21162559884E+03  0.21162559884E+03  0.00000000000E+00 0. -1.
         21   -1    0    0  503  504 -0.00000000000E+00 -0.00000000000E+00 -0.95857155151E+02  0.95857155151E+02  0.00000000000E+00 0. -1.
         25    2    1    2    0    0 -0.14572622432E+02 -0.35741352704E+02 -0.28945725981E+01  0.13085733274E+03  0.12500182944E+03 0.  0.
         25    2    1    2    0    0  0.14572622432E+02  0.35741352704E+02  0.11866301629E+03  0.17662542125E+03  0.12500328948E+03 0.  0.
          5    1    3    3  501    0  0.33478624266E+02  0.19764395420E+01 -0.45144862261E+02  0.56434680690E+02  0.47000000000E+01 0.  1.
         -5    1    3    3    0  501 -0.48051246698E+02 -0.37717792246E+02  0.42250289663E+02  0.74422652047E+02  0.47000000000E+01 0.  1.
          5    1    4    4  502    0 -0.15043792192E+02  0.62558800613E+02  0.12014350316E+03  0.13636887683E+03  0.47000000000E+01 0. -1.
         -5    1    4    4    0  502  0.29616414624E+02 -0.26817447909E+02 -0.14804868683E+01  0.40256544423E+02  0.47000000000E+01 0. -1.
<mgrwt>
<rscale>  0 0.28485665E+03</rscale>
<asrwt>0</asrwt>
<pdfrwt beam="1">  1       21 0.32557784E-01 0.28485665E+03</pdfrwt>
<pdfrwt beam="2">  1       21 0.14747255E-01 0.28485665E+03</pdfrwt>
<totfact> 0.36000241E+05</totfact>
</mgrwt>
</event>
<event>
 8    1  0.9529436E-006  0.3415330E+03  0.7546771E-02  0.1066145E+00
         21   -1    0    0  504  503  0.00000000000E+00  0.00000000000E+00  0.11939348702E+04  0.11939348702E+04  0.00000000000E+00 0. -1.
         21   -1    0    0  503  504 -0.00000000000E+00 -0.00000000000E+00 -0.24424440271E+02  0.24424440271E+02  0.00000000000E+00 0. -1.
         25    2    1    2    0    0 -0.12666503238E+02  0.29411408613E+02  0.98376419131E+03  0.99219116465E+03  0.12500340733E+03 0.  0.
         25    2    1    2    0    0  0.12666503238E+02 -0.29411408613E+02  0.18574623864E+03  0.22616814584E+03  0.12499957505E+03 0.  0.
          5    1    3    3  501    0 -0.17623940584E+02  0.75697533082E+02  0.73081444607E+03  0.73495072242E+03  0.47000000000E+01 0. -1.
         -5    1    3    3    0  501  0.49574373459E+01 -0.46286124469E+02  0.25294974524E+03  0.25724044223E+03  0.47000000000E+01 0. -1.
          5    1    4    4  502    0 -0.42519908658E+02 -0.29135586558E+02  0.27713980550E+02  0.58710984954E+02  0.47000000000E+01 0. -1.
         -5    1    4    4    0  502  0.55186411896E+02 -0.27582205482E+00  0.15803225809E+03  0.16745716089E+03  0.47000000000E+01 0. -1.
<mgrwt>
<rscale>  0 0.34153296E+03</rscale>
<asrwt>0</asrwt>
<pdfrwt beam="1">  1       21 0.18368224E+00 0.34153296E+03</pdfrwt>
<pdfrwt beam="2">  1       21 0.37576071E-02 0.34153296E+03</pdfrwt>
<totfact> 0.69890314E+04</totfact>
</mgrwt>
</event>
<event>
 8    1  0.9529436E-006  0.2863881E+03  0.7546771E-02  0.1092250E+00
         21   -1    0    0  504  503  0.00000000000E+00  0.00000000000E+00  0.45810585715E+02  0.45810585715E+02  0.00000000000E+00 0. -1.
         21   -1    0    0  503  504 -0.00000000000E+00 -0.00000000000E+00 -0.44759377889E+03  0.44759377889E+03  0.00000000000E+00 0. -1.
         25    2    1    2    0    0 -0.17244039861E+02  0.65256542228E+02 -0.23182310811E+03  0.27188793084E+03  0.12500128106E+03 0.  0.
         25    2    1    2    0    0  0.17244039861E+02 -0.65256542228E+02 -0.16996008506E+03  0.22151643377E+03  0.12500930645E+03 0.  0.
          5    1    3    3  501    0 -0.26668113995E+02 -0.32089152725E+02 -0.49271669043E+02  0.64735534268E+02  0.47000000000E+01 0.  1.
         -5    1    3    3    0  501  0.94240741341E+01  0.97345694953E+02 -0.18255143906E+03  0.20715239657E+03  0.47000000000E+01 0.  1.
          5    1    4    4  502    0 -0.39911261113E+02  0.80536277358E+01 -0.89677730185E+02  0.98599974516E+02  0.47000000000E+01 0.  1.
         -5    1    4    4    0  502  0.57155300974E+02 -0.73310169964E+02 -0.80282354878E+02  0.12291645925E+03  0.47000000000E+01 0.  1.
<mgrwt>
<rscale>  0 0.28638808E+03</rscale>
<asrwt>0</asrwt>
<pdfrwt beam="1">  1       21 0.70477821E-02 0.28638808E+03</pdfrwt>
<pdfrwt beam="2">  1       21 0.68860584E-01 0.28638808E+03</pdfrwt>
<totfact> 0.28040730E+05</totfact>
</mgrwt>
</event>
<event>
 8    1  0.9529436E-006  0.2954949E+03  0.7546771E-02  0.1087515E+00
         21   -1    0    0  504  503  0.00000000000E+00  0.00000000000E+00  0.18701569807E+02  0.18701569807E+02  0.00000000000E+00 0. -1.
         21   -1    0    0  503  504 -0.00000000000E+00 -0.00000000000E+00 -0.11672448523E+04  0.11672448523E+04  0.00000000000E+00 0. -1.
         25    2    1    2    0    0  0.55778903687E+02  0.14839021745E+02 -0.35929526342E+03  0.38477941972E+03  0.12502252942E+03 0.  0.
         25    2    1    2    0    0 -0.55778903687E+02 -0.14839021745E+02 -0.78924801907E+03  0.80116700238E+03  0.12499858975E+03 0.  0.
          5    1    3    3  501    0 -0.19298336255E+01 -0.95336738691E+01  0.71718361585E+01  0.12966897437E+02  0.47000000000E+01 0.  1.
         -5    1    3    3    0  501  0.57708737313E+02  0.24372695614E+02 -0.36646709958E+03  0.37181252228E+03  0.47000000000E+01 0.  1.
          5    1    4    4  502    0  0.82198436145E+01 -0.28886568630E+02 -0.60133320620E+03  0.60210108334E+03  0.47000000000E+01 0. -1.
         -5    1    4    4    0  502 -0.63998747302E+02  0.14047546885E+02 -0.18791481287E+03  0.19906591904E+03  0.47000000000E+01 0. -1.
<mgrwt>
<rscale>  0 0.29549491E+03</rscale>
<asrwt>0</asrwt>
<pdfrwt beam="1">  1       21 0.28771649E-02 0.29549491E+03</pdfrwt>
<pdfrwt beam="2">  1       21 0.17957611E+00 0.29549491E+03</pdfrwt>
<totfact> 0.11873725E+05</totfact>
</mgrwt>
</event>
<event>
 8    1  0.9529436E-006  0.6051747E+03  0.7546771E-02  0.9894728E-01
         21   -1    0    0  504  503  0.00000000000E+00  0.00000000000E+00  0.85180924536E+02  0.85180924536E+02  0.00000000000E+00 0.  1.
         21   -1    0    0  503  504 -0.00000000000E+00 -0.00000000000E+00 -0.10748779614E+04  0.10748779614E+04  0.00000000000E+00 0.  1.
         25    2    1    2    0    0  0.21003946381E+02 -0.13270991044E+03 -0.33669958983E+02  0.18657740154E+03  0.12499749811E+03 0.  0.
         25    2    1    2    0    0 -0.21003946381E+02  0.13270991044E+03 -0.95602707786E+03  0.97348148438E+03  0.12500136292E+03 0.  0.
          5    1    3    3  501    0  0.61211629424E+02 -0.12036757619E+03 -0.45600325703E+02  0.14260679044E+03  0.47000000000E+01 0.  1.
         -5    1    3    3    0  501 -0.40207683042E+02 -0.12342334253E+02  0.11930366720E+02  0.43970611100E+02  0.47000000000E+01 0.  1.
          5    1    4    4  502    0  0.14353666246E+02  0.18448903499E+02 -0.54133243385E+03  0.54185725400E+03  0.47000000000E+01 0.  1.
         -5    1    4    4    0  502 -0.35357612628E+02  0.11426100694E+03 -0.41469464401E+03  0.43162423038E+03  0.47000000000E+01 0.  1.
<mgrwt>
<rscale>  0 0.60517468E+03</rscale>
<asrwt>0</asrwt>
<pdfrwt beam="1">  1       21 0.13104758E-01 0.60517468E+03</pdfrwt>
<pdfrwt beam="2">  1       21 0.16536584E+00 0.60517468E+03</pdfrwt>
<totfact> 0.97071307E+03</totfact>
</mgrwt>
</event>
<event>
 8    1  0.9529436E-006  0.3742695E+03  0.7546771E-02  0.1053072E+00
         21   -1    0    0  504  503  0.00000000000E+00  0.00000000000E+00  0.70942949635E+02  0.70942949635E+02  0.00000000000E+00 0.  1.
         21   -1    0    0  503  504 -0.00000000000E+00 -0.00000000000E+00 -0.49362783785E+03  0.49362783785E+03  0.00000000000E+00 0.  1.
         25    2    1    2    0    0 -0.86493531744E+02 -0.59301657486E+02 -0.34957421531E+03  0.38577957378E+03  0.12500371963E+03 0.  0.
         25    2    1    2    0    0  0.86493531744E+02  0.59301657486E+02 -0.73110672906E+02  0.17879121371E+03  0.12499323978E+03 0.  0.
          5    1    3    3  501    0  0.28121747645E+01  0.22994319063E+02 -0.15194011032E+03  0.15376779299E+03  0.47000000000E+01 0.  1.
         -5    1    3    3    0  501 -0.89305706509E+02 -0.82295976550E+02 -0.19763410499E+03  0.23201178079E+03  0.47000000000E+01 0.  1.
          5    1    4    4  502    0  0.45467823098E+02  0.96772323029E+02 -0.53760873899E+02  0.11976863949E+03  0.47000000000E+01 0.  1.
         -5    1    4    4    0  502  0.41025708646E+02 -0.37470665542E+02 -0.19349799006E+02  0.59022574221E+02  0.47000000000E+01 0.  1.
<mgrwt>
<rscale>  0 0.37426950E+03</rscale>
<asrwt>0</asrwt>
<pdfrwt beam="1">  1       21 0.10914300E-01 0.37426950E+03</pdfrwt>
<pdfrwt beam="2">  1       21 0.75942743E-01 0.37426950E+03</pdfrwt>
<totfact> 0.10163144E+05</totfact>
</mgrwt>
</event>
<event>
 8    1  0.9529436E-006  0.2985484E+03  0.7546771E-02  0.1085968E+00
         21   -1    0    0  504  503  0.00000000000E+00  0.00000000000E+00  0.20250123596E+03  0.20250123596E+03  0.00000000000E+00 0. -1.
         21   -1    0    0  503  504 -0.00000000000E+00 -0.00000000000E+00 -0.11003779915E+03  0.11003779915E+03  0.00000000000E+00 0. -1.
         25    2    1    2    0    0 -0.52216092627E+02 -0.78636327524E+01  0.11133829051E+03  0.17551797008E+03  0.12498794278E+03 0.  0.
         25    2    1    2    0    0  0.52216092627E+02  0.78636327524E+01 -0.18874853700E+02  0.13702106503E+03  0.12502061874E+03 0.  0.
          5    1    3    3  501    0 -0.62624286755E+02 -0.57256673208E+02  0.70465264358E+02  0.11039733420E+03  0.47000000000E+01 0. -1.
         -5    1    3    3    0  501  0.10408194129E+02  0.49393040456E+02  0.40873026151E+02  0.65120635879E+02  0.47000000000E+01 0. -1.
          5    1    4    4  502    0  0.44590354716E+02 -0.46152670448E+02 -0.42786858390E+02  0.77273371701E+02  0.47000000000E+01 0.  1.
         -5    1    4    4    0  502  0.76257379103E+01  0.54016303200E+02  0.23912004691E+02  0.59747693331E+02  0.47000000000E+01 0.  1.
<mgrwt>
<rscale>  0 0.29854842E+03</rscale>
<asrwt>0</asrwt>
<pdfrwt beam="1">  1       21 0.31154036E-01 0.29854842E+03</pdfrwt>
<pdfrwt beam="2">  1       21 0.16928892E-01 0.29854842E+03</pdfrwt>
<totfact> 0.30373208E+05</totfact>
</mgrwt>
</event>
<event>
 8    1  0.9529436E-006  0.3361680E+03  0.7546771E-02  0.1068440E+00
         21   -1    0    0  504  503  0.00000000000E+00  0.00000000000E+00  0.34979799804E+02  0.34979799804E+02  0.00000000000E+00 0.  1.
         21   -1    0    0  503  504 -0.00000000000E+00 -0.00000000000E+00 -0.80767270275E+03  0.80767270275E+03  0.00000000000E+00 0.  1.
         25    2    1    2    0    0 -0.92380560409E+02  0.59432839240E+02 -0.44573963234E+03  0.47578982432E+03  0.12500282704E+03 0.  0.
         25    2    1    2    0    0  0.92380560409E+02 -0.59432839240E+02 -0.32695327061E+03  0.36686267823E+03  0.12499341262E+03 0.  0.
          5    1    3    3  501    0 -0.78503002970E+02  0.73986386549E+02 -0.18478549526E+03  0.21401980312E+03  0.47000000000E+01 0.  1.
         -5    1    3    3    0  501 -0.13877557439E+02 -0.14553547309E+02 -0.26095413708E+03  0.26177002120E+03  0.47000000000E+01 0.  1.
          5    1    4    4  502    0  0.61021082873E+02 -0.64676612891E+02 -0.86060055069E+02  0.12383480887E+03  0.47000000000E+01 0.  1.
         -5    1    4    4    0  502  0.31359477536E+02  0.52437736508E+01 -0.24089321554E+03  0.24302786936E+03  0.47000000000E+01 0.  1.
<mgrwt>
<rscale>  0 0.33616799E+03</rscale>
<asrwt>0</asrwt>
<pdfrwt beam="1">  1       21 0.53815075E-02 0.33616799E+03</pdfrwt>
<pdfrwt beam="2">  1       21 0.12425734E+00 0.33616799E+03</pdfrwt>
<totfact> 0.10929820E+05</totfact>
</mgrwt>
</event>
<event>
 8    1  0.9529436E-006  0.6947373E+03  0.7546771E-02  0.9726275E-01
         21   -1    0    0  504  503  0.00000000000E+00  0.00000000000E+00  0.75084225273E+03  0.75084225273E+03  0.00000000000E+00 0. -1.
         21   -1    0    0  503  504 -0.00000000000E+00 -0.00000000000E+00 -0.16070618071E+03  0.16070618071E+03  0.00000000000E+00 0. -1.
         25    2    1    2    0    0 -0.31564820368E+02  0.18754883043E+03 -0.49274126805E+02  0.23284403104E+03  0.12497000256E+03 0.  0.
         25    2    1    2    0    0  0.31564820368E+02 -0.18754883043E+03  0.63941019883E+03  0.67870440240E+03  0.12499344698E+03 0.  0.
          5    1    3    3  501    0 -0.19272288604E+02  0.16936242762E+03  0.86322371569E+01  0.17073856775E+03  0.47000000000E+01 0. -1.
         -5    1    3    3    0  501 -0.12292531764E+02  0.18186402809E+02 -0.57906363962E+02  0.62105463299E+02  0.47000000000E+01 0. -1.
          5    1    4    4  502    0 -0.40320022104E+02 -0.22611677338E+02  0.16048900705E+03  0.16708023078E+03  0.47000000000E+01 0.  1.
         -5    1    4    4    0  502  0.71884842471E+02 -0.16493715309E+03  0.47892119178E+03  0.51162417162E+03  0.47000000000E+01 0.  1.
<mgrwt>
<rscale>  0 0.69473733E+03</rscale>
<asrwt>0</asrwt>
<pdfrwt beam="1">  1       21 0.11551419E+00 0.69473733E+03</pdfrwt>
<pdfrwt beam="2">  1       21 0.24724028E-01 0.69473733E+03</pdfrwt>
<totfact> 0.74609425E+03</totfact>
</mgrwt>
</event>
<event>
 8    1  0.9529436E-006  0.2690903E+03  0.7546771E-02  0.1101801E+00
         21   -1    0    0  504  503  0.00000000000E+00  0.00000000000E+00  0.38585184548E+02  0.38585184548E+02  0.00000000000E+00 0. -1.
         21   -1    0    0  503  504 -0.00000000000E+00 -0.00000000000E+00 -0.46915394255E+03  0.46915394255E+03  0.00000000000E+00 0. -1.
         25    2    1    2    0    0  0.11156898920E+02  0.30966637002E+02 -0.28576493628E+03  0.31363425927E+03  0.12498576230E+03 0.  0.
         25    2    1    2    0    0 -0.11156898920E+02 -0.30966637002E+02 -0.14480382172E+03  0.19410486782E+03  0.12500057571E+03 0.  0.
          5    1    3    3  501    0  0.57661140017E+02  0.37796299359E+02 -0.97321804333E+02  0.11936075951E+03  0.47000000000E+01 0. -1.
         -5    1    3    3    0  501 -0.46504241098E+02 -0.68296623563E+01 -0.18844313195E+03  0.19427349975E+03  0.47000000000E+01 0. -1.
          5    1    4    4  502    0 -0.99180117303E+01 -0.41570780862E+02 -0.16514836587E+03  0.17065336073E+03  0.47000000000E+01 0.  1.
         -5    1    4    4    0  502 -0.12388871895E+01  0.10604143860E+02  0.20344544152E+02  0.23451507099E+02  0.47000000000E+01 0.  1.
<mgrwt>
<rscale>  0 0.26909026E+03</rscale>
<asrwt>0</asrwt>
<pdfrwt beam="1">  1       21 0.59361824E-02 0.26909026E+03</pdfrwt>
<pdfrwt beam="2">  1       21 0.72177528E-01 0.26909026E+03</pdfrwt>
<totfact> 0.34125517E+05</totfact>
</mgrwt>
</event>
<event>
 8    1  0.9529436E-006  0.2730140E+03  0.7546771E-02  0.1099567E+00
         21   -1    0    0  504  503  0.00000000000E+00  0.00000000000E+00  0.10009750293E+03  0.10009750293E+03  0.00000000000E+00 0. -1.
         21   -1    0    0  503  504 -0.00000000000E+00 -0.00000000000E+00 -0.18616012719E+03  0.18616012719E+03  0.00000000000E+00 0. -1.
         25    2    1    2    0    0 -0.31402094972E+02  0.70128372029E+01  0.35527614284E+01  0.12912494928E+03  0.12500143582E+03 0.  0.
         25    2    1    2    0    0  0.31402094972E+02 -0.70128372029E+01 -0.89615385693E+02  0.15713268084E+03  0.12499796231E+03 0.  0.
          5    1    3    3  501    0 -0.16780451506E+02  0.34677781925E+02  0.55843795481E+02  0.68005526288E+02  0.47000000000E+01 0.  1.
         -5    1    3    3    0  501 -0.14621643467E+02 -0.27664944722E+02 -0.52291034053E+02  0.61119422989E+02  0.47000000000E+01 0.  1.
          5    1    4    4  502    0  0.57980295024E+02  0.41593712919E+02 -0.63797535337E+02  0.95833016652E+02  0.47000000000E+01 0.  1.
         -5    1    4    4    0  502 -0.26578200052E+02 -0.48606550122E+02 -0.25817850356E+02  0.61299664190E+02  0.47000000000E+01 0.  1.
<mgrwt>
<rscale>  0 0.27301402E+03</rscale>
<asrwt>0</asrwt>
<pdfrwt beam="1">  1       21 0.15399616E-01 0.27301402E+03</pdfrwt>
<pdfrwt beam="2">  1       21 0.28640019E-01 0.27301402E+03</pdfrwt>
<totfact> 0.42896320E+05</totfact>
</mgrwt>
</event>
<event>
 8    1  0.9529436E-006  0.2813320E+03  0.7546771E-02  0.1094964E+00
         21   -1    0    0  504  503  0.00000000000E+00  0.00000000000E+00  0.22719138158E+03  0.22719138158E+03  0.00000000000E+00 0.  1.
         21   -1    0    0  503  504 -0.00000000000E+00 -0.00000000000E+00 -0.87093628963E+02  0.87093628963E+02  0.00000000000E+00 0.  1.
         25    2    1    2    0    0  0.60509262199E+02  0.13389728240E+02  0.90069244332E+02  0.16606304309E+03  0.12499523940E+03 0.  0.
         25    2    1    2    0    0 -0.60509262199E+02 -0.13389728240E+02  0.50028508287E+02  0.14822196746E+03  0.12500497734E+03 0.  0.
          5    1    3    3  501    0  0.92821695619E+02  0.51364813728E+01  0.93837613578E+02  0.13217351603E+03  0.47000000000E+01 0. -1.
         -5    1    3    3    0  501 -0.32312433420E+02  0.82532468669E+01 -0.37683692457E+01  0.33889527057E+02  0.47000000000E+01 0. -1.
          5    1    4    4  502    0 -0.42578896398E+01  0.37660750976E+02  0.60348029084E+02  0.71417339650E+02  0.47000000000E+01 0.  1.
         -5    1    4    4    0  502 -0.56251372559E+02 -0.51050479216E+02 -0.10319520798E+02  0.76804627806E+02  0.47000000000E+01 0.  1.
<mgrwt>
<rscale>  0 0.28133199E+03</rscale>
<asrwt>0</asrwt>
<pdfrwt beam="1">  1       21 0.34952520E-01 0.28133199E+03</pdfrwt>
<pdfrwt beam="2">  1       21 0.13399020E-01 0.28133199E+03</pdfrwt>
<totfact> 0.37258357E+05</totfact>
</mgrwt>
</event>
<event>
 8    1  0.9529436E-006  0.5073083E+03  0.7546771E-02  0.1011889E+00
         21   -1    0    0  504  503  0.00000000000E+00  0.00000000000E+00  0.89541058175E+02  0.89541058175E+02  0.00000000000E+00 0. -1.
         21   -1    0    0  503  504 -0.00000000000E+00 -0.00000000000E+00 -0.71855773532E+03  0.71855773532E+03  0.00000000000E+00 0. -1.
         25    2    1    2    0    0  0.10726285594E+03  0.54546512101E+02 -0.19762712449E+02  0.17462229106E+03  0.12498694925E+03 0.  0.
         25    2    1    2    0    0 -0.10726285594E+03 -0.54546512101E+02 -0.60925396470E+03  0.63347650244E+03  0.12498577278E+03 0.  0.
          5    1    3    3  501    0  0.18072112588E+02  0.78746590114E+02 -0.10972157702E+02  0.81670710494E+02  0.47000000000E+01 0. -1.
         -5    1    3    3    0  501  0.89190743355E+02 -0.24200078013E+02 -0.87905547464E+01  0.92951580561E+02  0.47000000000E+01 0. -1.
          5    1    4    4  502    0 -0.97291090645E+02 -0.19506999850E+02 -0.20756713020E+03  0.23011363041E+03  0.47000000000E+01 0. -1.
         -5    1    4    4    0  502 -0.99717652983E+01 -0.35039512251E+02 -0.40168683450E+03  0.40336287203E+03  0.47000000000E+01 0. -1.
<mgrwt>
<rscale>  0 0.50730827E+03</rscale>
<asrwt>0</asrwt>
<pdfrwt beam="1">  1       21 0.13775548E-01 0.50730827E+03</pdfrwt>
<pdfrwt beam="2">  1       21 0.11054734E+00 0.50730827E+03</pdfrwt>
<totfact> 0.26368210E+04</totfact>
</mgrwt>
</event>
<event>
 8    1  0.9529436E-006  0.2748452E+03  0.7546771E-02  0.1098538E+00
         21   -1    0    0  504  503  0.00000000000E+00  0.00000000000E+00  0.35489004130E+02  0.35489004130E+02  0.00000000000E+00 0. -1.
         21   -1    0    0  503  504 -0.00000000000E+00 -0.00000000000E+00 -0.53213583579E+03  0.53213583579E+03  0.00000000000E+00 0. -1.
         25    2    1    2    0    0 -0.23222224047E+02  0.48460448073E+02 -0.20844408509E+03  0.24891972003E+03  0.12499761475E+03 0.  0.
         25    2    1    2    0    0  0.23222224047E+02 -0.48460448073E+02 -0.28820274656E+03  0.31870511988E+03  0.12499777437E+03 0.  0.
          5    1    3    3  501    0 -0.52516469383E+02  0.71626170188E+01 -0.18577510549E+03  0.19324534266E+03  0.47000000000E+01 0.  1.
         -5    1    3    3    0  501  0.29294245336E+02  0.41297831054E+02 -0.22668979602E+02  0.55674377372E+02  0.47000000000E+01 0.  1.
          5    1    4    4  502    0  0.16644017459E+02  0.27812233457E+02 -0.17070391365E+02  0.36932802607E+02  0.47000000000E+01 0. -1.
         -5    1    4    4    0  502  0.65782065882E+01 -0.76272681530E+02 -0.27113235520E+03  0.28177231728E+03  0.47000000000E+01 0. -1.
<mgrwt>
<rscale>  0 0.27484520E+03</rscale>
<asrwt>0</asrwt>
<pdfrwt beam="1">  1       21 0.54598470E-02 0.27484520E+03</pdfrwt>
<pdfrwt beam="2">  1       21 0.81867049E-01 0.27484520E+03</pdfrwt>
<totfact> 0.29589896E+05</totfact>
</mgrwt>
</event>
<event>
 8    1  0.9529436E-006  0.3446312E+03  0.7546771E-02  0.1064840E+00
         21   -1    0    0  504  503  0.00000000000E+00  0.00000000000E+00  0.19363980258E+03  0.19363980258E+03  0.00000000000E+00 0.  1.
         21   -1    0    0  503  504 -0.00000000000E+00 -0.00000000000E+00 -0.15333966848E+03  0.15333966848E+03  0.00000000000E+00 0.  1.
         25    2    1    2    0    0 -0.79410780553E+02 -0.80715786433E+02  0.55708853948E+02  0.17762206779E+03  0.12500004924E+03 0.  0.
         25    2    1    2    0    0  0.79410780553E+02  0.80715786433E+02 -0.15408719842E+02  0.16935740327E+03  0.12499356443E+03 0.  0.
          5    1    3    3  501    0 -0.79423666404E+02 -0.41970310273E+02  0.88838319170E+02  0.12642769745E+03  0.47000000000E+01 0. -1.
         -5    1    3    3    0  501  0.12885850676E-01 -0.38745476159E+02 -0.33129465222E+02  0.51194370342E+02  0.47000000000E+01 0. -1.
          5    1    4    4  502    0  0.58135634844E+02  0.91369992012E+01  0.44154890432E+02  0.73722324585E+02  0.47000000000E+01 0. -1.
         -5    1    4    4    0  502  0.21275145709E+02  0.71578787231E+02 -0.59563610274E+02  0.95635078686E+02  0.47000000000E+01 0. -1.
<mgrwt>
<rscale>  0 0.34463118E+03</rscale>
<asrwt>0</asrwt>
<pdfrwt beam="1">  1       21 0.29790739E-01 0.34463118E+03</pdfrwt>
<pdfrwt beam="2">  1       21 0.23590718E-01 0.34463118E+03</pdfrwt>
<totfact> 0.17561864E+05</totfact>
</mgrwt>
</event>
<event>
 8    1  0.9529436E-006  0.2754624E+03  0.7546771E-02  0.1098193E+00
         21   -1    0    0  504  503  0.00000000000E+00  0.00000000000E+00  0.13416723324E+03  0.13416723324E+03  0.00000000000E+00 0. -1.
         21   -1    0    0  503  504 -0.00000000000E+00 -0.00000000000E+00 -0.14138985975E+03  0.14138985975E+03  0.00000000000E+00 0. -1.
         25    2    1    2    0    0  0.40114304118E+02 -0.11199198334E+02 -0.43749193830E+02  0.13883039170E+03  0.12500122503E+03 0.  0.
         25    2    1    2    0    0 -0.40114304118E+02  0.11199198334E+02  0.36526567318E+02  0.13672670129E+03  0.12500168514E+03 0.  0.
          5    1    3    3  501    0 -0.17663551510E+01  0.17643820306E+02 -0.76164692080E+02  0.78342674994E+02  0.47000000000E+01 0.  1.
         -5    1    3    3    0  501  0.41880659269E+02 -0.28843018640E+02  0.32415498250E+02  0.60487716703E+02  0.47000000000E+01 0.  1.
          5    1    4    4  502    0 -0.41745971478E+02  0.64652323847E+02  0.29638112185E+02  0.82602401947E+02  0.47000000000E+01 0.  1.
         -5    1    4    4    0  502  0.16316673599E+01 -0.53453125513E+02  0.68884551324E+01  0.54124299345E+02  0.47000000000E+01 0.  1.
<mgrwt>
<rscale>  0 0.27546242E+03</rscale>
<asrwt>0</asrwt>
<pdfrwt beam="1">  1       21 0.20641113E-01 0.27546242E+03</pdfrwt>
<pdfrwt beam="2">  1       21 0.21752286E-01 0.27546242E+03</pdfrwt>
<totfact> 0.42189329E+05</totfact>
</mgrwt>
</event>
<event>
 8    1  0.9529436E-006  0.3172869E+03  0.7546771E-02  0.1076905E+00
         21   -1    0    0  504  503  0.00000000000E+00  0.00000000000E+00  0.33287283782E+02  0.33287283782E+02  0.00000000000E+00 0. -1.
         21   -1    0    0  503  504 -0.00000000000E+00 -0.00000000000E+00 -0.75607702128E+03  0.75607702128E+03  0.00000000000E+00 0. -1.
         25    2    1    2    0    0 -0.48869130735E+02 -0.26213474478E+02 -0.56146507047E+03  0.57788179712E+03  0.12501603057E+03 0.  0.
         25    2    1    2    0    0  0.48869130735E+02  0.26213474478E+02 -0.16132466702E+03  0.21148250794E+03  0.12499545908E+03 0.  0.
          5    1    3    3  501    0 -0.74075490564E+02 -0.84022738393E+01 -0.17654472415E+03  0.19169743382E+03  0.47000000000E+01 0.  1.
         -5    1    3    3    0  501  0.25206359829E+02 -0.17811200639E+02 -0.38492034632E+03  0.38618436330E+03  0.47000000000E+01 0.  1.
          5    1    4    4  502    0  0.44309253794E+02 -0.15262125701E+02 -0.16279100891E+03  0.16946753386E+03  0.47000000000E+01 0.  1.
         -5    1    4    4    0  502  0.45598769413E+01  0.41475600179E+02  0.14663418874E+01  0.42014974074E+02  0.47000000000E+01 0.  1.
<mgrwt>
<rscale>  0 0.31728694E+03</rscale>
<asrwt>0</asrwt>
<pdfrwt beam="1">  1       21 0.51211206E-02 0.31728694E+03</pdfrwt>
<pdfrwt beam="2">  1       21 0.11631954E+00 0.31728694E+03</pdfrwt>
<totfact> 0.14127332E+05</totfact>
</mgrwt>
</event>
<event>
 8    1  0.9529436E-006  0.2511639E+03  0.7546771E-02  0.1112571E+00
         21   -1    0    0  504  503  0.00000000000E+00  0.00000000000E+00  0.11156072153E+03  0.11156072153E+03  0.00000000000E+00 0.  1.
         21   -1    0    0  503  504 -0.00000000000E+00 -0.00000000000E+00 -0.14136543227E+03  0.14136543227E+03  0.00000000000E+00 0.  1.
         25    2    1    2    0    0 -0.44896861389E+01 -0.10960434251E+02 -0.12394170452E+02  0.12617085526E+03  0.12500072342E+03 0.  0.
         25    2    1    2    0    0  0.44896861389E+01  0.10960434251E+02 -0.17410540289E+02  0.12675529854E+03  0.12499396143E+03 0.  0.
          5    1    3    3  501    0 -0.10538777711E+02  0.54455576057E+02  0.10097854353E+02  0.56573246874E+02  0.47000000000E+01 0.  1.
         -5    1    3    3    0  501  0.60490915725E+01 -0.65416010308E+02 -0.22492024805E+02  0.69597608388E+02  0.47000000000E+01 0.  1.
          5    1    4    4  502    0 -0.26285349051E+02 -0.15490827368E+02 -0.60164381242E+02  0.67621949672E+02  0.47000000000E+01 0. -1.
         -5    1    4    4    0  502  0.30775035190E+02  0.26451261619E+02  0.42753840953E+02  0.59133348868E+02  0.47000000000E+01 0. -1.
<mgrwt>
<rscale>  0 0.25116393E+03</rscale>
<asrwt>0</asrwt>
<pdfrwt beam="1">  1       21 0.17163188E-01 0.25116393E+03</pdfrwt>
<pdfrwt beam="2">  1       21 0.21748528E-01 0.25116393E+03</pdfrwt>
<totfact> 0.59846406E+05</totfact>
</mgrwt>
</event>
<event>
 8    1  0.9529436E-006  0.2880201E+03  0.7546771E-02  0.1091387E+00
         21   -1    0    0  504  503  0.00000000000E+00  0.00000000000E+00  0.78393883367E+02  0.78393883367E+02  0.00000000000E+00 0. -1.
         21   -1    0    0  503  504 -0.00000000000E+00 -0.00000000000E+00 -0.26454741768E+03  0.26454741768E+03  0.00000000000E+00 0. -1.
         25    2    1    2    0    0  0.54130745171E+01 -0.31040720823E+02 -0.16952341106E+03  0.21296772189E+03  0.12499694375E+03 0.  0.
         25    2    1    2    0    0 -0.54130745171E+01  0.31040720823E+02 -0.16630123260E+02  0.12997357916E+03  0.12499497012E+03 0.  0.
          5    1    3    3  501    0  0.51627006982E+02  0.11434827150E+02 -0.12518195048E+03  0.13597321004E+03  0.47000000000E+01 0. -1.
         -5    1    3    3    0  501 -0.46213932464E+02 -0.42475547973E+02 -0.44341460578E+02  0.76994511854E+02  0.47000000000E+01 0. -1.
          5    1    4    4  502    0 -0.40613369801E+01 -0.15999752864E+02 -0.62063045387E+02  0.64392531807E+02  0.47000000000E+01 0.  1.
         -5    1    4    4    0  502 -0.13517375370E+01  0.47040473687E+02  0.45432922127E+02  0.65581047354E+02  0.47000000000E+01 0.  1.
<mgrwt>
<rscale>  0 0.28802013E+03</rscale>
<asrwt>0</asrwt>
<pdfrwt beam="1">  1       21 0.12060598E-01 0.28802013E+03</pdfrwt>
<pdfrwt beam="2">  1       21 0.40699602E-01 0.28802013E+03</pdfrwt>
<totfact> 0.33096945E+05</totfact>
</mgrwt>
</event>
<event>
 8    1  0.9529436E-006  0.2576269E+03  0.7546771E-02  0.1108577E+00
         21   -1    0    0  504  503  0.00000000000E+00  0.00000000000E+00  0.16988884704E+03  0.16988884704E+03  0.00000000000E+00 0.  1.
         21   -1    0    0  503  504 -0.00000000000E+00 -0.00000000000E+00 -0.97669160434E+02  0.97669160434E+02  0.00000000000E+00 0.  1.
         25    2    1    2    0    0  0.93947507475E+01 -0.29322022902E+02  0.31272967643E+02  0.13247529333E+03  0.12499464976E+03 0.  0.
         25    2    1    2    0    0 -0.93947507475E+01  0.29322022902E+02  0.40946718968E+02  0.13508271415E+03  0.12499065364E+03 0.  0.
          5    1    3    3  501    0  0.40068965826E+02 -0.38833892683E+02 -0.29711608089E+02  0.63391347190E+02  0.47000000000E+01 0.  1.
         -5    1    3    3    0  501 -0.30674215078E+02  0.95118697811E+01  0.60984575732E+02  0.69083946143E+02  0.47000000000E+01 0.  1.
          5    1    4    4  502    0  0.30446055416E+02  0.42241538839E+02 -0.24105022504E+02  0.57571277594E+02  0.47000000000E+01 0. -1.
         -5    1    4    4    0  502 -0.39840806164E+02 -0.12919515937E+02  0.65051741472E+02  0.77511436552E+02  0.47000000000E+01 0. -1.
<mgrwt>
<rscale>  0 0.25762687E+03</rscale>
<asrwt>0</asrwt>
<pdfrwt beam="1">  1       21 0.26136746E-01 0.25762687E+03</pdfrwt>
<pdfrwt beam="2">  1       21 0.15026025E-01 0.25762687E+03</pdfrwt>
<totfact> 0.53745860E+05</totfact>
</mgrwt>
</event>
<event>
 8    1  0.9529436E-006  0.2941792E+03  0.7546771E-02  0.1088187E+00
         21   -1    0    0  504  503  0.00000000000E+00  0.00000000000E+00  0.11314020451E+02  0.11314020451E+02  0.00000000000E+00 0. -1.
         21   -1    0    0  503  504 -0.00000000000E+00 -0.00000000000E+00 -0.19122598584E+04  0.19122598584E+04  0.00000000000E+00 0. -1.
         25    2    1    2    0    0 -0.65897911468E+02 -0.72467316997E+00 -0.12166251064E+04  0.12248036461E+04  0.12499704851E+03 0.  0.
         25    2    1    2    0    0  0.65897911468E+02  0.72467316997E+00 -0.68432073155E+03  0.69877023273E+03  0.12506764025E+03 0.  0.
          5    1    3    3  501    0 -0.86376286697E+02 -0.39578379701E+02 -0.92048440210E+03  0.92538691128E+03  0.47000000000E+01 0.  1.
         -5    1    3    3    0  501  0.20478375230E+02  0.38853706531E+02 -0.29614070427E+03  0.29941673482E+03  0.47000000000E+01 0.  1.
          5    1    4    4  502    0 -0.21544151641E+02  0.39483186069E+02 -0.24415340287E+03  0.24830635631E+03  0.47000000000E+01 0. -1.
         -5    1    4    4    0  502  0.87442063108E+02 -0.38758512899E+02 -0.44016732868E+03  0.45046387642E+03  0.47000000000E+01 0. -1.
<mgrwt>
<rscale>  0 0.29417918E+03</rscale>
<asrwt>0</asrwt>
<pdfrwt beam="1">  1       21 0.17406195E-02 0.29417918E+03</pdfrwt>
<pdfrwt beam="2">  1       21 0.29419366E+00 0.29417918E+03</pdfrwt>
<totfact> 0.52878129E+04</totfact>
</mgrwt>
</event>
<event>
 8    1  0.9529436E-006  0.3290242E+03  0.7546771E-02  0.1071569E+00
         21   -1    0    0  504  503  0.00000000000E+00  0.00000000000E+00  0.91777688478E+02  0.91777688478E+02  0.00000000000E+00 0. -1.
         21   -1    0    0  503  504 -0.00000000000E+00 -0.00000000000E+00 -0.29488894978E+03  0.29488894978E+03  0.00000000000E+00 0. -1.
         25    2    1    2    0    0  0.30024869815E+02  0.10264007854E+03 -0.10013078365E+03  0.19259579607E+03  0.12502195127E+03 0.  0.
         25    2    1    2    0    0 -0.30024869815E+02 -0.10264007854E+03 -0.10298047765E+03  0.19407084219E+03  0.12498813736E+03 0.  0.
          5    1    3    3  501    0  0.16875053989E+02 -0.21717787566E+02 -0.51046128623E+02  0.58174109286E+02  0.47000000000E+01 0. -1.
         -5    1    3    3    0  501  0.13149815827E+02  0.12435786611E+03 -0.49084655031E+02  0.13442168679E+03  0.47000000000E+01 0. -1.
          5    1    4    4  502    0 -0.44833905181E+02  0.13610892926E+02 -0.26174908631E+02  0.53875331107E+02  0.47000000000E+01 0. -1.
         -5    1    4    4    0  502  0.14809035366E+02 -0.11625097147E+03 -0.76805569021E+02  0.14019551108E+03  0.47000000000E+01 0. -1.
<mgrwt>
<rscale>  0 0.32902417E+03</rscale>
<asrwt>0</asrwt>
<pdfrwt beam="1">  1       21 0.14119644E-01 0.32902417E+03</pdfrwt>
<pdfrwt beam="2">  1       21 0.45367531E-01 0.32902417E+03</pdfrwt>
<totfact> 0.19692387E+05</totfact>
</mgrwt>
</event>
<event>
 8    1  0.9529436E-006  0.3106441E+03  0.7546771E-02  0.1080038E+00
         21   -1    0    0  504  503  0.00000000000E+00  0.00000000000E+00  0.80143754988E+02  0.80143754988E+02  0.00000000000E+00 0.  1.
         21   -1    0    0  503  504 -0.00000000000E+00 -0.00000000000E+00 -0.30102080110E+03  0.30102080110E+03  0.00000000000E+00 0.  1.
         25    2    1    2    0    0 -0.47982488886E+02 -0.78145137638E+02 -0.12213836787E+03  0.19736385584E+03  0.12500291561E+03 0.  0.
         25    2    1    2    0    0  0.47982488886E+02  0.78145137638E+02 -0.98738678235E+02  0.18380070024E+03  0.12499755619E+03 0.  0.
          5    1    3    3  501    0 -0.29236654763E+02 -0.39869819072E+02 -0.14176149971E+03  0.15020917833E+03  0.47000000000E+01 0.  1.
         -5    1    3    3    0  501 -0.18745834123E+02 -0.38275318566E+02  0.19623131837E+02  0.47154677513E+02  0.47000000000E+01 0.  1.
          5    1    4    4  502    0  0.55848619220E+02 -0.17175345622E+02 -0.29439037170E+02  0.65595790075E+02  0.47000000000E+01 0.  1.
         -5    1    4    4    0  502 -0.78661303345E+01  0.95320483260E+02 -0.69299641065E+02  0.11820491017E+03  0.47000000000E+01 0.  1.
<mgrwt>
<rscale>  0 0.31064409E+03</rscale>
<asrwt>0</asrwt>
<pdfrwt beam="1">  1       21 0.12329809E-01 0.31064409E+03</pdfrwt>
<pdfrwt beam="2">  1       21 0.46310892E-01 0.31064409E+03</pdfrwt>
<totfact> 0.24245413E+05</totfact>
</mgrwt>
</event>
<event>
 8    1  0.9529436E-006  0.3349734E+03  0.7546771E-02  0.1068957E+00
         21   -1    0    0  504  503  0.00000000000E+00  0.00000000000E+00  0.14925306573E+03  0.14925306573E+03  0.00000000000E+00 0.  1.
         21   -1    0    0  503  504 -0.00000000000E+00 -0.00000000000E+00 -0.18794785172E+03  0.18794785172E+03  0.00000000000E+00 0.  1.
         25    2    1    2    0    0  0.29044601186E+02  0.61875634217E+02 -0.10800121054E+03  0.17877911031E+03  0.12500210334E+03 0.  0.
         25    2    1    2    0    0 -0.29044601186E+02 -0.61875634217E+02  0.69306424548E+02  0.15842180714E+03  0.12498762150E+03 0.  0.
          5    1    3    3  501    0  0.80878728923E+01  0.46995661726E+02  0.17176858071E+02  0.50903245105E+02  0.47000000000E+01 0.  1.
         -5    1    3    3    0  501  0.20956728294E+02  0.14879972491E+02 -0.12517806861E+03  0.12787586521E+03  0.47000000000E+01 0.  1.
          5    1    4    4  502    0 -0.15933033673E+02  0.11244849760E+02  0.80667719915E+02  0.83124480417E+02  0.47000000000E+01 0.  1.
         -5    1    4    4    0  502 -0.13111567513E+02 -0.73120483977E+02 -0.11361295368E+02  0.75297326727E+02  0.47000000000E+01 0.  1.
<mgrwt>
<rscale>  0 0.33497339E+03</rscale>
<asrwt>0</asrwt>
<pdfrwt beam="1">  1       21 0.22962010E-01 0.33497339E+03</pdfrwt>
<pdfrwt beam="2">  1       21 0.28915054E-01 0.33497339E+03</pdfrwt>
<totfact> 0.19654983E+05</totfact>
</mgrwt>
</event>
<event>
 8    1  0.9529436E-006  0.2710690E+03  0.7546771E-02  0.1100669E+00
         21   -1    0    0  504  503  0.00000000000E+00  0.00000000000E+00  0.10783920616E+03  0.10783920616E+03  0.00000000000E+00 0. -1.
         21   -1    0    0  503  504 -0.00000000000E+00 -0.00000000000E+00 -0.17034249549E+03  0.17034249549E+03  0.00000000000E+00 0. -1.
         25    2    1    2    0    0 -0.22209848393E+02  0.47440857414E+02 -0.30820359844E+02  0.13899295139E+03  0.12500093455E+03 0.  0.
         25    2    1    2    0    0  0.22209848393E+02 -0.47440857414E+02 -0.31682929489E+02  0.13918875026E+03  0.12500315140E+03 0.  0.
          5    1    3    3  501    0 -0.53346117619E+01 -0.11548107901E+01 -0.72352911680E+02  0.72710559750E+02  0.47000000000E+01 0.  1.
         -5    1    3    3    0  501 -0.16875236631E+02  0.48595668204E+02  0.41532551836E+02  0.66282391640E+02  0.47000000000E+01 0.  1.
          5    1    4    4  502    0  0.13555175529E+02 -0.11034737870E+02  0.47854293474E+02  0.51162795343E+02  0.47000000000E+01 0. -1.
         -5    1    4    4    0  502  0.86546728639E+01 -0.36406119544E+02 -0.79537222962E+02  0.88025954918E+02  0.47000000000E+01 0. -1.
<mgrwt>
<rscale>  0 0.27106899E+03</rscale>
<asrwt>0</asrwt>
<pdfrwt beam="1">  1       21 0.16590647E-01 0.27106899E+03</pdfrwt>
<pdfrwt beam="2">  1       21 0.26206538E-01 0.27106899E+03</pdfrwt>
<totfact> 0.44449396E+05</totfact>
</mgrwt>
</event>
<event>
 8    1  0.9529436E-006  0.3569622E+03  0.7546771E-02  0.1059793E+00
         21   -1    0    0  504  503  0.00000000000E+00  0.00000000000E+00  0.25009786278E+03  0.25009786278E+03  0.00000000000E+00 0. -1.
         21   -1    0    0  503  504 -0.00000000000E+00 -0.00000000000E+00 -0.12737218021E+03  0.12737218021E+03  0.00000000000E+00 0. -1.
         25    2    1    2    0    0  0.12544776494E+03  0.16732129294E+02  0.46089795848E+02  0.18376010730E+03  0.12500560736E+03 0.  0.
         25    2    1    2    0    0 -0.12544776494E+03 -0.16732129294E+02  0.76635886723E+02  0.19370993568E+03  0.12503349219E+03 0.  0.
          5    1    3    3  501    0  0.90489622348E+02  0.51596466690E+01 -0.32855404626E+02  0.96522335858E+02  0.47000000000E+01 0. -1.
         -5    1    3    3    0  501  0.34958142596E+02  0.11572482625E+02  0.78945200474E+02  0.87237771439E+02  0.47000000000E+01 0. -1.
          5    1    4    4  502    0 -0.72160116515E+02 -0.63589192788E+02  0.10975280792E+02  0.96918598026E+02  0.47000000000E+01 0. -1.
         -5    1    4    4    0  502 -0.53287648429E+02  0.46857063494E+02  0.65660605930E+02  0.96791337657E+02  0.47000000000E+01 0. -1.
<mgrwt>
<rscale>  0 0.35696224E+03</rscale>
<asrwt>0</asrwt>
<pdfrwt beam="1">  1       21 0.38476594E-01 0.35696224E+03</pdfrwt>
<pdfrwt beam="2">  1       21 0.19595720E-01 0.35696224E+03</pdfrwt>
<totfact> 0.14938944E+05</totfact>
</mgrwt>
</event>
<event>
 8    1  0.9529436E-006  0.3190081E+03  0.7546771E-02  0.1076107E+00
         21   -1    0    0  504  503  0.00000000000E+00  0.00000000000E+00  0.26489792898E+02  0.26489792898E+02  0.00000000000E+00 0. -1.
         21   -1    0    0  503  504 -0.00000000000E+00 -0.00000000000E+00 -0.96042811068E+03  0.96042811068E+03  0.00000000000E+00 0. -1.
         25    2    1    2    0    0  0.62160550615E+02  0.47811870301E+02 -0.27964257439E+03  0.31618792032E+03  0.12499969021E+03 0.  0.
         25    2    1    2    0    0 -0.62160550615E+02 -0.47811870301E+02 -0.65429574339E+03  0.67072998326E+03  0.12500352644E+03 0.  0.
          5    1    3    3  501    0 -0.19684565372E+02 -0.24539651943E+02 -0.10877524799E+03  0.11333058372E+03  0.47000000000E+01 0. -1.
         -5    1    3    3    0  501  0.81845115987E+02  0.72351522244E+02 -0.17086732640E+03  0.20285733660E+03  0.47000000000E+01 0. -1.
          5    1    4    4  502    0 -0.77356658553E+02 -0.49321662627E+02 -0.64642339883E+03  0.65291804967E+03  0.47000000000E+01 0.  1.
         -5    1    4    4    0  502  0.15196107938E+02  0.15097923262E+01 -0.78723445665E+01  0.17811933592E+02  0.47000000000E+01 0.  1.
<mgrwt>
<rscale>  0 0.31900810E+03</rscale>
<asrwt>0</asrwt>
<pdfrwt beam="1">  1       21 0.40753527E-02 0.31900810E+03</pdfrwt>
<pdfrwt beam="2">  1       21 0.14775817E+00 0.31900810E+03</pdfrwt>
<totfact> 0.11251854E+05</totfact>
</mgrwt>
</event>
<event>
 8    1  0.9529436E-006  0.3370790E+03  0.7546771E-02  0.1068047E+00
         21   -1    0    0  504  503  0.00000000000E+00  0.00000000000E+00  0.32299473929E+03  0.32299473929E+03  0.00000000000E+00 0. -1.
         21   -1    0    0  503  504 -0.00000000000E+00 -0.00000000000E+00 -0.87944333011E+02  0.87944333011E+02  0.00000000000E+00 0. -1.
         25    2    1    2    0    0  0.37714202607E+02  0.49357848330E+02  0.23536238223E+01  0.13958752011E+03  0.12498231057E+03 0.  0.
         25    2    1    2    0    0 -0.37714202607E+02 -0.49357848330E+02  0.23269678246E+03  0.27135155219E+03  0.12500125615E+03 0.  0.
          5    1    3    3  501    0  0.83485311874E+02  0.35812031807E+02  0.78877648011E+01  0.91305014946E+02  0.47000000000E+01 0. -1.
         -5    1    3    3    0  501 -0.45771109266E+02  0.13545816523E+02 -0.55341409787E+01  0.48282505166E+02  0.47000000000E+01 0. -1.
          5    1    4    4  502    0  0.35792682010E+02 -0.48341604753E+02  0.67853217612E+02  0.90797444765E+02  0.47000000000E+01 0. -1.
         -5    1    4    4    0  502 -0.73506884617E+02 -0.10162435770E+01  0.16484356485E+03  0.18055410743E+03  0.47000000000E+01 0. -1.
<mgrwt>
<rscale>  0 0.33707896E+03</rscale>
<asrwt>0</asrwt>
<pdfrwt beam="1">  1       21 0.49691498E-01 0.33707896E+03</pdfrwt>
<pdfrwt beam="2">  1       21 0.13529898E-01 0.33707896E+03</pdfrwt>
<totfact> 0.17563023E+05</totfact>
</mgrwt>
</event>
<event>
 8    1  0.9529436E-006  0.4063907E+03  0.7546771E-02  0.1041589E+00
         21   -1    0    0  504  503  0.00000000000E+00  0.00000000000E+00  0.15392697225E+03  0.15392697225E+03  0.00000000000E+00 0. -1.
         21   -1    0    0  503  504 -0.00000000000E+00 -0.00000000000E+00 -0.26823337993E+03  0.26823337993E+03  0.00000000000E+00 0. -1.
         25    2    1    2    0    0 -0.75178946735E+02 -0.14143086247E+03 -0.60328708116E+02  0.21194344444E+03  0.12500363086E+03 0.  0.
         25    2    1    2    0    0  0.75178946735E+02  0.14143086247E+03 -0.53977699567E+02  0.21021690773E+03  0.12499197316E+03 0.  0.
          5    1    3    3  501    0  0.73202239256E+01 -0.10189401627E+03 -0.63336716412E+02  0.12028967485E+03  0.47000000000E+01 0.  1.
         -5    1    3    3    0  501 -0.82499170660E+02 -0.39536846205E+02  0.30080082963E+01  0.91653769597E+02  0.47000000000E+01 0.  1.
          5    1    4    4  502    0  0.74223612404E+02  0.12597338583E+03 -0.89280352106E+02  0.17138118288E+03  0.47000000000E+01 0. -1.
         -5    1    4    4    0  502  0.95533433087E+00  0.15457476644E+02  0.35302652539E+02  0.38835724844E+02  0.47000000000E+01 0. -1.
<mgrwt>
<rscale>  0 0.40639071E+03</rscale>
<asrwt>0</asrwt>
<pdfrwt beam="1">  1       21 0.23681073E-01 0.40639071E+03</pdfrwt>
<pdfrwt beam="2">  1       21 0.41266673E-01 0.40639071E+03</pdfrwt>
<totfact> 0.89194421E+04</totfact>
</mgrwt>
</event>
<event>
 8    1  0.9529436E-006  0.3901375E+03  0.7546771E-02  0.1047249E+00
         21   -1    0    0  504  503  0.00000000000E+00  0.00000000000E+00  0.45493260859E+03  0.45493260859E+03  0.00000000000E+00 0.  1.
         21   -1    0    0  503  504 -0.00000000000E+00 -0.00000000000E+00 -0.83642747662E+02  0.83642747662E+02  0.00000000000E+00 0.  1.
         25    2    1    2    0    0  0.11379088133E+02  0.34486638158E+02 -0.14948540997E+02  0.13099300700E+03  0.12496758439E+03 0.  0.
         25    2    1    2    0    0 -0.11379088133E+02 -0.34486638158E+02  0.38623840193E+03  0.40758234925E+03  0.12499782574E+03 0.  0.
          5    1    3    3  501    0  0.15781119020E+02 -0.20642850879E+02 -0.56029218015E+02  0.61939763329E+02  0.47000000000E+01 0. -1.
         -5    1    3    3    0  501 -0.44020308866E+01  0.55129489037E+02  0.41080677018E+02  0.69053243672E+02  0.47000000000E+01 0. -1.
          5    1    4    4  502    0  0.34328475915E+02 -0.49104997974E+02  0.95242756904E+02  0.11261890528E+03  0.47000000000E+01 0.  1.
         -5    1    4    4    0  502 -0.45707564048E+02  0.14618359816E+02  0.29099564502E+03  0.29496344397E+03  0.47000000000E+01 0.  1.
<mgrwt>
<rscale>  0 0.39013748E+03</rscale>
<asrwt>0</asrwt>
<pdfrwt beam="1">  1       21 0.69989630E-01 0.39013748E+03</pdfrwt>
<pdfrwt beam="2">  1       21 0.12868115E-01 0.39013748E+03</pdfrwt>
<totfact> 0.90329244E+04</totfact>
</mgrwt>
</event>
<event>
 8    1  0.9529436E-006  0.3004325E+03  0.7546771E-02  0.1085025E+00
         21   -1    0    0  504  503  0.00000000000E+00  0.00000000000E+00  0.11981626714E+03  0.11981626714E+03  0.00000000000E+00 0.  1.
         21   -1    0    0  503  504 -0.00000000000E+00 -0.00000000000E+00 -0.18832939926E+03  0.18832939926E+03  0.00000000000E+00 0.  1.
         25    2    1    2    0    0  0.60093721696E+02 -0.19460205583E+02  0.21462252249E+02  0.14168988008E+03  0.12500175541E+03 0.  0.
         25    2    1    2    0    0 -0.60093721696E+02  0.19460205583E+02 -0.89975384364E+02  0.16645578632E+03  0.12498801550E+03 0.  0.
          5    1    3    3  501    0  0.33514535251E+01  0.41194081743E+02  0.38605699676E+02  0.56750988175E+02  0.47000000000E+01 0.  1.
         -5    1    3    3    0  501  0.56742268171E+02 -0.60654287326E+02 -0.17143447426E+02  0.84938891904E+02  0.47000000000E+01 0.  1.
          5    1    4    4  502    0  0.24123453812E+02 -0.13981594121E+02 -0.67198238479E+02  0.72904864397E+02  0.47000000000E+01 0. -1.
         -5    1    4    4    0  502 -0.84217175508E+02  0.33441799704E+02 -0.22777145885E+02  0.93550921924E+02  0.47000000000E+01 0. -1.
<mgrwt>
<rscale>  0 0.30043253E+03</rscale>
<asrwt>0</asrwt>
<pdfrwt beam="1">  1       21 0.18433272E-01 0.30043253E+03</pdfrwt>
<pdfrwt beam="2">  1       21 0.28973754E-01 0.30043253E+03</pdfrwt>
<totfact> 0.29885172E+05</totfact>
</mgrwt>
</event>
<event>
 8    1  0.9529436E-006  0.3705888E+03  0.7546771E-02  0.1054468E+00
         21   -1    0    0  504  503  0.00000000000E+00  0.00000000000E+00  0.78543632516E+03  0.78543632516E+03  0.00000000000E+00 0. -1.
         21   -1    0    0  503  504 -0.00000000000E+00 -0.00000000000E+00 -0.43713302979E+02  0.43713302979E+02  0.00000000000E+00 0. -1.
         25    2    1    2    0    0  0.57402049797E+02 -0.12304290877E+03  0.33409257389E+03  0.38168903123E+03  0.12503645832E+03 0.  0.
         25    2    1    2    0    0 -0.57402049797E+02  0.12304290877E+03  0.40763044829E+03  0.44746059691E+03  0.12499540270E+03 0.  0.
          5    1    3    3  501    0  0.54394587337E+02 -0.11493408243E+03  0.14734588542E+03  0.19468311274E+03  0.47000000000E+01 0.  1.
         -5    1    3    3    0  501  0.30074624602E+01 -0.81088263415E+01  0.18674668847E+03  0.18700591848E+03  0.47000000000E+01 0.  1.
          5    1    4    4  502    0  0.22921060973E+02  0.45695478266E+02  0.24432145083E+03  0.24965679063E+03  0.47000000000E+01 0.  1.
         -5    1    4    4    0  502 -0.80323110770E+02  0.77347430506E+02  0.16330899746E+03  0.19780380629E+03  0.47000000000E+01 0.  1.
<mgrwt>
<rscale>  0 0.37058881E+03</rscale>
<asrwt>0</asrwt>
<pdfrwt beam="1">  1       21 0.12083635E+00 0.37058881E+03</pdfrwt>
<pdfrwt beam="2">  1       21 0.67251241E-02 0.37058881E+03</pdfrwt>
<totfact> 0.78984576E+04</totfact>
</mgrwt>
</event>
<event>
 8    1  0.9529436E-006  0.3083593E+03  0.7546771E-02  0.1081135E+00
         21   -1    0    0  504  503  0.00000000000E+00  0.00000000000E+00  0.24837510222E+02  0.24837510222E+02  0.00000000000E+00 0.  1.
         21   -1    0    0  503  504 -0.00000000000E+00 -0.00000000000E+00 -0.95707495412E+03  0.95707495412E+03  0.00000000000E+00 0.  1.
         25    2    1    2    0    0 -0.88037790148E+02  0.67194875682E+01 -0.40616502616E+03  0.43403023596E+03  0.12496564826E+03 0.  0.
         25    2    1    2    0    0  0.88037790148E+02 -0.67194875682E+01 -0.52607241774E+03  0.54788222838E+03  0.12500777362E+03 0.  0.
          5    1    3    3  501    0 -0.59779184301E+02  0.51855926755E+02 -0.12640063325E+03  0.14920388098E+03  0.47000000000E+01 0. -1.
         -5    1    3    3    0  501 -0.28258605847E+02 -0.45136439187E+02 -0.27976439291E+03  0.28482635497E+03  0.47000000000E+01 0. -1.
          5    1    4    4  502    0  0.64059489906E+02 -0.20517419189E+02 -0.98377742165E+02  0.11926798770E+03  0.47000000000E+01 0. -1.
         -5    1    4    4    0  502  0.23978300242E+02  0.13797931621E+02 -0.42769467557E+03  0.42861424068E+03  0.47000000000E+01 0. -1.
<mgrwt>
<rscale>  0 0.30835926E+03</rscale>
<asrwt>0</asrwt>
<pdfrwt beam="1">  1       21 0.38211553E-02 0.30835926E+03</pdfrwt>
<pdfrwt beam="2">  1       21 0.14724231E+00 0.30835926E+03</pdfrwt>
<totfact> 0.12706822E+05</totfact>
</mgrwt>
</event>
<event>
 8    1  0.9529436E-006  0.2566085E+03  0.7546771E-02  0.1109198E+00
         21   -1    0    0  504  503  0.00000000000E+00  0.00000000000E+00  0.68192998545E+02  0.68192998545E+02  0.00000000000E+00 0. -1.
         21   -1    0    0  503  504 -0.00000000000E+00 -0.00000000000E+00 -0.24140283436E+03  0.24140283436E+03  0.00000000000E+00 0. -1.
         25    2    1    2    0    0 -0.18437589570E+02  0.20609196909E+02 -0.76393950479E+02  0.14908380114E+03  0.12500104154E+03 0.  0.
         25    2    1    2    0    0  0.18437589570E+02 -0.20609196909E+02 -0.96815885337E+02  0.16051203177E+03  0.12500445185E+03 0.  0.
          5    1    3    3  501    0  0.55687181460E+00  0.72216752619E+02 -0.49553439371E+02  0.87710904787E+02  0.47000000000E+01 0. -1.
         -5    1    3    3    0  501 -0.18994461385E+02 -0.51607555711E+02 -0.26840511108E+02  0.61372896349E+02  0.47000000000E+01 0. -1.
          5    1    4    4  502    0  0.38985817566E+02 -0.54058522575E+02 -0.10062942044E+03  0.12079150671E+03  0.47000000000E+01 0. -1.
         -5    1    4    4    0  502 -0.20548227996E+02  0.33449325666E+02  0.38135351032E+01  0.39720525063E+02  0.47000000000E+01 0. -1.
<mgrwt>
<rscale>  0 0.25660852E+03</rscale>
<asrwt>0</asrwt>
<pdfrwt beam="1">  1       21 0.10491230E-01 0.25660852E+03</pdfrwt>
<pdfrwt beam="2">  1       21 0.37138898E-01 0.25660852E+03</pdfrwt>
<totfact> 0.51480730E+05</totfact>
</mgrwt>
</event>
<event>
 8    1  0.9529436E-006  0.2945141E+03  0.7546771E-02  0.1088016E+00
         21   -1    0    0  504  503  0.00000000000E+00  0.00000000000E+00  0.95029811477E+03  0.95029811477E+03  0.00000000000E+00 0. -1.
         21   -1    0    0  503  504 -0.00000000000E+00 -0.00000000000E+00 -0.22818772705E+02  0.22818772705E+02  0.00000000000E+00 0. -1.
         25    2    1    2    0    0 -0.40528402573E+02 -0.87812032907E+01  0.68144496611E+03  0.69405489253E+03  0.12500116423E+03 0.  0.
         25    2    1    2    0    0  0.40528402573E+02  0.87812032907E+01  0.24603437595E+03  0.27906199494E+03  0.12499208745E+03 0.  0.
          5    1    3    3  501    0 -0.31628078374E+01 -0.63642499940E+02  0.38186134343E+03  0.38716991975E+03  0.47000000000E+01 0. -1.
         -5    1    3    3    0  501 -0.37365594735E+02  0.54861296649E+02  0.29958362268E+03  0.30688497278E+03  0.47000000000E+01 0. -1.
          5    1    4    4  502    0 -0.30591523673E+02  0.25873864947E+02  0.28181772811E+02  0.49209760482E+02  0.47000000000E+01 0. -1.
         -5    1    4    4    0  502  0.71119926245E+02 -0.17092661657E+02  0.21785260313E+03  0.22985223446E+03  0.47000000000E+01 0. -1.
<mgrwt>
<rscale>  0 0.29451409E+03</rscale>
<asrwt>0</asrwt>
<pdfrwt beam="1">  1       21 0.14619968E+00 0.29451409E+03</pdfrwt>
<pdfrwt beam="2">  1       21 0.35105811E-02 0.29451409E+03</pdfrwt>
<totfact> 0.15001692E+05</totfact>
</mgrwt>
</event>
<event>
 8    1  0.9529436E-006  0.2747630E+03  0.7546771E-02  0.1098584E+00
         21   -1    0    0  504  503  0.00000000000E+00  0.00000000000E+00  0.12447185675E+03  0.12447185675E+03  0.00000000000E+00 0.  1.
         21   -1    0    0  503  504 -0.00000000000E+00 -0.00000000000E+00 -0.15163005603E+03  0.15163005603E+03  0.00000000000E+00 0.  1.
         25    2    1    2    0    0 -0.37964344303E+02  0.24171999696E+02 -0.48737728985E+02  0.14150832597E+03  0.12499465222E+03 0.  0.
         25    2    1    2    0    0  0.37964344303E+02 -0.24171999696E+02  0.21579529708E+02  0.13459358681E+03  0.12499672196E+03 0.  0.
          5    1    3    3  501    0 -0.10274175056E+02  0.66665120260E+02 -0.58777876673E+02  0.89591995840E+02  0.47000000000E+01 0.  1.
         -5    1    3    3    0  501 -0.27690169248E+02 -0.42493120564E+02  0.10040147688E+02  0.51916330127E+02  0.47000000000E+01 0.  1.
          5    1    4    4  502    0  0.32603108671E+02 -0.67072037746E+02 -0.16802349134E+02  0.76590011613E+02  0.47000000000E+01 0.  1.
         -5    1    4    4    0  502  0.53612356326E+01  0.42900038051E+02  0.38381878842E+02  0.58003575197E+02  0.47000000000E+01 0.  1.
<mgrwt>
<rscale>  0 0.27476299E+03</rscale>
<asrwt>0</asrwt>
<pdfrwt beam="1">  1       21 0.19149517E-01 0.27476299E+03</pdfrwt>
<pdfrwt beam="2">  1       21 0.23327701E-01 0.27476299E+03</pdfrwt>
<totfact> 0.42533046E+05</totfact>
</mgrwt>
</event>
<event>
 8    1  0.9529436E-006  0.3905701E+03  0.7546771E-02  0.1047095E+00
         21   -1    0    0  504  503  0.00000000000E+00  0.00000000000E+00  0.80792622297E+03  0.80792622297E+03  0.00000000000E+00 0. -1.
         21   -1    0    0  503  504 -0.00000000000E+00 -0.00000000000E+00 -0.47202631268E+02  0.47202631268E+02  0.00000000000E+00 0. -1.
         25    2    1    2    0    0  0.17495255284E+02 -0.11098315606E+03  0.59814186109E+03  0.62129189089E+03  0.12492630952E+03 0.  0.
         25    2    1    2    0    0 -0.17495255284E+02  0.11098315606E+03  0.16258173061E+03  0.23383696334E+03  0.12499424552E+03 0.  0.
          5    1    3    3  501    0 -0.47360218188E+02 -0.57641329318E+02  0.18230278538E+03  0.19703276040E+03  0.47000000000E+01 0. -1.
         -5    1    3    3    0  501  0.64855473472E+02 -0.53341826738E+02  0.41583907571E+03  0.42425913049E+03  0.47000000000E+01 0. -1.
          5    1    4    4  502    0  0.36348763411E+01  0.12845800975E+03  0.92419931346E+02  0.15836099995E+03  0.47000000000E+01 0.  1.
         -5    1    4    4    0  502 -0.21130131625E+02 -0.17474853699E+02  0.70161799261E+02  0.75475963391E+02  0.47000000000E+01 0.  1.
<mgrwt>
<rscale>  0 0.39057006E+03</rscale>
<asrwt>0</asrwt>
<pdfrwt beam="1">  1       21 0.12429633E+00 0.39057006E+03</pdfrwt>
<pdfrwt beam="2">  1       21 0.72619439E-02 0.39057006E+03</pdfrwt>
<totfact> 0.63911264E+04</totfact>
</mgrwt>
</event>
<event>
 8    1  0.9529436E-006  0.3641634E+03  0.7546771E-02  0.1056947E+00
         21   -1    0    0  504  503  0.00000000000E+00  0.00000000000E+00  0.56656005528E+02  0.56656005528E+02  0.00000000000E+00 0.  1.
         21   -1    0    0  503  504 -0.00000000000E+00 -0.00000000000E+00 -0.58517628499E+03  0.58517628499E+03  0.00000000000E+00 0.  1.
         25    2    1    2    0    0 -0.57346505584E+02  0.79721833301E+02 -0.10777240644E+03  0.19205625828E+03  0.12500608924E+03 0.  0.
         25    2    1    2    0    0  0.57346505584E+02 -0.79721833301E+02 -0.42074787302E+03  0.44977603224E+03  0.12500205644E+03 0.  0.
          5    1    3    3  501    0 -0.57020747517E+02  0.10129335811E+03 -0.43676058680E+02  0.12426342240E+03  0.47000000000E+01 0. -1.
         -5    1    3    3    0  501 -0.32575806674E+00 -0.21571524807E+02 -0.64096347756E+02  0.67792835879E+02  0.47000000000E+01 0. -1.
          5    1    4    4  502    0  0.59797867779E+02 -0.10846181425E+03 -0.37948129712E+03  0.39920908683E+03  0.47000000000E+01 0. -1.
         -5    1    4    4    0  502 -0.24513621949E+01  0.28739980947E+02 -0.41266575899E+02  0.50566945408E+02  0.47000000000E+01 0. -1.
<mgrwt>
<rscale>  0 0.36416343E+03</rscale>
<asrwt>0</asrwt>
<pdfrwt beam="1">  1       21 0.87163085E-02 0.36416343E+03</pdfrwt>
<pdfrwt beam="2">  1       21 0.90027121E-01 0.36416343E+03</pdfrwt>
<totfact> 0.10273100E+05</totfact>
</mgrwt>
</event>
<event>
 8    1  0.9529436E-006  0.2662649E+03  0.7546771E-02  0.1103437E+00
         21   -1    0    0  504  503  0.00000000000E+00  0.00000000000E+00  0.58544728502E+03  0.58544728502E+03  0.00000000000E+00 0.  1.
         21   -1    0    0  503  504 -0.00000000000E+00 -0.00000000000E+00 -0.30274713634E+02  0.30274713634E+02  0.00000000000E+00 0.  1.
         25    2    1    2    0    0  0.60164989514E-01 -0.38698222898E+02  0.33416230931E+03  0.35887997560E+03  0.12503132347E+03 0.  0.
         25    2    1    2    0    0 -0.60164989514E-01  0.38698222898E+02  0.22101026208E+03  0.25684202305E+03  0.12499893115E+03 0.  0.
          5    1    3    3  501    0  0.49201999857E+02 -0.12013898726E+02  0.58310457391E+02  0.77378097636E+02  0.47000000000E+01 0. -1.
         -5    1    3    3    0  501 -0.49141834868E+02 -0.26684324172E+02  0.27585185192E+03  0.28150187796E+03  0.47000000000E+01 0. -1.
          5    1    4    4  502    0  0.26688627368E+02 -0.38978605986E+02  0.97302973265E+02  0.10826621431E+03  0.47000000000E+01 0.  1.
         -5    1    4    4    0  502 -0.26748792357E+02  0.77676828884E+02  0.12370728881E+03  0.14857580874E+03  0.47000000000E+01 0.  1.
<mgrwt>
<rscale>  0 0.26626490E+03</rscale>
<asrwt>0</asrwt>
<pdfrwt beam="1">  1       21 0.90068805E-01 0.26626490E+03</pdfrwt>
<pdfrwt beam="2">  1       21 0.46576487E-02 0.26626490E+03</pdfrwt>
<totfact> 0.31186882E+05</totfact>
</mgrwt>
</event>
<event>
 8    1  0.9529436E-006  0.3078357E+03  0.7546771E-02  0.1081388E+00
         21   -1    0    0  504  503  0.00000000000E+00  0.00000000000E+00  0.50370312952E+03  0.50370312952E+03  0.00000000000E+00 0. -1.
         21   -1    0    0  503  504 -0.00000000000E+00 -0.00000000000E+00 -0.47033075553E+02  0.47033075553E+02  0.00000000000E+00 0. -1.
         25    2    1    2    0    0 -0.62113347135E+02  0.61187353268E+02  0.26669036636E+03  0.30716373381E+03  0.12499539096E+03 0.  0.
         25    2    1    2    0    0  0.62113347135E+02 -0.61187353268E+02  0.18997968760E+03  0.24357247126E+03  0.12503322344E+03 0.  0.
          5    1    3    3  501    0 -0.22187656273E+02 -0.36343922374E+02  0.11212402407E+03  0.12002941122E+03  0.47000000000E+01 0.  1.
         -5    1    3    3    0  501 -0.39925690863E+02  0.97531275643E+02  0.15456634229E+03  0.18713432259E+03  0.47000000000E+01 0.  1.
          5    1    4    4  502    0 -0.24305006863E+02  0.14205797618E+02  0.78657300118E+02  0.83675557401E+02  0.47000000000E+01 0.  1.
         -5    1    4    4    0  502  0.86418353998E+02 -0.75393150886E+02  0.11132238748E+03  0.15989691386E+03  0.47000000000E+01 0.  1.
<mgrwt>
<rscale>  0 0.30783572E+03</rscale>
<asrwt>0</asrwt>
<pdfrwt beam="1">  1       21 0.77492786E-01 0.30783572E+03</pdfrwt>
<pdfrwt beam="2">  1       21 0.72358581E-02 0.30783572E+03</pdfrwt>
<totfact> 0.20440192E+05</totfact>
</mgrwt>
</event>
<event>
 8    1  0.9529436E-006  0.2736799E+03  0.7546771E-02  0.1099192E+00
         21   -1    0    0  504  503  0.00000000000E+00  0.00000000000E+00  0.26624808684E+02  0.26624808684E+02  0.00000000000E+00 0.  1.
         21   -1    0    0  503  504 -0.00000000000E+00 -0.00000000000E+00 -0.70329790658E+03  0.70329790658E+03  0.00000000000E+00 0.  1.
         25    2    1    2    0    0  0.23211627245E+02  0.19438863500E+02 -0.46296858772E+03  0.48050158035E+03  0.12500082583E+03 0.  0.
         25    2    1    2    0    0 -0.23211627245E+02 -0.19438863500E+02 -0.21370451018E+03  0.24942113491E+03  0.12499854325E+03 0.  0.
          5    1    3    3  501    0  0.61235644646E+02 -0.17602743662E+02 -0.15016569672E+03  0.16319156606E+03  0.47000000000E+01 0. -1.
         -5    1    3    3    0  501 -0.38024017401E+02  0.37041607163E+02 -0.31280289099E+03  0.31731001430E+03  0.47000000000E+01 0. -1.
          5    1    4    4  502    0 -0.19600592396E+02  0.22461747591E+02 -0.20371759465E+03  0.20594091798E+03  0.47000000000E+01 0. -1.
         -5    1    4    4    0  502 -0.36110348493E+01 -0.41900611091E+02 -0.99869155269E+01  0.43480216930E+02  0.47000000000E+01 0. -1.
<mgrwt>
<rscale>  0 0.27367990E+03</rscale>
<asrwt>0</asrwt>
<pdfrwt beam="1">  1       21 0.40961250E-02 0.27367990E+03</pdfrwt>
<pdfrwt beam="2">  1       21 0.10819966E+00 0.27367990E+03</pdfrwt>
<totfact> 0.24978949E+05</totfact>
</mgrwt>
</event>
<event>
 8    1  0.9529436E-006  0.3350843E+03  0.7546771E-02  0.1068909E+00
         21   -1    0    0  504  503  0.00000000000E+00  0.00000000000E+00  0.28740419838E+02  0.28740419838E+02  0.00000000000E+00 0. -1.
         21   -1    0    0  503  504 -0.00000000000E+00 -0.00000000000E+00 -0.97668603987E+03  0.97668603987E+03  0.00000000000E+00 0. -1.
         25    2    1    2    0    0  0.97258305032E+02  0.22505058385E+02 -0.62333388801E+03  0.64353422204E+03  0.12500201377E+03 0.  0.
         25    2    1    2    0    0 -0.97258305032E+02 -0.22505058385E+02 -0.32461173202E+03  0.36189223767E+03  0.12501023784E+03 0.  0.
          5    1    3    3  501    0  0.96747692092E+02  0.32677493217E+02 -0.25082433107E+03  0.27085580951E+03  0.47000000000E+01 0.  1.
         -5    1    3    3    0  501  0.51061293972E+00 -0.10172434833E+02 -0.37250955694E+03  0.37267841253E+03  0.47000000000E+01 0.  1.
          5    1    4    4  502    0 -0.96307231705E+01  0.56499596975E+01 -0.22818893310E+03  0.22851028874E+03  0.47000000000E+01 0.  1.
         -5    1    4    4    0  502 -0.87627581861E+02 -0.28155018082E+02 -0.96422798926E+02  0.13338194892E+03  0.47000000000E+01 0.  1.
<mgrwt>
<rscale>  0 0.33508427E+03</rscale>
<asrwt>0</asrwt>
<pdfrwt beam="1">  1       21 0.44216037E-02 0.33508427E+03</pdfrwt>
<pdfrwt beam="2">  1       21 0.15025937E+00 0.33508427E+03</pdfrwt>
<totfact> 0.93181157E+04</totfact>
</mgrwt>
</event>
<event>
 8    1  0.9529436E-006  0.3940441E+03  0.7546771E-02  0.1045862E+00
         21   -1    0    0  504  503  0.00000000000E+00  0.00000000000E+00  0.77286297612E+03  0.77286297612E+03  0.00000000000E+00 0.  1.
         21   -1    0    0  503  504 -0.00000000000E+00 -0.00000000000E+00 -0.50225845869E+02  0.50225845869E+02  0.00000000000E+00 0.  1.
         25    2    1    2    0    0  0.57618616871E+01  0.15205123765E+03  0.37442718796E+03  0.42305303266E+03  0.12500148577E+03 0.  0.
         25    2    1    2    0    0 -0.57618616871E+01 -0.15205123765E+03  0.34820994229E+03  0.40003578932E+03  0.12500276360E+03 0.  0.
          5    1    3    3  501    0  0.17099528119E+02  0.45431594637E+02  0.19963188580E+02  0.52697652238E+02  0.47000000000E+01 0. -1.
         -5    1    3    3    0  501 -0.11337666432E+02  0.10661964301E+03  0.35446399938E+03  0.37035538042E+03  0.47000000000E+01 0. -1.
          5    1    4    4  502    0 -0.32173413002E+02  0.75643097905E+01  0.81280707636E+02  0.87869168203E+02  0.47000000000E+01 0. -1.
         -5    1    4    4    0  502  0.26411551315E+02 -0.15961554744E+03  0.26692923466E+03  0.31216662112E+03  0.47000000000E+01 0. -1.
<mgrwt>
<rscale>  0 0.39404414E+03</rscale>
<asrwt>0</asrwt>
<pdfrwt beam="1">  1       21 0.11890199E+00 0.39404414E+03</pdfrwt>
<pdfrwt beam="2">  1       21 0.77270538E-02 0.39404414E+03</pdfrwt>
<totfact> 0.64084604E+04</totfact>
</mgrwt>
</event>
<event>
 8    1  0.9529436E-006  0.2635256E+03  0.7546771E-02  0.1105043E+00
         21   -1    0    0  504  503  0.00000000000E+00  0.00000000000E+00  0.24660007638E+02  0.24660007638E+02  0.00000000000E+00 0. -1.
         21   -1    0    0  503  504 -0.00000000000E+00 -0.00000000000E+00 -0.70403192395E+03  0.70403192395E+03  0.00000000000E+00 0. -1.
         25    2    1    2    0    0 -0.22629875681E+02  0.29770082681E+02 -0.39061770133E+03  0.41182789383E+03  0.12498662508E+03 0.  0.
         25    2    1    2    0    0  0.22629875681E+02 -0.29770082681E+02 -0.28875421498E+03  0.31686403776E+03  0.12500181061E+03 0.  0.
          5    1    3    3  501    0  0.42489749065E+02 -0.19173256873E+02 -0.17881671882E+03  0.18485264803E+03  0.47000000000E+01 0.  1.
         -5    1    3    3    0  501 -0.65119624747E+02  0.48943339554E+02 -0.21180098250E+03  0.22697524579E+03  0.47000000000E+01 0.  1.
          5    1    4    4  502    0 -0.27347367893E+02 -0.46684534400E+02 -0.23576423126E+03  0.24193839510E+03  0.47000000000E+01 0. -1.
         -5    1    4    4    0  502  0.49977243575E+02  0.16914451719E+02 -0.52989983724E+02  0.74925642656E+02  0.47000000000E+01 0. -1.
<mgrwt>
<rscale>  0 0.26352558E+03</rscale>
<asrwt>0</asrwt>
<pdfrwt beam="1">  1       21 0.37938478E-02 0.26352558E+03</pdfrwt>
<pdfrwt beam="2">  1       21 0.10831259E+00 0.26352558E+03</pdfrwt>
<totfact> 0.28430675E+05</totfact>
</mgrwt>
</event>
<event>
 8    1  0.9529436E-006  0.2681487E+03  0.7546771E-02  0.1102344E+00
         21   -1    0    0  504  503  0.00000000000E+00  0.00000000000E+00  0.28150796991E+02  0.28150796991E+02  0.00000000000E+00 0.  1.
         21   -1    0    0  503  504 -0.00000000000E+00 -0.00000000000E+00 -0.63855830632E+03  0.63855830632E+03  0.00000000000E+00 0.  1.
         25    2    1    2    0    0 -0.25823921217E+02 -0.38921363134E+02 -0.27283323673E+03  0.30371805244E+03  0.12499973159E+03 0.  0.
         25    2    1    2    0    0  0.25823921217E+02  0.38921363134E+02 -0.33757427260E+03  0.36299105087E+03  0.12499746429E+03 0.  0.
          5    1    3    3  501    0 -0.10209852774E+02 -0.75369004555E+02 -0.24067159836E+03  0.25244729390E+03  0.47000000000E+01 0.  1.
         -5    1    3    3    0  501 -0.15614068442E+02  0.36447641420E+02 -0.32161638375E+02  0.51270758541E+02  0.47000000000E+01 0.  1.
          5    1    4    4  502    0  0.56180555918E+02  0.63203453086E+02 -0.15874371492E+03  0.17992384048E+03  0.47000000000E+01 0.  1.
         -5    1    4    4    0  502 -0.30356634702E+02 -0.24282089952E+02 -0.17883055767E+03  0.18306721039E+03  0.47000000000E+01 0.  1.
<mgrwt>
<rscale>  0 0.26814865E+03</rscale>
<asrwt>0</asrwt>
<pdfrwt beam="1">  1       21 0.43308920E-02 0.26814865E+03</pdfrwt>
<pdfrwt beam="2">  1       21 0.98239735E-01 0.26814865E+03</pdfrwt>
<totfact> 0.28739807E+05</totfact>
</mgrwt>
</event>
<event>
 8    1  0.9529436E-006  0.2623846E+03  0.7546771E-02  0.1105719E+00
         21   -1    0    0  504  503  0.00000000000E+00  0.00000000000E+00  0.19878653840E+04  0.19878653840E+04  0.00000000000E+00 0. -1.
         21   -1    0    0  503  504 -0.00000000000E+00 -0.00000000000E+00 -0.86582440274E+01  0.86582440274E+01  0.00000000000E+00 0. -1.
         25    2    1    2    0    0  0.16814437514E+02  0.35617764603E+02  0.10331830245E+04  0.10414648947E+04  0.12502245537E+03 0.  0.
         25    2    1    2    0    0 -0.16814437514E+02 -0.35617764603E+02  0.94602411546E+03  0.95505873330E+03  0.12499682618E+03 0.  0.
          5    1    3    3  501    0  0.25342785520E+02 -0.14796775411E+02  0.86747723783E+03  0.86798620352E+03  0.47000000000E+01 0.  1.
         -5    1    3    3    0  501 -0.85283480060E+01  0.50414540015E+02  0.16570578668E+03  0.17347869121E+03  0.47000000000E+01 0.  1.
          5    1    4    4  502    0 -0.16817968433E+02 -0.13602850513E+02  0.92151367555E+03  0.92177948873E+03  0.47000000000E+01 0.  1.
         -5    1    4    4    0  502  0.35309194597E-02 -0.22014914090E+02  0.24510439902E+02  0.33279244569E+02  0.47000000000E+01 0.  1.
<mgrwt>
<rscale>  0 0.26238463E+03</rscale>
<asrwt>0</asrwt>
<pdfrwt beam="1">  1       21 0.30582508E+00 0.26238463E+03</pdfrwt>
<pdfrwt beam="2">  1       21 0.13320391E-02 0.26238463E+03</pdfrwt>
<totfact> 0.71141342E+04</totfact>
</mgrwt>
</event>
<event>
 8    1  0.9529436E-006  0.2623156E+03  0.7546771E-02  0.1105760E+00
         21   -1    0    0  504  503  0.00000000000E+00  0.00000000000E+00  0.22067541045E+03  0.22067541045E+03  0.00000000000E+00 0. -1.
         21   -1    0    0  503  504 -0.00000000000E+00 -0.00000000000E+00 -0.77953238057E+02  0.77953238057E+02  0.00000000000E+00 0. -1.
         25    2    1    2    0    0 -0.39670549369E+02  0.17601027262E+01  0.71716617319E+02  0.14948125115E+03  0.12499808317E+03 0.  0.
         25    2    1    2    0    0  0.39670549369E+02 -0.17601027262E+01  0.71005555070E+02  0.14914739736E+03  0.12500522724E+03 0.  0.
          5    1    3    3  501    0  0.10091473414E+02 -0.53720667818E+02  0.18944528224E+02  0.58040788555E+02  0.47000000000E+01 0.  1.
         -5    1    3    3    0  501 -0.49762022783E+02  0.55480770544E+02  0.52772089095E+02  0.91440462592E+02  0.47000000000E+01 0.  1.
          5    1    4    4  502    0  0.72547032850E+01  0.15046742238E+01  0.10292340344E+03  0.10329671698E+03  0.47000000000E+01 0.  1.
         -5    1    4    4    0  502  0.32415846084E+02 -0.32647769500E+01 -0.31917848370E+02  0.45850680371E+02  0.47000000000E+01 0.  1.
<mgrwt>
<rscale>  0 0.26231556E+03</rscale>
<asrwt>0</asrwt>
<pdfrwt beam="1">  1       21 0.33950063E-01 0.26231556E+03</pdfrwt>
<pdfrwt beam="2">  1       21 0.11992806E-01 0.26231556E+03</pdfrwt>
<totfact> 0.48434071E+05</totfact>
</mgrwt>
</event>
<event>
 8    1  0.9529436E-006  0.2901406E+03  0.7546771E-02  0.1090276E+00
         21   -1    0    0  504  503  0.00000000000E+00  0.00000000000E+00  0.22760202946E+03  0.22760202946E+03  0.00000000000E+00 0. -1.
         21   -1    0    0  503  504 -0.00000000000E+00 -0.00000000000E+00 -0.92465777273E+02  0.92465777273E+02  0.00000000000E+00 0. -1.
         25    2    1    2    0    0  0.52632296930E+02  0.50819862618E+02  0.76507073243E+02  0.16381199119E+03  0.12501287567E+03 0.  0.
         25    2    1    2    0    0 -0.52632296930E+02 -0.50819862618E+02  0.58629178945E+02  0.15625581555E+03  0.12500272858E+03 0.  0.
          5    1    3    3  501    0  0.88280348207E+02  0.44945582750E+02  0.27820754872E+02  0.10300295962E+03  0.47000000000E+01 0.  1.
         -5    1    3    3    0  501 -0.35648051278E+02  0.58742798687E+01  0.48686318371E+02  0.60809031570E+02  0.47000000000E+01 0.  1.
          5    1    4    4  502    0 -0.30735256100E+02 -0.88931470553E+02  0.17390563228E+02  0.95801795973E+02  0.47000000000E+01 0.  1.
         -5    1    4    4    0  502 -0.21897040830E+02  0.38111607935E+02  0.41238615717E+02  0.60454019575E+02  0.47000000000E+01 0.  1.
<mgrwt>
<rscale>  0 0.29014065E+03</rscale>
<asrwt>0</asrwt>
<pdfrwt beam="1">  1       21 0.35015697E-01 0.29014065E+03</pdfrwt>
<pdfrwt beam="2">  1       21 0.14225504E-01 0.29014065E+03</pdfrwt>
<totfact> 0.33225524E+05</totfact>
</mgrwt>
</event>
<event>
 8    1  0.9529436E-006  0.2697718E+03  0.7546771E-02  0.1101410E+00
         21   -1    0    0  504  503  0.00000000000E+00  0.00000000000E+00  0.15807690787E+03  0.15807690787E+03  0.00000000000E+00 0. -1.
         21   -1    0    0  503  504 -0.00000000000E+00 -0.00000000000E+00 -0.11509715514E+03  0.11509715514E+03  0.00000000000E+00 0. -1.
         25    2    1    2    0    0 -0.63225596349E+01 -0.21342225638E+02 -0.24545666195E+02  0.12932122264E+03  0.12500409409E+03 0.  0.
         25    2    1    2    0    0  0.63225596349E+01  0.21342225638E+02  0.67525418930E+02  0.14385284037E+03  0.12505395686E+03 0.  0.
          5    1    3    3  501    0 -0.32592332773E+02  0.88375125431E+01  0.40419233678E+02  0.52878788135E+02  0.47000000000E+01 0. -1.
         -5    1    3    3    0  501  0.26269773138E+02 -0.30179738181E+02 -0.64964899873E+02  0.76442434504E+02  0.47000000000E+01 0. -1.
          5    1    4    4  502    0 -0.46864732437E+02  0.39458349475E+02  0.81684124712E+01  0.61984493642E+02  0.47000000000E+01 0. -1.
         -5    1    4    4    0  502  0.53187292072E+02 -0.18116123837E+02  0.59357006459E+02  0.81868346732E+02  0.47000000000E+01 0. -1.
<mgrwt>
<rscale>  0 0.26977177E+03</rscale>
<asrwt>0</asrwt>
<pdfrwt beam="1">  1       21 0.24319524E-01 0.26977177E+03</pdfrwt>
<pdfrwt beam="2">  1       21 0.17707255E-01 0.26977177E+03</pdfrwt>
<totfact> 0.45498230E+05</totfact>
</mgrwt>
</event>
<event>
 8    1  0.9529436E-006  0.2639552E+03  0.7546771E-02  0.1104790E+00
         21   -1    0    0  504  503  0.00000000000E+00  0.00000000000E+00  0.12727825570E+03  0.12727825570E+03  0.00000000000E+00 0. -1.
         21   -1    0    0  503  504 -0.00000000000E+00 -0.00000000000E+00 -0.13685048281E+03  0.13685048281E+03  0.00000000000E+00 0. -1.
         25    2    1    2    0    0 -0.13247403616E+02 -0.14013881581E+02  0.32944835155E+02  0.13069690401E+03  0.12499774388E+03 0.  0.
         25    2    1    2    0    0  0.13247403616E+02  0.14013881581E+02 -0.42517062268E+02  0.13343183450E+03  0.12499788516E+03 0.  0.
          5    1    3    3  501    0  0.49384023615E+02  0.20102806718E+02  0.43098582112E+01  0.53698878053E+02  0.47000000000E+01 0. -1.
         -5    1    3    3    0  501 -0.62631427231E+02 -0.34116688300E+02  0.28634976944E+02  0.76998025962E+02  0.47000000000E+01 0. -1.
          5    1    4    4  502    0  0.65196835295E+02  0.20463263910E+02 -0.46485665242E+01  0.68651814783E+02  0.47000000000E+01 0.  1.
         -5    1    4    4    0  502 -0.51949431679E+02 -0.64493823285E+01 -0.37868495744E+02  0.64780019714E+02  0.47000000000E+01 0.  1.
<mgrwt>
<rscale>  0 0.26395523E+03</rscale>
<asrwt>0</asrwt>
<pdfrwt beam="1">  1       21 0.19581270E-01 0.26395523E+03</pdfrwt>
<pdfrwt beam="2">  1       21 0.21053920E-01 0.26395523E+03</pdfrwt>
<totfact> 0.49663988E+05</totfact>
</mgrwt>
</event>
<event>
 8    1  0.9529436E-006  0.2754877E+03  0.7546771E-02  0.1098179E+00
         21   -1    0    0  504  503  0.00000000000E+00  0.00000000000E+00  0.20929998998E+03  0.20929998998E+03  0.00000000000E+00 0. -1.
         21   -1    0    0  503  504 -0.00000000000E+00 -0.00000000000E+00 -0.90651578687E+02  0.90651578687E+02  0.00000000000E+00 0. -1.
         25    2    1    2    0    0 -0.56978526025E+02 -0.58215704444E+01  0.50404069516E+02  0.14644809137E+03  0.12500412046E+03 0.  0.
         25    2    1    2    0    0  0.56978526025E+02  0.58215704444E+01  0.68244341779E+02  0.15350347730E+03  0.12500233697E+03 0.  0.
          5    1    3    3  501    0 -0.66512369568E+02  0.64783740684E+01 -0.23333761630E+02  0.70939545163E+02  0.47000000000E+01 0.  1.
         -5    1    3    3    0  501  0.95338435436E+01 -0.12299944513E+02  0.73737831147E+02  0.75508546205E+02  0.47000000000E+01 0.  1.
          5    1    4    4  502    0  0.93654215713E+02  0.16918867108E+02  0.63733149251E+02  0.11463579065E+03  0.47000000000E+01 0.  1.
         -5    1    4    4    0  502 -0.36675689688E+02 -0.11097296663E+02  0.45111925272E+01  0.38867686648E+02  0.47000000000E+01 0.  1.
<mgrwt>
<rscale>  0 0.27548775E+03</rscale>
<asrwt>0</asrwt>
<pdfrwt beam="1">  1       21 0.32199998E-01 0.27548775E+03</pdfrwt>
<pdfrwt beam="2">  1       21 0.13946397E-01 0.27548775E+03</pdfrwt>
<totfact> 0.40827772E+05</totfact>
</mgrwt>
</event>
<event>
 8    1  0.9529436E-006  0.5095653E+03  0.7546771E-02  0.1011312E+00
         21   -1    0    0  504  503  0.00000000000E+00  0.00000000000E+00  0.19044559083E+03  0.19044559083E+03  0.00000000000E+00 0. -1.
         21   -1    0    0  503  504 -0.00000000000E+00 -0.00000000000E+00 -0.34085428883E+03  0.34085428883E+03  0.00000000000E+00 0. -1.
         25    2    1    2    0    0 -0.15101574305E+03  0.14974178308E+03 -0.87367227600E+01  0.24682992874E+03  0.12498130721E+03 0.  0.
         25    2    1    2    0    0  0.15101574305E+03 -0.14974178308E+03 -0.14167197524E+03  0.28446995092E+03  0.12499539257E+03 0.  0.
          5    1    3    3  501    0 -0.58933410357E+02  0.12213459797E+03 -0.46503539261E+02  0.14343875363E+03  0.47000000000E+01 0.  1.
         -5    1    3    3    0  501 -0.92082332690E+02  0.27607185102E+02  0.37766816501E+02  0.10339117511E+03  0.47000000000E+01 0.  1.
          5    1    4    4  502    0  0.13498451050E+03 -0.55384047192E+02 -0.11250796140E+03  0.18430502472E+03  0.47000000000E+01 0.  1.
         -5    1    4    4    0  502  0.16031232546E+02 -0.94357735883E+02 -0.29164013836E+02  0.10016492620E+03  0.47000000000E+01 0.  1.
<mgrwt>
<rscale>  0 0.50956529E+03</rscale>
<asrwt>0</asrwt>
<pdfrwt beam="1">  1       21 0.29299322E-01 0.50956529E+03</pdfrwt>
<pdfrwt beam="2">  1       21 0.52439121E-01 0.50956529E+03</pdfrwt>
<totfact> 0.34742200E+04</totfact>
</mgrwt>
</event>
<event>
 8    1  0.9529436E-006  0.4795741E+03  0.7546771E-02  0.1019252E+00
         21   -1    0    0  504  503  0.00000000000E+00  0.00000000000E+00  0.21396899548E+03  0.21396899548E+03  0.00000000000E+00 0. -1.
         21   -1    0    0  503  504 -0.00000000000E+00 -0.00000000000E+00 -0.26872032884E+03  0.26872032884E+03  0.00000000000E+00 0. -1.
         25    2    1    2    0    0 -0.11795771178E+03  0.10353961229E+03 -0.15951585181E+03  0.25633325579E+03  0.12500783161E+03 0.  0.
         25    2    1    2    0    0  0.11795771178E+03 -0.10353961229E+03  0.10476451846E+03  0.22635606853E+03  0.12500796916E+03 0.  0.
          5    1    3    3  501    0 -0.88807432486E+02 -0.40333498248E+01 -0.74351053041E+02  0.11598791775E+03  0.47000000000E+01 0.  1.
         -5    1    3    3    0  501 -0.29150279295E+02  0.10757296211E+03 -0.85164798768E+02  0.14034533804E+03  0.47000000000E+01 0.  1.
          5    1    4    4  502    0 -0.22449477227E+02 -0.23003291288E+02  0.41028462869E+02  0.52331206782E+02  0.47000000000E+01 0. -1.
         -5    1    4    4    0  502  0.14040718901E+03 -0.80536320997E+02  0.63736055588E+02  0.17402486175E+03  0.47000000000E+01 0. -1.
<mgrwt>
<rscale>  0 0.47957406E+03</rscale>
<asrwt>0</asrwt>
<pdfrwt beam="1">  1       21 0.32918307E-01 0.47957406E+03</pdfrwt>
<pdfrwt beam="2">  1       21 0.41341589E-01 0.47957406E+03</pdfrwt>
<totfact> 0.45741365E+04</totfact>
</mgrwt>
</event>
<event>
 8    1  0.9529436E-006  0.2684805E+03  0.7546771E-02  0.1102152E+00
         21   -1    0    0  504  503  0.00000000000E+00  0.00000000000E+00  0.32795389775E+02  0.32795389775E+02  0.00000000000E+00 0.  1.
         21   -1    0    0  503  504 -0.00000000000E+00 -0.00000000000E+00 -0.54948111520E+03  0.54948111520E+03  0.00000000000E+00 0.  1.
         25    2    1    2    0    0  0.44968920778E+02 -0.69962055766E+01 -0.21951784675E+03  0.25669381436E+03  0.12502991066E+03 0.  0.
         25    2    1    2    0    0 -0.44968920778E+02  0.69962055766E+01 -0.29716787867E+03  0.32558269061E+03  0.12499675830E+03 0.  0.
          5    1    3    3  501    0 -0.33480841226E+02 -0.32063983987E+02 -0.11098734327E+03  0.12037170002E+03  0.47000000000E+01 0. -1.
         -5    1    3    3    0  501  0.78449762004E+02  0.25067778410E+02 -0.10853050348E+03  0.13632211434E+03  0.47000000000E+01 0. -1.
          5    1    4    4  502    0  0.89170600607E+01 -0.99986842297E+01  0.72417305713E+01  0.15938014560E+02  0.47000000000E+01 0. -1.
         -5    1    4    4    0  502 -0.53885980839E+02  0.16994889806E+02 -0.30440960924E+03  0.30964467605E+03  0.47000000000E+01 0. -1.
<mgrwt>
<rscale>  0 0.26848052E+03</rscale>
<asrwt>0</asrwt>
<pdfrwt beam="1">  1       21 0.50454446E-02 0.26848052E+03</pdfrwt>
<pdfrwt beam="2">  1       21 0.84535556E-01 0.26848052E+03</pdfrwt>
<totfact> 0.31509771E+05</totfact>
</mgrwt>
</event>
<event>
 8    1  0.9529436E-006  0.3172607E+03  0.7546771E-02  0.1076917E+00
         21   -1    0    0  504  503  0.00000000000E+00  0.00000000000E+00  0.10689795143E+03  0.10689795143E+03  0.00000000000E+00 0.  1.
         21   -1    0    0  503  504 -0.00000000000E+00 -0.00000000000E+00 -0.23539815465E+03  0.23539815465E+03  0.00000000000E+00 0.  1.
         25    2    1    2    0    0 -0.47535970792E+02  0.51292477020E+02  0.93082977869E+01  0.14353715896E+03  0.12500273947E+03 0.  0.
         25    2    1    2    0    0  0.47535970792E+02 -0.51292477020E+02 -0.13780850101E+03  0.19875894712E+03  0.12499339739E+03 0.  0.
          5    1    3    3  501    0  0.38420344779E+02 -0.54007952786E+01 -0.52688523713E+01  0.39435292416E+02  0.47000000000E+01 0. -1.
         -5    1    3    3    0  501 -0.85956315571E+02  0.56693272299E+02  0.14577150158E+02  0.10410186654E+03  0.47000000000E+01 0. -1.
          5    1    4    4  502    0  0.35284772522E+02 -0.51950265152E+02 -0.27213957077E+01  0.63034444678E+02  0.47000000000E+01 0.  1.
         -5    1    4    4    0  502  0.12251198270E+02  0.65778813169E+00 -0.13508710531E+03  0.13572450245E+03  0.47000000000E+01 0.  1.
<mgrwt>
<rscale>  0 0.31726065E+03</rscale>
<asrwt>0</asrwt>
<pdfrwt beam="1">  1       21 0.16445839E-01 0.31726065E+03</pdfrwt>
<pdfrwt beam="2">  1       21 0.36215100E-01 0.31726065E+03</pdfrwt>
<totfact> 0.23641563E+05</totfact>
</mgrwt>
</event>
<event>
 8    1  0.9529436E-006  0.2905373E+03  0.7546771E-02  0.1090069E+00
         21   -1    0    0  504  503  0.00000000000E+00  0.00000000000E+00  0.22082186953E+02  0.22082186953E+02  0.00000000000E+00 0.  1.
         21   -1    0    0  503  504 -0.00000000000E+00 -0.00000000000E+00 -0.95565648096E+03  0.95565648096E+03  0.00000000000E+00 0.  1.
         25    2    1    2    0    0 -0.10076054683E+02 -0.66328887185E+02 -0.36151221421E+03  0.38834845280E+03  0.12498956603E+03 0.  0.
         25    2    1    2    0    0  0.10076054683E+02  0.66328887185E+02 -0.57206207979E+03  0.58939021511E+03  0.12499901751E+03 0.  0.
          5    1    3    3  501    0  0.40432551565E+01 -0.32845067602E+02 -0.99397287019E+01  0.34871687437E+02  0.47000000000E+01 0. -1.
         -5    1    3    3    0  501 -0.14119309839E+02 -0.33483819583E+02 -0.35157248551E+03  0.35347676536E+03  0.47000000000E+01 0. -1.
          5    1    4    4  502    0 -0.17186483691E+02  0.56297878023E+02 -0.54856198558E+03  0.55173106521E+03  0.47000000000E+01 0. -1.
         -5    1    4    4    0  502  0.27262538373E+02  0.10031009162E+02 -0.23500094212E+02  0.37659149902E+02  0.47000000000E+01 0. -1.
<mgrwt>
<rscale>  0 0.29053733E+03</rscale>
<asrwt>0</asrwt>
<pdfrwt beam="1">  1       21 0.33972592E-02 0.29053733E+03</pdfrwt>
<pdfrwt beam="2">  1       21 0.14702409E+00 0.29053733E+03</pdfrwt>
<totfact> 0.15635842E+05</totfact>
</mgrwt>
</event>
<event>
 8    1  0.9529436E-006  0.4871981E+03  0.7546771E-02  0.1017175E+00
         21   -1    0    0  504  503  0.00000000000E+00  0.00000000000E+00  0.10805779799E+03  0.10805779799E+03  0.00000000000E+00 0. -1.
         21   -1    0    0  503  504 -0.00000000000E+00 -0.00000000000E+00 -0.54915514515E+03  0.54915514515E+03  0.00000000000E+00 0. -1.
         25    2    1    2    0    0 -0.50835838992E+02  0.11416251620E+03 -0.44667081368E+03  0.48037077913E+03  0.12499562800E+03 0.  0.
         25    2    1    2    0    0  0.50835838992E+02 -0.11416251620E+03  0.55734665268E+01  0.17684216401E+03  0.12499889923E+03 0.  0.
          5    1    3    3  501    0 -0.61608181404E+02  0.66218039357E+02 -0.40724685981E+03  0.41719598701E+03  0.47000000000E+01 0.  1.
         -5    1    3    3    0  501  0.10772342412E+02  0.47944476842E+02 -0.39423953868E+02  0.63174792119E+02  0.47000000000E+01 0.  1.
          5    1    4    4  502    0  0.49651666511E+02  0.10648816672E+02 -0.62456020563E+01  0.51378816928E+02  0.47000000000E+01 0. -1.
         -5    1    4    4    0  502  0.11841724806E+01 -0.12481133287E+03  0.11819068583E+02  0.12546334708E+03  0.47000000000E+01 0. -1.
<mgrwt>
<rscale>  0 0.48719809E+03</rscale>
<asrwt>0</asrwt>
<pdfrwt beam="1">  1       21 0.16624277E-01 0.48719809E+03</pdfrwt>
<pdfrwt beam="2">  1       21 0.84485406E-01 0.48719809E+03</pdfrwt>
<totfact> 0.35756219E+04</totfact>
</mgrwt>
</event>
<event>
 8    1  0.9529436E-006  0.2878263E+03  0.7546771E-02  0.1091490E+00
         21   -1    0    0  504  503  0.00000000000E+00  0.00000000000E+00  0.19522496559E+03  0.19522496559E+03  0.00000000000E+00 0. -1.
         21   -1    0    0  503  504 -0.00000000000E+00 -0.00000000000E+00 -0.10608781401E+03  0.10608781401E+03  0.00000000000E+00 0. -1.
         25    2    1    2    0    0  0.63102980816E+02 -0.67010289492E+01  0.10481310928E+02  0.14056885704E+03  0.12499142256E+03 0.  0.
         25    2    1    2    0    0 -0.63102980816E+02  0.67010289492E+01  0.78655840656E+02  0.16074392256E+03  0.12499990958E+03 0.  0.
          5    1    3    3  501    0 -0.27322473874E+02 -0.34001029803E+02 -0.69028982139E+01  0.44410895172E+02  0.47000000000E+01 0. -1.
         -5    1    3    3    0  501  0.90425454690E+02  0.27300000854E+02  0.17384209142E+02  0.96157961865E+02  0.47000000000E+01 0. -1.
          5    1    4    4  502    0 -0.24098589988E+02 -0.54105851015E+02  0.86585011553E+01  0.60043690723E+02  0.47000000000E+01 0.  1.
         -5    1    4    4    0  502 -0.39004390829E+02  0.60806879964E+02  0.69997339501E+02  0.10070023184E+03  0.47000000000E+01 0.  1.
<mgrwt>
<rscale>  0 0.28782627E+03</rscale>
<asrwt>0</asrwt>
<pdfrwt beam="1">  1       21 0.30034610E-01 0.28782627E+03</pdfrwt>
<pdfrwt beam="2">  1       21 0.16321202E-01 0.28782627E+03</pdfrwt>
<totfact> 0.35008166E+05</totfact>
</mgrwt>
</event>
<event>
 8    1  0.9529436E-006  0.3041302E+03  0.7546771E-02  0.1083194E+00
         21   -1    0    0  504  503  0.00000000000E+00  0.00000000000E+00  0.27715868226E+03  0.27715868226E+03  0.00000000000E+00 0. -1.
         21   -1    0    0  503  504 -0.00000000000E+00 -0.00000000000E+00 -0.83431607932E+02  0.83431607932E+02  0.00000000000E+00 0. -1.
         25    2    1    2    0    0 -0.24435279215E+02 -0.55634165222E+02  0.23718906674E+02  0.14099917969E+03  0.12500375566E+03 0.  0.
         25    2    1    2    0    0  0.24435279215E+02  0.55634165222E+02  0.17000816765E+03  0.21959111050E+03  0.12500094212E+03 0.  0.
          5    1    3    3  501    0  0.38205947932E+02  0.20507833170E+01 -0.21842630666E+02  0.44306779210E+02  0.47000000000E+01 0. -1.
         -5    1    3    3    0  501 -0.62641227147E+02 -0.57684948539E+02  0.45561537340E+02  0.96692400483E+02  0.47000000000E+01 0. -1.
          5    1    4    4  502    0  0.91603197190E+01  0.95325488433E+02  0.12427564029E+03  0.15696300511E+03  0.47000000000E+01 0. -1.
         -5    1    4    4    0  502  0.15274959496E+02 -0.39691323211E+02  0.45732527362E+02  0.62628105390E+02  0.47000000000E+01 0. -1.
<mgrwt>
<rscale>  0 0.30413020E+03</rscale>
<asrwt>0</asrwt>
<pdfrwt beam="1">  1       21 0.42639797E-01 0.30413020E+03</pdfrwt>
<pdfrwt beam="2">  1       21 0.12835632E-01 0.30413020E+03</pdfrwt>
<totfact> 0.26784950E+05</totfact>
</mgrwt>
</event>
<event>
 8    1  0.9529436E-006  0.4388880E+03  0.7546771E-02  0.1031089E+00
         21   -1    0    0  504  503  0.00000000000E+00  0.00000000000E+00  0.17097337220E+04  0.17097337220E+04  0.00000000000E+00 0. -1.
         21   -1    0    0  503  504 -0.00000000000E+00 -0.00000000000E+00 -0.28165593418E+02  0.28165593418E+02  0.00000000000E+00 0. -1.
         25    2    1    2    0    0 -0.26278640717E+02 -0.17837951326E+03  0.85893503169E+03  0.88651207536E+03  0.12499781353E+03 0.  0.
         25    2    1    2    0    0  0.26278640717E+02  0.17837951326E+03  0.82263309691E+03  0.85138724008E+03  0.12500081089E+03 0.  0.
          5    1    3    3  501    0  0.18159445368E+02 -0.16705386430E+03  0.58296359609E+03  0.60671690549E+03  0.47000000000E+01 0.  1.
         -5    1    3    3    0  501 -0.44438086084E+02 -0.11325648960E+02  0.27597143560E+03  0.27979516988E+03  0.47000000000E+01 0.  1.
          5    1    4    4  502    0  0.67610517485E+02  0.60765048513E+02  0.27305942176E+03  0.28783174079E+03  0.47000000000E+01 0. -1.
         -5    1    4    4    0  502 -0.41331876769E+02  0.11761446475E+03  0.54957367515E+03  0.56355549928E+03  0.47000000000E+01 0. -1.
<mgrwt>
<rscale>  0 0.43888798E+03</rscale>
<asrwt>0</asrwt>
<pdfrwt beam="1">  1       21 0.26303588E+00 0.43888798E+03</pdfrwt>
<pdfrwt beam="2">  1       21 0.43331695E-02 0.43888798E+03</pdfrwt>
<totfact> 0.16509361E+04</totfact>
</mgrwt>
</event>
<event>
 8    1  0.9529436E-006  0.5225085E+03  0.7546771E-02  0.1008065E+00
         21   -1    0    0  504  503  0.00000000000E+00  0.00000000000E+00  0.60886481613E+03  0.60886481613E+03  0.00000000000E+00 0.  1.
         21   -1    0    0  503  504 -0.00000000000E+00 -0.00000000000E+00 -0.11210004518E+03  0.11210004518E+03  0.00000000000E+00 0.  1.
         25    2    1    2    0    0  0.10383713760E+03  0.35289110891E+02 -0.29646515912E+02  0.16891100928E+03  0.12499816263E+03 0.  0.
         25    2    1    2    0    0 -0.10383713760E+03 -0.35289110891E+02  0.52641128686E+03  0.55205385203E+03  0.12500856018E+03 0.  0.
          5    1    3    3  501    0  0.44955734934E+02  0.75207200113E+02 -0.40773292202E+02  0.96755839148E+02  0.47000000000E+01 0.  1.
         -5    1    3    3    0  501  0.58881402662E+02 -0.39918089222E+02  0.11126776289E+02  0.72155170135E+02  0.47000000000E+01 0.  1.
          5    1    4    4  502    0 -0.44026372106E+02 -0.47039993278E+02  0.44796389475E+03  0.45259786059E+03  0.47000000000E+01 0. -1.
         -5    1    4    4    0  502 -0.59810765490E+02  0.11750882386E+02  0.78447392111E+02  0.99455991445E+02  0.47000000000E+01 0. -1.
<mgrwt>
<rscale>  0 0.52250846E+03</rscale>
<asrwt>0</asrwt>
<pdfrwt beam="1">  1       21 0.93671508E-01 0.52250846E+03</pdfrwt>
<pdfrwt beam="2">  1       21 0.17246161E-01 0.52250846E+03</pdfrwt>
<totfact> 0.25931396E+04</totfact>
</mgrwt>
</event>
<event>
 8    1  0.9529436E-006  0.2825930E+03  0.7546771E-02  0.1094281E+00
         21   -1    0    0  504  503  0.00000000000E+00  0.00000000000E+00  0.11651958755E+03  0.11651958755E+03  0.00000000000E+00 0.  1.
         21   -1    0    0  503  504 -0.00000000000E+00 -0.00000000000E+00 -0.17134196386E+03  0.17134196386E+03  0.00000000000E+00 0.  1.
         25    2    1    2    0    0  0.19742374267E+02  0.31253971054E+01  0.36543799312E+02  0.13174554078E+03  0.12498763458E+03 0.  0.
         25    2    1    2    0    0 -0.19742374267E+02 -0.31253971054E+01 -0.91366175621E+02  0.15611601062E+03  0.12499960510E+03 0.  0.
          5    1    3    3  501    0  0.70098298837E+02  0.41142218396E+01  0.40166204440E+02  0.81031551265E+02  0.47000000000E+01 0.  1.
         -5    1    3    3    0  501 -0.50355924570E+02 -0.98882473420E+00 -0.36224051277E+01  0.50713989516E+02  0.47000000000E+01 0.  1.
          5    1    4    4  502    0  0.42849989143E+02  0.31058348923E+02 -0.52787939743E+02  0.74895922384E+02  0.47000000000E+01 0.  1.
         -5    1    4    4    0  502 -0.62592363411E+02 -0.34183746029E+02 -0.38578235878E+02  0.81220088238E+02  0.47000000000E+01 0.  1.
<mgrwt>
<rscale>  0 0.28259296E+03</rscale>
<asrwt>0</asrwt>
<pdfrwt beam="1">  1       21 0.17926090E-01 0.28259296E+03</pdfrwt>
<pdfrwt beam="2">  1       21 0.26360302E-01 0.28259296E+03</pdfrwt>
<totfact> 0.37983746E+05</totfact>
</mgrwt>
</event>
<event>
 8    1  0.9529436E-006  0.3726382E+03  0.7546771E-02  0.1053689E+00
         21   -1    0    0  504  503  0.00000000000E+00  0.00000000000E+00  0.74316845619E+02  0.74316845619E+02  0.00000000000E+00 0. -1.
         21   -1    0    0  503  504 -0.00000000000E+00 -0.00000000000E+00 -0.46711887844E+03  0.46711887844E+03  0.00000000000E+00 0. -1.
         25    2    1    2    0    0  0.14663133355E+02 -0.46000419179E+02 -0.38449330850E+03  0.40717526534E+03  0.12500218547E+03 0.  0.
         25    2    1    2    0    0 -0.14663133355E+02  0.46000419179E+02 -0.83087243209E+01  0.13426045873E+03  0.12500315929E+03 0.  0.
          5    1    3    3  501    0  0.10650248859E+02 -0.20244623686E+01 -0.35187925047E+03  0.35207758117E+03  0.47000000000E+01 0. -1.
         -5    1    3    3    0  501  0.40128844961E+01 -0.43975956810E+02 -0.32614058033E+02  0.55097684169E+02  0.47000000000E+01 0. -1.
          5    1    4    4  502    0 -0.44858289328E+01  0.63419920760E+02  0.44358576570E+02  0.77665837572E+02  0.47000000000E+01 0. -1.
         -5    1    4    4    0  502 -0.10177304423E+02 -0.17419501581E+02 -0.52667300891E+02  0.56594621156E+02  0.47000000000E+01 0. -1.
<mgrwt>
<rscale>  0 0.37263817E+03</rscale>
<asrwt>0</asrwt>
<pdfrwt beam="1">  1       21 0.11433361E-01 0.37263817E+03</pdfrwt>
<pdfrwt beam="2">  1       21 0.71864443E-01 0.37263817E+03</pdfrwt>
<totfact> 0.10593324E+05</totfact>
</mgrwt>
</event>
<event>
 8    1  0.9529436E-006  0.2624170E+03  0.7546771E-02  0.1105700E+00
         21   -1    0    0  504  503  0.00000000000E+00  0.00000000000E+00  0.10892825350E+03  0.10892825350E+03  0.00000000000E+00 0. -1.
         21   -1    0    0  503  504 -0.00000000000E+00 -0.00000000000E+00 -0.15804598081E+03  0.15804598081E+03  0.00000000000E+00 0. -1.
         25    2    1    2    0    0 -0.34394867810E+02 -0.19690032965E+02 -0.19993388506E+02  0.13264535167E+03  0.12499739760E+03 0.  0.
         25    2    1    2    0    0  0.34394867810E+02  0.19690032965E+02 -0.29124338802E+02  0.13432888264E+03  0.12500126908E+03 0.  0.
          5    1    3    3  501    0 -0.55958226711E+01 -0.23067589328E+02 -0.70323510024E+02  0.74370108046E+02  0.47000000000E+01 0.  1.
         -5    1    3    3    0  501 -0.28799045139E+02  0.33775563628E+01  0.50330121517E+02  0.58275243628E+02  0.47000000000E+01 0.  1.
          5    1    4    4  502    0  0.71719408210E+02  0.43632518680E+02 -0.65154943293E+01  0.84332744926E+02  0.47000000000E+01 0.  1.
         -5    1    4    4    0  502 -0.37324540400E+02 -0.23942485715E+02 -0.22608844473E+02  0.49996137718E+02  0.47000000000E+01 0.  1.
<mgrwt>
<rscale>  0 0.26241702E+03</rscale>
<asrwt>0</asrwt>
<pdfrwt beam="1">  1       21 0.16758193E-01 0.26241702E+03</pdfrwt>
<pdfrwt beam="2">  1       21 0.24314766E-01 0.26241702E+03</pdfrwt>
<totfact> 0.50478108E+05</totfact>
</mgrwt>
</event>
<event>
 8    1  0.9529436E-006  0.2652447E+03  0.7546771E-02  0.1104032E+00
         21   -1    0    0  504  503  0.00000000000E+00  0.00000000000E+00  0.32648665371E+02  0.32648665371E+02  0.00000000000E+00 0. -1.
         21   -1    0    0  503  504 -0.00000000000E+00 -0.00000000000E+00 -0.53872607314E+03  0.53872607314E+03  0.00000000000E+00 0. -1.
         25    2    1    2    0    0  0.31681940595E+02  0.72836880758E+00 -0.31974842374E+03  0.34477201379E+03  0.12499764449E+03 0.  0.
         25    2    1    2    0    0 -0.31681940595E+02 -0.72836880758E+00 -0.18632898403E+03  0.22660272472E+03  0.12500411466E+03 0.  0.
          5    1    3    3  501    0  0.16129798387E+02  0.61716630003E+02 -0.19019540200E+03  0.20066263668E+03  0.47000000000E+01 0.  1.
         -5    1    3    3    0  501  0.15552142208E+02 -0.60988261195E+02 -0.12955302174E+03  0.14410937711E+03  0.47000000000E+01 0.  1.
          5    1    4    4  502    0  0.20800316805E+02  0.48951034102E+02 -0.10435393404E+03  0.11722069130E+03  0.47000000000E+01 0.  1.
         -5    1    4    4    0  502 -0.52482257400E+02 -0.49679402909E+02 -0.81975049992E+02  0.10938203343E+03  0.47000000000E+01 0.  1.
<mgrwt>
<rscale>  0 0.26524470E+03</rscale>
<asrwt>0</asrwt>
<pdfrwt beam="1">  1       21 0.50228717E-02 0.26524470E+03</pdfrwt>
<pdfrwt beam="2">  1       21 0.82880932E-01 0.26524470E+03</pdfrwt>
<totfact> 0.33254241E+05</totfact>
</mgrwt>
</event>
<event>
 8    1  0.9529436E-006  0.2911991E+03  0.7546771E-02  0.1089725E+00
         21   -1    0    0  504  503  0.00000000000E+00  0.00000000000E+00  0.42266918974E+03  0.42266918974E+03  0.00000000000E+00 0.  1.
         21   -1    0    0  503  504 -0.00000000000E+00 -0.00000000000E+00 -0.50155619439E+02  0.50155619439E+02  0.00000000000E+00 0.  1.
         25    2    1    2    0    0  0.80641717277E+01 -0.74183980836E+02  0.18179031520E+03  0.23289037796E+03  0.12498766166E+03 0.  0.
         25    2    1    2    0    0 -0.80641717277E+01  0.74183980836E+02  0.19072325510E+03  0.23993443122E+03  0.12499950948E+03 0.  0.
          5    1    3    3  501    0  0.59350236873E+02 -0.46664767860E+02  0.55712369717E+02  0.93946843033E+02  0.47000000000E+01 0.  1.
         -5    1    3    3    0  501 -0.51286065146E+02 -0.27519212975E+02  0.12607794548E+03  0.13894353493E+03  0.47000000000E+01 0.  1.
          5    1    4    4  502    0  0.39707230410E+00  0.80273055771E+02  0.41901204459E+02  0.90673712201E+02  0.47000000000E+01 0.  1.
         -5    1    4    4    0  502 -0.84612440318E+01 -0.60890749352E+01  0.14882205064E+03  0.14926071902E+03  0.47000000000E+01 0.  1.
<mgrwt>
<rscale>  0 0.29119914E+03</rscale>
<asrwt>0</asrwt>
<pdfrwt beam="1">  1       21 0.65026027E-01 0.29119914E+03</pdfrwt>
<pdfrwt beam="2">  1       21 0.77162494E-02 0.29119914E+03</pdfrwt>
<totfact> 0.27136258E+05</totfact>
</mgrwt>
</event>
<event>
 8    1  0.9529436E-006  0.4087737E+03  0.7546771E-02  0.1040783E+00
         21   -1    0    0  504  503  0.00000000000E+00  0.00000000000E+00  0.49311668869E+03  0.49311668869E+03  0.00000000000E+00 0. -1.
         21   -1    0    0  503  504 -0.00000000000E+00 -0.00000000000E+00 -0.84714189474E+02  0.84714189474E+02  0.00000000000E+00 0. -1.
         25    2    1    2    0    0  0.11658561884E+03  0.20302534349E+02  0.35998257864E+03  0.39901800698E+03  0.12499405406E+03 0.  0.
         25    2    1    2    0    0 -0.11658561884E+03 -0.20302534349E+02  0.48419920580E+02  0.17881287118E+03  0.12500061908E+03 0.  0.
          5    1    3    3  501    0  0.10606958956E+03 -0.19502658533E+02  0.33176213050E+03  0.34888294993E+03  0.47000000000E+01 0.  1.
         -5    1    3    3    0  501  0.10516029288E+02  0.39805192882E+02  0.28220448136E+02  0.50135057049E+02  0.47000000000E+01 0.  1.
          5    1    4    4  502    0 -0.38021550211E+02 -0.67503866252E+02  0.64120547730E+01  0.77882056251E+02  0.47000000000E+01 0. -1.
         -5    1    4    4    0  502 -0.78564068632E+02  0.47201331903E+02  0.42007865807E+02  0.10093081493E+03  0.47000000000E+01 0. -1.
<mgrwt>
<rscale>  0 0.40877368E+03</rscale>
<asrwt>0</asrwt>
<pdfrwt beam="1">  1       21 0.75864104E-01 0.40877368E+03</pdfrwt>
<pdfrwt beam="2">  1       21 0.13032953E-01 0.40877368E+03</pdfrwt>
<totfact> 0.73233035E+04</totfact>
</mgrwt>
</event>
<event>
 8    1  0.9529436E-006  0.2849348E+03  0.7546771E-02  0.1093024E+00
         21   -1    0    0  504  503  0.00000000000E+00  0.00000000000E+00  0.39826563458E+03  0.39826563458E+03  0.00000000000E+00 0. -1.
         21   -1    0    0  503  504 -0.00000000000E+00 -0.00000000000E+00 -0.50963360818E+02  0.50963360818E+02  0.00000000000E+00 0. -1.
         25    2    1    2    0    0  0.35142854351E+01  0.63770701899E+02  0.13523709065E+03  0.19491740113E+03  0.12499867981E+03 0.  0.
         25    2    1    2    0    0 -0.35142854351E+01 -0.63770701899E+02  0.21206518312E+03  0.25431159427E+03  0.12499476976E+03 0.  0.
          5    1    3    3  501    0 -0.49026774691E+01 -0.21127825997E+02  0.10010011783E+03  0.10253070207E+03  0.47000000000E+01 0. -1.
         -5    1    3    3    0  501  0.84169629042E+01  0.84898527897E+02  0.35136972813E+02  0.92386699054E+02  0.47000000000E+01 0. -1.
          5    1    4    4  502    0  0.35605745471E+02 -0.82250601994E+02  0.17688199660E+03  0.19834883756E+03  0.47000000000E+01 0.  1.
         -5    1    4    4    0  502 -0.39120030906E+02  0.18479900095E+02  0.35183186519E+02  0.55962756716E+02  0.47000000000E+01 0.  1.
<mgrwt>
<rscale>  0 0.28493477E+03</rscale>
<asrwt>0</asrwt>
<pdfrwt beam="1">  1       21 0.61271634E-01 0.28493477E+03</pdfrwt>
<pdfrwt beam="2">  1       21 0.78405173E-02 0.28493477E+03</pdfrwt>
<totfact> 0.30093246E+05</totfact>
</mgrwt>
</event>
<event>
 8    1  0.9529436E-006  0.4079505E+03  0.7546771E-02  0.1041061E+00
         21   -1    0    0  504  503  0.00000000000E+00  0.00000000000E+00  0.10285505783E+04  0.10285505783E+04  0.00000000000E+00 0.  1.
         21   -1    0    0  503  504 -0.00000000000E+00 -0.00000000000E+00 -0.40450998457E+02  0.40450998457E+02  0.00000000000E+00 0.  1.
         25    2    1    2    0    0 -0.16077123847E+03 -0.27043950922E-01  0.46414321383E+03  0.50685314444E+03  0.12499518084E+03 0.  0.
         25    2    1    2    0    0  0.16077123847E+03  0.27043950922E-01  0.52395636598E+03  0.56214843229E+03  0.12503277417E+03 0.  0.
          5    1    3    3  501    0 -0.10961748104E+03  0.13614420594E+02  0.14004889055E+03  0.17842961173E+03  0.47000000000E+01 0. -1.
         -5    1    3    3    0  501 -0.51153757428E+02 -0.13641464544E+02  0.32409432328E+03  0.32842353271E+03  0.47000000000E+01 0. -1.
          5    1    4    4  502    0  0.91819279931E+02  0.57171154692E+02  0.21931494989E+03  0.24458221182E+03  0.47000000000E+01 0.  1.
         -5    1    4    4    0  502  0.68951958541E+02 -0.57144110741E+02  0.30464141609E+03  0.31756622046E+03  0.47000000000E+01 0.  1.
<mgrwt>
<rscale>  0 0.40795048E+03</rscale>
<asrwt>0</asrwt>
<pdfrwt beam="1">  1       21 0.15823853E+00 0.40795048E+03</pdfrwt>
<pdfrwt beam="2">  1       21 0.62232313E-02 0.40795048E+03</pdfrwt>
<totfact> 0.43942945E+04</totfact>
</mgrwt>
</event>
<event>
 8    1  0.9529436E-006  0.3063043E+03  0.7546771E-02  0.1082131E+00
         21   -1    0    0  504  503  0.00000000000E+00  0.00000000000E+00  0.26244704820E+02  0.26244704820E+02  0.00000000000E+00 0. -1.
         21   -1    0    0  503  504 -0.00000000000E+00 -0.00000000000E+00 -0.89372602980E+03  0.89372602980E+03  0.00000000000E+00 0. -1.
         25    2    1    2    0    0 -0.75963882953E+02  0.37740223825E+02 -0.50948468404E+03  0.53140846992E+03  0.12500193045E+03 0.  0.
         25    2    1    2    0    0  0.75963882953E+02 -0.37740223825E+02 -0.35799664093E+03  0.38856226470E+03  0.12499681044E+03 0.  0.
          5    1    3    3  501    0  0.10297973530E+02  0.56695962056E+02 -0.26982632854E+03  0.27595075275E+03  0.47000000000E+01 0.  1.
         -5    1    3    3    0  501 -0.86261856482E+02 -0.18955738230E+02 -0.23965835550E+03  0.25545771716E+03  0.47000000000E+01 0.  1.
          5    1    4    4  502    0  0.97526499864E+02  0.62247228001E+01 -0.27729873109E+03  0.29405244705E+03  0.47000000000E+01 0.  1.
         -5    1    4    4    0  502 -0.21562616911E+02 -0.43964946625E+02 -0.80697909844E+02  0.94509817654E+02  0.47000000000E+01 0.  1.
<mgrwt>
<rscale>  0 0.30630427E+03</rscale>
<asrwt>0</asrwt>
<pdfrwt beam="1">  1       21 0.40376470E-02 0.30630427E+03</pdfrwt>
<pdfrwt beam="2">  1       21 0.13749631E+00 0.30630427E+03</pdfrwt>
<totfact> 0.13878372E+05</totfact>
</mgrwt>
</event>
<event>
 8    1  0.9529436E-006  0.2749238E+03  0.7546771E-02  0.1098494E+00
         21   -1    0    0  504  503  0.00000000000E+00  0.00000000000E+00  0.11426710558E+03  0.11426710558E+03  0.00000000000E+00 0.  1.
         21   -1    0    0  503  504 -0.00000000000E+00 -0.00000000000E+00 -0.16536491359E+03  0.16536491359E+03  0.00000000000E+00 0.  1.
         25    2    1    2    0    0  0.38967155452E+02 -0.33107806172E+02  0.49354457069E+00  0.13505280694E+03  0.12499780415E+03 0.  0.
         25    2    1    2    0    0 -0.38967155452E+02  0.33107806172E+02 -0.51591352581E+02  0.14457921222E+03  0.12500765941E+03 0.  0.
          5    1    3    3  501    0 -0.42006686749E+01 -0.41569070132E-01  0.56499774494E+02  0.56850346201E+02  0.47000000000E+01 0.  1.
         -5    1    3    3    0  501  0.43167824127E+02 -0.33066237101E+02 -0.56006229923E+02  0.78202460742E+02  0.47000000000E+01 0.  1.
          5    1    4    4  502    0 -0.43236838096E+02  0.23445192397E+02 -0.90979006215E+02  0.10352956480E+03  0.47000000000E+01 0. -1.
         -5    1    4    4    0  502  0.42696826444E+01  0.96626137742E+01  0.39387653633E+02  0.41049647423E+02  0.47000000000E+01 0. -1.
<mgrwt>
<rscale>  0 0.27492377E+03</rscale>
<asrwt>0</asrwt>
<pdfrwt beam="1">  1       21 0.17579555E-01 0.27492377E+03</pdfrwt>
<pdfrwt beam="2">  1       21 0.25440756E-01 0.27492377E+03</pdfrwt>
<totfact> 0.42246681E+05</totfact>
</mgrwt>
</event>
<event>
 8    1  0.9529436E-006  0.3684304E+03  0.7546771E-02  0.1055295E+00
         21   -1    0    0  504  503  0.00000000000E+00  0.00000000000E+00  0.31821216491E+03  0.31821216491E+03  0.00000000000E+00 0.  1.
         21   -1    0    0  503  504 -0.00000000000E+00 -0.00000000000E+00 -0.10664344066E+03  0.10664344066E+03  0.00000000000E+00 0.  1.
         25    2    1    2    0    0 -0.63926939421E+02  0.11422958291E+03  0.14537811528E+03  0.23215330980E+03  0.12500124661E+03 0.  0.
         25    2    1    2    0    0  0.63926939421E+02 -0.11422958291E+03  0.66190608967E+02  0.19270229577E+03  0.12497170433E+03 0.  0.
          5    1    3    3  501    0 -0.75221307488E+02  0.22040142225E+02  0.30233441737E+02  0.84143710215E+02  0.47000000000E+01 0. -1.
         -5    1    3    3    0  501  0.11294368067E+02  0.92189440682E+02  0.11514467355E+03  0.14800959959E+03  0.47000000000E+01 0. -1.
          5    1    4    4  502    0  0.90836473709E+02 -0.35505463193E+02  0.34879790672E+02  0.10368506483E+03  0.47000000000E+01 0. -1.
         -5    1    4    4    0  502 -0.26909534289E+02 -0.78724119713E+02  0.31310818295E+02  0.89017230930E+02  0.47000000000E+01 0. -1.
<mgrwt>
<rscale>  0 0.36843040E+03</rscale>
<asrwt>0</asrwt>
<pdfrwt beam="1">  1       21 0.48955717E-01 0.36843040E+03</pdfrwt>
<pdfrwt beam="2">  1       21 0.16406683E-01 0.36843040E+03</pdfrwt>
<totfact> 0.12616373E+05</totfact>
</mgrwt>
</event>
<event>
 8    1  0.9529436E-006  0.3108000E+03  0.7546771E-02  0.1079963E+00
         21   -1    0    0  504  503  0.00000000000E+00  0.00000000000E+00  0.29136892418E+03  0.29136892418E+03  0.00000000000E+00 0. -1.
         21   -1    0    0  503  504 -0.00000000000E+00 -0.00000000000E+00 -0.82881708978E+02  0.82881708978E+02  0.00000000000E+00 0. -1.
         25    2    1    2    0    0  0.84187839488E+02 -0.10692866846E+02  0.60498950432E+02  0.16276651839E+03  0.12502354493E+03 0.  0.
         25    2    1    2    0    0 -0.84187839488E+02  0.10692866846E+02  0.14798826477E+03  0.21148411477E+03  0.12499229804E+03 0.  0.
          5    1    3    3  501    0  0.91366003982E+02 -0.31777167147E+02 -0.13539279444E+01  0.96857927690E+02  0.47000000000E+01 0.  1.
         -5    1    3    3    0  501 -0.71781644944E+01  0.21084300301E+02  0.61852878376E+02  0.65908590700E+02  0.47000000000E+01 0.  1.
          5    1    4    4  502    0 -0.71372613959E+02  0.32113562960E+02  0.19886104145E+02  0.80888058992E+02  0.47000000000E+01 0. -1.
         -5    1    4    4    0  502 -0.12815225529E+02 -0.21420696115E+02  0.12810216062E+03  0.13059605577E+03  0.47000000000E+01 0. -1.
<mgrwt>
<rscale>  0 0.31079996E+03</rscale>
<asrwt>0</asrwt>
<pdfrwt beam="1">  1       21 0.44825988E-01 0.31079996E+03</pdfrwt>
<pdfrwt beam="2">  1       21 0.12751032E-01 0.31079996E+03</pdfrwt>
<totfact> 0.24412055E+05</totfact>
</mgrwt>
</event>
<event>
 8    1  0.9529436E-006  0.5315989E+03  0.7546771E-02  0.1005845E+00
         21   -1    0    0  504  503  0.00000000000E+00  0.00000000000E+00  0.80225963121E+03  0.80225963121E+03  0.00000000000E+00 0.  1.
         21   -1    0    0  503  504 -0.00000000000E+00 -0.00000000000E+00 -0.88062932065E+02  0.88062932065E+02  0.00000000000E+00 0.  1.
         25    2    1    2    0    0  0.87782398830E+02  0.58601390297E+02  0.70794296697E+03  0.72660073774E+03  0.12500206039E+03 0.  0.
         25    2    1    2    0    0 -0.87782398830E+02 -0.58601390297E+02  0.62537321676E+01  0.16372182554E+03  0.12500341796E+03 0.  0.
          5    1    3    3  501    0  0.10632257807E+02 -0.21691718412E+02  0.36868037035E+03  0.36950085390E+03  0.47000000000E+01 0.  1.
         -5    1    3    3    0  501  0.77150141023E+02  0.80293108709E+02  0.33926259662E+03  0.35709988383E+03  0.47000000000E+01 0.  1.
          5    1    4    4  502    0 -0.57630191072E+02  0.25230576170E+01 -0.49017705837E+02  0.75844777198E+02  0.47000000000E+01 0.  1.
         -5    1    4    4    0  502 -0.30152207758E+02 -0.61124447914E+02  0.55271438005E+02  0.87877048338E+02  0.47000000000E+01 0.  1.
<mgrwt>
<rscale>  0 0.53159885E+03</rscale>
<asrwt>0</asrwt>
<pdfrwt beam="1">  1       21 0.12342455E+00 0.53159885E+03</pdfrwt>
<pdfrwt beam="2">  1       21 0.13548144E-01 0.53159885E+03</pdfrwt>
<totfact> 0.20463312E+04</totfact>
</mgrwt>
</event>
<event>
 8    1  0.9529436E-006  0.3523437E+03  0.7546771E-02  0.1061657E+00
         21   -1    0    0  504  503  0.00000000000E+00  0.00000000000E+00  0.12502793665E+03  0.12502793665E+03  0.00000000000E+00 0.  1.
         21   -1    0    0  503  504 -0.00000000000E+00 -0.00000000000E+00 -0.24823661736E+03  0.24823661736E+03  0.00000000000E+00 0.  1.
         25    2    1    2    0    0  0.74974273845E+02  0.88810050385E+02 -0.15380554394E+02  0.17137513155E+03  0.12499802987E+03 0.  0.
         25    2    1    2    0    0 -0.74974273845E+02 -0.88810050385E+02 -0.10782812632E+03  0.20188942247E+03  0.12499626910E+03 0.  0.
          5    1    3    3  501    0  0.39661063858E+02 -0.10112039410E+02  0.35670552094E+02  0.54495243958E+02  0.47000000000E+01 0.  1.
         -5    1    3    3    0  501  0.35313209987E+02  0.98922089795E+02 -0.51051106487E+02  0.11687988759E+03  0.47000000000E+01 0.  1.
          5    1    4    4  502    0 -0.81386271323E+02 -0.11614456063E+03 -0.85090752289E+02  0.16545636962E+03  0.47000000000E+01 0.  1.
         -5    1    4    4    0  502  0.64119974774E+01  0.27334510241E+02 -0.22737374034E+02  0.36433052847E+02  0.47000000000E+01 0.  1.
<mgrwt>
<rscale>  0 0.35234365E+03</rscale>
<asrwt>0</asrwt>
<pdfrwt beam="1">  1       21 0.19235067E-01 0.35234365E+03</pdfrwt>
<pdfrwt beam="2">  1       21 0.38190248E-01 0.35234365E+03</pdfrwt>
<totfact> 0.15724625E+05</totfact>
</mgrwt>
</event>
<event>
 8    1  0.9529436E-006  0.2894674E+03  0.7546771E-02  0.1090628E+00
         21   -1    0    0  504  503  0.00000000000E+00  0.00000000000E+00  0.22739983917E+02  0.22739983917E+02  0.00000000000E+00 0. -1.
         21   -1    0    0  503  504 -0.00000000000E+00 -0.00000000000E+00 -0.92118996914E+03  0.92118996914E+03  0.00000000000E+00 0. -1.
         25    2    1    2    0    0  0.58801107211E+02  0.73657566055E+01 -0.58789475367E+03  0.60395769595E+03  0.12503132617E+03 0.  0.
         25    2    1    2    0    0 -0.58801107211E+02 -0.73657566055E+01 -0.31055523155E+03  0.33997225711E+03  0.12499903671E+03 0.  0.
          5    1    3    3  501    0  0.83149388770E+02 -0.28643109353E+02 -0.47080278409E+03  0.47896931016E+03  0.47000000000E+01 0. -1.
         -5    1    3    3    0  501 -0.24348281560E+02  0.36008865958E+02 -0.11709196958E+03  0.12498838580E+03  0.47000000000E+01 0. -1.
          5    1    4    4  502    0 -0.30151563638E+02 -0.64525354932E+02 -0.19753217753E+03  0.21003259123E+03  0.47000000000E+01 0. -1.
         -5    1    4    4    0  502 -0.28649543572E+02  0.57159598326E+02 -0.11302305402E+03  0.12993966588E+03  0.47000000000E+01 0. -1.
<mgrwt>
<rscale>  0 0.28946741E+03</rscale>
<asrwt>0</asrwt>
<pdfrwt beam="1">  1       21 0.34984589E-02 0.28946741E+03</pdfrwt>
<pdfrwt beam="2">  1       21 0.14172154E+00 0.28946741E+03</pdfrwt>
<totfact> 0.16407675E+05</totfact>
</mgrwt>
</event>
<event>
 8    1  0.9529436E-006  0.3264999E+03  0.7546771E-02  0.1072696E+00
         21   -1    0    0  504  503  0.00000000000E+00  0.00000000000E+00  0.43411530975E+03  0.43411530975E+03  0.00000000000E+00 0. -1.
         21   -1    0    0  503  504 -0.00000000000E+00 -0.00000000000E+00 -0.61390470096E+02  0.61390470096E+02  0.00000000000E+00 0. -1.
         25    2    1    2    0    0  0.91103539891E+02 -0.29093931221E+02  0.25214970258E+03  0.29723513533E+03  0.12499176513E+03 0.  0.
         25    2    1    2    0    0 -0.91103539891E+02  0.29093931221E+02  0.12057513708E+03  0.19827064452E+03  0.12500629177E+03 0.  0.
          5    1    3    3  501    0  0.95814173139E+02 -0.20917431248E+02  0.85326560276E+02  0.13007923198E+03  0.47000000000E+01 0.  1.
         -5    1    3    3    0  501 -0.47106332476E+01 -0.81764999735E+01  0.16682314230E+03  0.16715590335E+03  0.47000000000E+01 0.  1.
          5    1    4    4  502    0 -0.59691603005E+01 -0.80478835535E+01 -0.23963624941E+02  0.26395920607E+02  0.47000000000E+01 0.  1.
         -5    1    4    4    0  502 -0.85134379591E+02  0.37141814775E+02  0.14453876202E+03  0.17187472391E+03  0.47000000000E+01 0.  1.
<mgrwt>
<rscale>  0 0.32649988E+03</rscale>
<asrwt>0</asrwt>
<pdfrwt beam="1">  1       21 0.66786969E-01 0.32649988E+03</pdfrwt>
<pdfrwt beam="2">  1       21 0.94446880E-02 0.32649988E+03</pdfrwt>
<totfact> 0.17763724E+05</totfact>
</mgrwt>
</event>
<event>
 8    1  0.9529436E-006  0.3012178E+03  0.7546771E-02  0.1084633E+00
         21   -1    0    0  504  503  0.00000000000E+00  0.00000000000E+00  0.24201945637E+02  0.24201945637E+02  0.00000000000E+00 0. -1.
         21   -1    0    0  503  504 -0.00000000000E+00 -0.00000000000E+00 -0.93724049226E+03  0.93724049226E+03  0.00000000000E+00 0. -1.
         25    2    1    2    0    0  0.77353702946E+02 -0.21299360609E+02 -0.37699121914E+03  0.40519749983E+03  0.12500150574E+03 0.  0.
         25    2    1    2    0    0 -0.77353702946E+02  0.21299360609E+02 -0.53604732749E+03  0.55624493807E+03  0.12499774278E+03 0.  0.
          5    1    3    3  501    0  0.26022811770E+02 -0.55258908257E+02 -0.30160729451E+03  0.30776579371E+03  0.47000000000E+01 0. -1.
         -5    1    3    3    0  501  0.51330891177E+02  0.33959547647E+02 -0.75383924625E+02  0.97431706119E+02  0.47000000000E+01 0. -1.
          5    1    4    4  502    0 -0.51554849564E+02 -0.50206533358E+02 -0.27696162211E+03  0.28619648605E+03  0.47000000000E+01 0. -1.
         -5    1    4    4    0  502 -0.25798853383E+02  0.71505893967E+02 -0.25908570538E+03  0.27004845203E+03  0.47000000000E+01 0. -1.
<mgrwt>
<rscale>  0 0.30121782E+03</rscale>
<asrwt>0</asrwt>
<pdfrwt beam="1">  1       21 0.37233769E-02 0.30121782E+03</pdfrwt>
<pdfrwt beam="2">  1       21 0.14419082E+00 0.30121782E+03</pdfrwt>
<totfact> 0.14065225E+05</totfact>
</mgrwt>
</event>
<event>
 8    1  0.9529436E-006  0.3544324E+03  0.7546771E-02  0.1060810E+00
         21   -1    0    0  504  503  0.00000000000E+00  0.00000000000E+00  0.16017098512E+03  0.16017098512E+03  0.00000000000E+00 0.  1.
         21   -1    0    0  503  504 -0.00000000000E+00 -0.00000000000E+00 -0.19607532000E+03  0.19607532000E+03  0.00000000000E+00 0.  1.
         25    2    1    2    0    0  0.10317097373E+03  0.17110087866E+02 -0.87917539823E+02  0.18516950319E+03  0.12498498380E+03 0.  0.
         25    2    1    2    0    0 -0.10317097373E+03 -0.17110087866E+02  0.52013204944E+02  0.17107680193E+03  0.12499957497E+03 0.  0.
          5    1    3    3  501    0 -0.19400307067E+02 -0.27551922159E+01 -0.52084239301E+02  0.55846405273E+02  0.47000000000E+01 0.  1.
         -5    1    3    3    0  501  0.12257128079E+03  0.19865280082E+02 -0.35833300523E+02  0.12932309792E+03  0.47000000000E+01 0.  1.
          5    1    4    4  502    0 -0.76484288495E+02  0.25268155709E+02 -0.20100487234E+02  0.83153145861E+02  0.47000000000E+01 0.  1.
         -5    1    4    4    0  502 -0.26686685231E+02 -0.42378243575E+02  0.72113692177E+02  0.87923656069E+02  0.47000000000E+01 0.  1.
<mgrwt>
<rscale>  0 0.35443238E+03</rscale>
<asrwt>0</asrwt>
<pdfrwt beam="1">  1       21 0.24641690E-01 0.35443238E+03</pdfrwt>
<pdfrwt beam="2">  1       21 0.30165434E-01 0.35443238E+03</pdfrwt>
<totfact> 0.15720771E+05</totfact>
</mgrwt>
</event>
<event>
 8    1  0.9529436E-006  0.3016248E+03  0.7546771E-02  0.1084431E+00
         21   -1    0    0  504  503  0.00000000000E+00  0.00000000000E+00  0.89595691590E+03  0.89595691590E+03  0.00000000000E+00 0.  1.
         21   -1    0    0  503  504 -0.00000000000E+00 -0.00000000000E+00 -0.25385580065E+02  0.25385580065E+02  0.00000000000E+00 0.  1.
         25    2    1    2    0    0 -0.61348186293E+02  0.55687215518E+02  0.48406792544E+03  0.50676498010E+03  0.12499729072E+03 0.  0.
         25    2    1    2    0    0  0.61348186293E+02 -0.55687215518E+02  0.38650341039E+03  0.41457751586E+03  0.12499985791E+03 0.  0.
          5    1    3    3  501    0  0.59218050541E+01  0.75887587067E+02  0.30416288115E+03  0.31357796784E+03  0.47000000000E+01 0. -1.
         -5    1    3    3    0  501 -0.67269991347E+02 -0.20200371548E+02  0.17990504428E+03  0.19318701226E+03  0.47000000000E+01 0. -1.
          5    1    4    4  502    0  0.58622381227E+02 -0.80290846504E+02  0.17294319206E+03  0.19953606514E+03  0.47000000000E+01 0.  1.
         -5    1    4    4    0  502  0.27258050659E+01  0.24603630986E+02  0.21356021834E+03  0.21504145072E+03  0.47000000000E+01 0.  1.
<mgrwt>
<rscale>  0 0.30162484E+03</rscale>
<asrwt>0</asrwt>
<pdfrwt beam="1">  1       21 0.13783950E+00 0.30162484E+03</pdfrwt>
<pdfrwt beam="2">  1       21 0.39054745E-02 0.30162484E+03</pdfrwt>
<totfact> 0.14607044E+05</totfact>
</mgrwt>
</event>
<event>
 8    1  0.9529436E-006  0.3350890E+03  0.7546771E-02  0.1068907E+00
         21   -1    0    0  504  503  0.00000000000E+00  0.00000000000E+00  0.44573316036E+03  0.44573316036E+03  0.00000000000E+00 0.  1.
         21   -1    0    0  503  504 -0.00000000000E+00 -0.00000000000E+00 -0.62977481568E+02  0.62977481568E+02  0.00000000000E+00 0.  1.
         25    2    1    2    0    0 -0.14373484221E+02 -0.10922205153E+03  0.21804752246E+03  0.27442479561E+03  0.12501277057E+03 0.  0.
         25    2    1    2    0    0  0.14373484221E+02  0.10922205153E+03  0.16470815633E+03  0.23428584632E+03  0.12500010973E+03 0.  0.
          5    1    3    3  501    0 -0.60105985512E+02 -0.77595699894E+02  0.84175719529E+02  0.12938880900E+03  0.47000000000E+01 0. -1.
         -5    1    3    3    0  501  0.45732501291E+02 -0.31626351635E+02  0.13387180293E+03  0.14503598661E+03  0.47000000000E+01 0. -1.
          5    1    4    4  502    0 -0.33409342723E+02  0.12710229991E+02  0.10509025392E+03  0.11110259041E+03  0.47000000000E+01 0.  1.
         -5    1    4    4    0  502  0.47782826943E+02  0.96511821538E+02  0.59617902417E+02  0.12318325591E+03  0.47000000000E+01 0.  1.
<mgrwt>
<rscale>  0 0.33508895E+03</rscale>
<asrwt>0</asrwt>
<pdfrwt beam="1">  1       21 0.68574330E-01 0.33508895E+03</pdfrwt>
<pdfrwt beam="2">  1       21 0.96888436E-02 0.33508895E+03</pdfrwt>
<totfact> 0.15975708E+05</totfact>
</mgrwt>
</event>
<event>
 8    1  0.9529436E-006  0.2651964E+03  0.7546771E-02  0.1104061E+00
         21   -1    0    0  504  503  0.00000000000E+00  0.00000000000E+00  0.96189484477E+02  0.96189484477E+02  0.00000000000E+00 0. -1.
         21   -1    0    0  503  504 -0.00000000000E+00 -0.00000000000E+00 -0.18278798803E+03  0.18278798803E+03  0.00000000000E+00 0. -1.
         25    2    1    2    0    0 -0.52104823115E+01 -0.19129514812E+02 -0.16542710231E+01  0.12655269259E+03  0.12497903795E+03 0.  0.
         25    2    1    2    0    0  0.52104823115E+01  0.19129514812E+02 -0.84944232526E+02  0.15242477992E+03  0.12499881371E+03 0.  0.
          5    1    3    3  501    0 -0.56084206245E+02  0.22236127893E+02 -0.50761692868E+01  0.60726773901E+02  0.47000000000E+01 0.  1.
         -5    1    3    3    0  501  0.50873723933E+02 -0.41365642705E+02  0.34218982637E+01  0.65825918687E+02  0.47000000000E+01 0.  1.
          5    1    4    4  502    0  0.12216436377E+02 -0.46430544223E+02 -0.69403190916E+02  0.84521770355E+02  0.47000000000E+01 0. -1.
         -5    1    4    4    0  502 -0.70059540650E+01  0.65560059036E+02 -0.15541041610E+02  0.67903009561E+02  0.47000000000E+01 0. -1.
<mgrwt>
<rscale>  0 0.26519640E+03</rscale>
<asrwt>0</asrwt>
<pdfrwt beam="1">  1       21 0.14798382E-01 0.26519640E+03</pdfrwt>
<pdfrwt beam="2">  1       21 0.28121228E-01 0.26519640E+03</pdfrwt>
<totfact> 0.47892591E+05</totfact>
</mgrwt>
</event>
<event>
 8    1  0.9529436E-006  0.3101205E+03  0.7546771E-02  0.1080288E+00
         21   -1    0    0  504  503  0.00000000000E+00  0.00000000000E+00  0.72270421571E+02  0.72270421571E+02  0.00000000000E+00 0.  1.
         21   -1    0    0  503  504 -0.00000000000E+00 -0.00000000000E+00 -0.33269056573E+03  0.33269056573E+03  0.00000000000E+00 0.  1.
         25    2    1    2    0    0  0.59234853119E+01  0.17397426599E+02 -0.24757288057E+03  0.27794365166E+03  0.12499033632E+03 0.  0.
         25    2    1    2    0    0 -0.59234853119E+01 -0.17397426599E+02 -0.12847263597E+02  0.12701733565E+03  0.12502237097E+03 0.  0.
          5    1    3    3  501    0 -0.16646398483E+02  0.69497809740E+01 -0.25162142320E+03  0.25231098400E+03  0.47000000000E+01 0.  1.
         -5    1    3    3    0  501  0.22569883794E+02  0.10447645625E+02  0.40485426289E+01  0.25632667653E+02  0.47000000000E+01 0.  1.
          5    1    4    4  502    0 -0.19513399861E+02 -0.57566944448E+02  0.28772236440E+02  0.67414074621E+02  0.47000000000E+01 0. -1.
         -5    1    4    4    0  502  0.13589914549E+02  0.40169517849E+02 -0.41619500037E+02  0.59603261027E+02  0.47000000000E+01 0. -1.
<mgrwt>
<rscale>  0 0.31012054E+03</rscale>
<asrwt>0</asrwt>
<pdfrwt beam="1">  1       21 0.11118526E-01 0.31012054E+03</pdfrwt>
<pdfrwt beam="2">  1       21 0.51183164E-01 0.31012054E+03</pdfrwt>
<totfact> 0.23684006E+05</totfact>
</mgrwt>
</event>
<event>
 8    1  0.9529436E-006  0.2707756E+03  0.7546771E-02  0.1100837E+00
         21   -1    0    0  504  503  0.00000000000E+00  0.00000000000E+00  0.20984344216E+02  0.20984344216E+02  0.00000000000E+00 0. -1.
         21   -1    0    0  503  504 -0.00000000000E+00 -0.00000000000E+00 -0.87350139479E+03  0.87350139479E+03  0.00000000000E+00 0. -1.
         25    2    1    2    0    0  0.11757315910E+02 -0.30045639896E+02 -0.29156949604E+03  0.31887343663E+03  0.12500609032E+03 0.  0.
         25    2    1    2    0    0 -0.11757315910E+02  0.30045639896E+02 -0.56094755454E+03  0.57561230238E+03  0.12500555487E+03 0.  0.
          5    1    3    3  501    0 -0.44387449859E+02 -0.48677245213E+02 -0.19106504403E+03  0.20215751521E+03  0.47000000000E+01 0.  1.
         -5    1    3    3    0  501  0.56144765769E+02  0.18631605317E+02 -0.10050445201E+03  0.11671592143E+03  0.47000000000E+01 0.  1.
          5    1    4    4  502    0 -0.32868217782E+02 -0.32779741513E+02 -0.10567499065E+03  0.11551677299E+03  0.47000000000E+01 0.  1.
         -5    1    4    4    0  502  0.21110901873E+02  0.62825381409E+02 -0.45527256389E+03  0.46009552938E+03  0.47000000000E+01 0.  1.
<mgrwt>
<rscale>  0 0.27077558E+03</rscale>
<asrwt>0</asrwt>
<pdfrwt beam="1">  1       21 0.32283612E-02 0.27077558E+03</pdfrwt>
<pdfrwt beam="2">  1       21 0.13438481E+00 0.27077558E+03</pdfrwt>
<totfact> 0.21681864E+05</totfact>
</mgrwt>
</event>
<event>
 8    1  0.9529436E-006  0.3127116E+03  0.7546771E-02  0.1079053E+00
         21   -1    0    0  504  503  0.00000000000E+00  0.00000000000E+00  0.12802079444E+04  0.12802079444E+04  0.00000000000E+00 0.  1.
         21   -1    0    0  503  504 -0.00000000000E+00 -0.00000000000E+00 -0.19096218311E+02  0.19096218311E+02  0.00000000000E+00 0.  1.
         25    2    1    2    0    0 -0.29709183846E+02  0.73001397597E-01  0.10007692357E+04  0.10089838718E+04  0.12500699781E+03 0.  0.
         25    2    1    2    0    0  0.29709183846E+02 -0.73001397597E-01  0.26034249038E+03  0.29032029090E+03  0.12500007231E+03 0.  0.
          5    1    3    3  501    0 -0.31397877860E+02 -0.21044445633E+02  0.97298271509E+03  0.97372796473E+03  0.47000000000E+01 0.  1.
         -5    1    3    3    0  501  0.16886940139E+01  0.21117447030E+02  0.27786520633E+02  0.35255907100E+02  0.47000000000E+01 0.  1.
          5    1    4    4  502    0  0.67166237320E+02  0.25302016291E+02  0.96973090256E+02  0.12073676200E+03  0.47000000000E+01 0.  1.
         -5    1    4    4    0  502 -0.37457053474E+02 -0.25375017688E+02  0.16336940013E+03  0.16958352891E+03  0.47000000000E+01 0.  1.
<mgrwt>
<rscale>  0 0.31271156E+03</rscale>
<asrwt>0</asrwt>
<pdfrwt beam="1">  1       21 0.19695500E+00 0.31271156E+03</pdfrwt>
<pdfrwt beam="2">  1       21 0.29378807E-02 0.31271156E+03</pdfrwt>
<totfact> 0.86908810E+04</totfact>
</mgrwt>
</event>
<event>
 8    1  0.9529436E-006  0.2523781E+03  0.7546771E-02  0.1111811E+00
         21   -1    0    0  504  503  0.00000000000E+00  0.00000000000E+00  0.12442435985E+02  0.12442435985E+02  0.00000000000E+00 0.  1.
         21   -1    0    0  503  504 -0.00000000000E+00 -0.00000000000E+00 -0.12797876282E+04  0.12797876282E+04  0.00000000000E+00 0.  1.
         25    2    1    2    0    0  0.10695230198E+02  0.11302599764E+02 -0.59468572714E+03  0.60788053614E+03  0.12500198177E+03 0.  0.
         25    2    1    2    0    0 -0.10695230198E+02 -0.11302599764E+02 -0.67265946510E+03  0.68434952807E+03  0.12498553464E+03 0.  0.
          5    1    3    3  501    0 -0.48428171685E+02 -0.18301847229E+02 -0.36956656790E+03  0.37320474747E+03  0.47000000000E+01 0.  1.
         -5    1    3    3    0  501  0.59123401883E+02  0.29604446993E+02 -0.22511915924E+03  0.23467578867E+03  0.47000000000E+01 0.  1.
          5    1    4    4  502    0 -0.11729327922E+02  0.54325386560E+02 -0.22140409593E+03  0.22832145859E+03  0.47000000000E+01 0.  1.
         -5    1    4    4    0  502  0.10340977245E+01 -0.65627986323E+02 -0.45125536917E+03  0.45602806948E+03  0.47000000000E+01 0.  1.
<mgrwt>
<rscale>  0 0.25237809E+03</rscale>
<asrwt>0</asrwt>
<pdfrwt beam="1">  1       21 0.19142227E-02 0.25237809E+03</pdfrwt>
<pdfrwt beam="2">  1       21 0.19689022E+00 0.25237809E+03</pdfrwt>
<totfact> 0.18077903E+05</totfact>
</mgrwt>
</event>
<event>
 8    1  0.9529436E-006  0.4797714E+03  0.7546771E-02  0.1019198E+00
         21   -1    0    0  504  503  0.00000000000E+00  0.00000000000E+00  0.47204613294E+03  0.47204613294E+03  0.00000000000E+00 0. -1.
         21   -1    0    0  503  504 -0.00000000000E+00 -0.00000000000E+00 -0.12190577973E+03  0.12190577973E+03  0.00000000000E+00 0. -1.
         25    2    1    2    0    0 -0.95305801019E+02 -0.17282409741E+03  0.24253376777E+03  0.33674476419E+03  0.12499217314E+03 0.  0.
         25    2    1    2    0    0  0.95305801019E+02  0.17282409741E+03  0.10760658544E+03  0.25720714849E+03  0.12499990261E+03 0.  0.
          5    1    3    3  501    0 -0.11105578929E+03 -0.74316206283E+02  0.13607724168E+03  0.19077576511E+03  0.47000000000E+01 0.  1.
         -5    1    3    3    0  501  0.15749988269E+02 -0.98507891123E+02  0.10645652608E+03  0.14596899907E+03  0.47000000000E+01 0.  1.
          5    1    4    4  502    0 -0.18469313049E+02  0.91587746153E+02  0.38099938746E+02  0.10101052471E+03  0.47000000000E+01 0.  1.
         -5    1    4    4    0  502  0.11377511407E+03  0.81236351252E+02  0.69506646695E+02  0.15619662378E+03  0.47000000000E+01 0.  1.
<mgrwt>
<rscale>  0 0.47977141E+03</rscale>
<asrwt>0</asrwt>
<pdfrwt beam="1">  1       21 0.72622481E-01 0.47977141E+03</pdfrwt>
<pdfrwt beam="2">  1       21 0.18754736E-01 0.47977141E+03</pdfrwt>
<totfact> 0.40446868E+04</totfact>
</mgrwt>
</event>
<event>
 8    1  0.9529436E-006  0.2574595E+03  0.7546771E-02  0.1108679E+00
         21   -1    0    0  504  503  0.00000000000E+00  0.00000000000E+00  0.29684907404E+03  0.29684907404E+03  0.00000000000E+00 0. -1.
         21   -1    0    0  503  504 -0.00000000000E+00 -0.00000000000E+00 -0.55824173972E+02  0.55824173972E+02  0.00000000000E+00 0. -1.
         25    2    1    2    0    0 -0.20002163605E+01 -0.81900931711E+01  0.16101843537E+03  0.20401894777E+03  0.12500286408E+03 0.  0.
         25    2    1    2    0    0  0.20002163605E+01  0.81900931711E+01  0.80006464702E+02  0.14865430025E+03  0.12500395233E+03 0.  0.
          5    1    3    3  501    0  0.46650346917E+02  0.15091167912E+02  0.20352833121E+02  0.53294709236E+02  0.47000000000E+01 0.  1.
         -5    1    3    3    0  501 -0.48650563278E+02 -0.23281261083E+02  0.14066560225E+03  0.15072423853E+03  0.47000000000E+01 0.  1.
          5    1    4    4  502    0 -0.55951216898E+02 -0.21107356616E+02  0.34204402165E+02  0.69051359893E+02  0.47000000000E+01 0.  1.
         -5    1    4    4    0  502  0.57951433259E+02  0.29297449787E+02  0.45802062538E+02  0.79602940357E+02  0.47000000000E+01 0.  1.
<mgrwt>
<rscale>  0 0.25745955E+03</rscale>
<asrwt>0</asrwt>
<pdfrwt beam="1">  1       21 0.45669087E-01 0.25745955E+03</pdfrwt>
<pdfrwt beam="2">  1       21 0.85883346E-02 0.25745955E+03</pdfrwt>
<totfact> 0.48102278E+05</totfact>
</mgrwt>
</event>
<event>
 8    1  0.9529436E-006  0.4130035E+03  0.7546771E-02  0.1039368E+00
         21   -1    0    0  504  503  0.00000000000E+00  0.00000000000E+00  0.99365291205E+02  0.99365291205E+02  0.00000000000E+00 0.  1.
         21   -1    0    0  503  504 -0.00000000000E+00 -0.00000000000E+00 -0.42915365086E+03  0.42915365086E+03  0.00000000000E+00 0.  1.
         25    2    1    2    0    0 -0.66165864062E+02  0.55087726104E+02  0.14288303671E+02  0.15245253808E+03  0.12500016644E+03 0.  0.
         25    2    1    2    0    0  0.66165864062E+02 -0.55087726104E+02 -0.34407666332E+03  0.37606640399E+03  0.12499844331E+03 0.  0.
          5    1    3    3  501    0  0.18552366570E+02  0.63296712274E+02  0.11801139216E+02  0.67171578639E+02  0.47000000000E+01 0. -1.
         -5    1    3    3    0  501 -0.84718230632E+02 -0.82089861696E+01  0.24871644552E+01  0.85280959436E+02  0.47000000000E+01 0. -1.
          5    1    4    4  502    0  0.87179167489E+02 -0.61140343446E+02 -0.17063402712E+03  0.20118749974E+03  0.47000000000E+01 0. -1.
         -5    1    4    4    0  502 -0.21013303427E+02  0.60526173415E+01 -0.17344263620E+03  0.17487890424E+03  0.47000000000E+01 0. -1.
<mgrwt>
<rscale>  0 0.41300352E+03</rscale>
<asrwt>0</asrwt>
<pdfrwt beam="1">  1       21 0.15286968E-01 0.41300352E+03</pdfrwt>
<pdfrwt beam="2">  1       21 0.66023639E-01 0.41300352E+03</pdfrwt>
<totfact> 0.74561120E+04</totfact>
</mgrwt>
</event>
<event>
 8    1  0.9529436E-006  0.2653510E+03  0.7546771E-02  0.1103970E+00
         21   -1    0    0  504  503  0.00000000000E+00  0.00000000000E+00  0.45377768481E+02  0.45377768481E+02  0.00000000000E+00 0. -1.
         21   -1    0    0  503  504 -0.00000000000E+00 -0.00000000000E+00 -0.38791669714E+03  0.38791669714E+03  0.00000000000E+00 0. -1.
         25    2    1    2    0    0 -0.30116727153E+02 -0.11417873504E+02 -0.12119088201E+03  0.17705734784E+03  0.12499875781E+03 0.  0.
         25    2    1    2    0    0  0.30116727153E+02  0.11417873504E+02 -0.22134804666E+03  0.25623711778E+03  0.12500047073E+03 0.  0.
          5    1    3    3  501    0  0.40712730530E+02 -0.79719489308E+01 -0.66757006454E+01  0.42281596187E+02  0.47000000000E+01 0. -1.
         -5    1    3    3    0  501 -0.70829457683E+02 -0.34459245735E+01 -0.11451518136E+03  0.13477575165E+03  0.47000000000E+01 0. -1.
          5    1    4    4  502    0  0.63717256561E+02  0.13425654914E+01 -0.20931911391E+03  0.21885674016E+03  0.47000000000E+01 0.  1.
         -5    1    4    4    0  502 -0.33600529408E+02  0.10075308013E+02 -0.12028932744E+02  0.37380377620E+02  0.47000000000E+01 0.  1.
<mgrwt>
<rscale>  0 0.26535104E+03</rscale>
<asrwt>0</asrwt>
<pdfrwt beam="1">  1       21 0.69811952E-02 0.26535104E+03</pdfrwt>
<pdfrwt beam="2">  1       21 0.59679492E-01 0.26535104E+03</pdfrwt>
<totfact> 0.39180354E+05</totfact>
</mgrwt>
</event>
<event>
 8    1  0.9529436E-006  0.4335313E+03  0.7546771E-02  0.1032750E+00
         21   -1    0    0  504  503  0.00000000000E+00  0.00000000000E+00  0.11708147719E+03  0.11708147719E+03  0.00000000000E+00 0.  1.
         21   -1    0    0  503  504 -0.00000000000E+00 -0.00000000000E+00 -0.40132178467E+03  0.40132178467E+03  0.00000000000E+00 0.  1.
         25    2    1    2    0    0 -0.19912111912E+02  0.17517817600E+03 -0.16218022138E+03  0.27019262820E+03  0.12497098294E+03 0.  0.
         25    2    1    2    0    0  0.19912111912E+02 -0.17517817600E+03 -0.12206008610E+03  0.24821063367E+03  0.12500387394E+03 0.  0.
          5    1    3    3  501    0  0.41906064394E+02  0.13490222332E+03 -0.11756333458E+03  0.18384220333E+03  0.47000000000E+01 0.  1.
         -5    1    3    3    0  501 -0.61818176306E+02  0.40275952677E+02 -0.44616886806E+02  0.86350424864E+02  0.47000000000E+01 0.  1.
          5    1    4    4  502    0  0.67190002170E+01 -0.73141383927E+02 -0.12513126431E+03  0.14517138256E+03  0.47000000000E+01 0. -1.
         -5    1    4    4    0  502  0.13193111695E+02 -0.10203679207E+03  0.30711782155E+01  0.10303925111E+03  0.47000000000E+01 0. -1.
<mgrwt>
<rscale>  0 0.43353130E+03</rscale>
<asrwt>0</asrwt>
<pdfrwt beam="1">  1       21 0.18012535E-01 0.43353130E+03</pdfrwt>
<pdfrwt beam="2">  1       21 0.61741812E-01 0.43353130E+03</pdfrwt>
<totfact> 0.63368266E+04</totfact>
</mgrwt>
</event>
<event>
 8    1  0.9529436E-006  0.3627609E+03  0.7546771E-02  0.1057496E+00
         21   -1    0    0  504  503  0.00000000000E+00  0.00000000000E+00  0.14751719705E+03  0.14751719705E+03  0.00000000000E+00 0. -1.
         21   -1    0    0  503  504 -0.00000000000E+00 -0.00000000000E+00 -0.22301711625E+03  0.22301711625E+03  0.00000000000E+00 0. -1.
         25    2    1    2    0    0  0.20348025483E+02 -0.71805922350E+02 -0.14825161983E+03  0.20778656096E+03  0.12500631788E+03 0.  0.
         25    2    1    2    0    0 -0.20348025483E+02  0.71805922350E+02  0.72751700625E+02  0.16274775234E+03  0.12499555321E+03 0.  0.
          5    1    3    3  501    0  0.71105314566E+02 -0.55436331247E+02 -0.10822795496E+03  0.14094159364E+03  0.47000000000E+01 0. -1.
         -5    1    3    3    0  501 -0.50757289083E+02 -0.16369591103E+02 -0.40023664865E+02  0.66844967329E+02  0.47000000000E+01 0. -1.
          5    1    4    4  502    0 -0.13179771993E+02 -0.40356093113E+01  0.84305281195E+02  0.85553860051E+02  0.47000000000E+01 0. -1.
         -5    1    4    4    0  502 -0.71682534898E+01  0.75841531661E+02 -0.11553580570E+02  0.77193892290E+02  0.47000000000E+01 0. -1.
<mgrwt>
<rscale>  0 0.36276086E+03</rscale>
<asrwt>0</asrwt>
<pdfrwt beam="1">  1       21 0.22694953E-01 0.36276086E+03</pdfrwt>
<pdfrwt beam="2">  1       21 0.34310325E-01 0.36276086E+03</pdfrwt>
<totfact> 0.14225961E+05</totfact>
</mgrwt>
</event>
<event>
 8    1  0.9529436E-006  0.3053734E+03  0.7546771E-02  0.1082585E+00
         21   -1    0    0  504  503  0.00000000000E+00  0.00000000000E+00  0.11116220458E+03  0.11116220458E+03  0.00000000000E+00 0.  1.
         21   -1    0    0  503  504 -0.00000000000E+00 -0.00000000000E+00 -0.20972254986E+03  0.20972254986E+03  0.00000000000E+00 0.  1.
         25    2    1    2    0    0  0.40394945596E+01  0.43375730759E+02 -0.12923101760E+03  0.18499557108E+03  0.12499973549E+03 0.  0.
         25    2    1    2    0    0 -0.40394945596E+01 -0.43375730759E+02  0.30670672326E+02  0.13588918336E+03  0.12500963354E+03 0.  0.
          5    1    3    3  501    0 -0.49202337751E+02  0.28050024427E+02 -0.11394308346E+03  0.12732945527E+03  0.47000000000E+01 0.  1.
         -5    1    3    3    0  501  0.53241832311E+02  0.15325706332E+02 -0.15287934141E+02  0.57666115811E+02  0.47000000000E+01 0.  1.
          5    1    4    4  502    0 -0.24055960051E+02  0.39767382346E+02  0.96765701385E+01  0.47705973653E+02  0.47000000000E+01 0.  1.
         -5    1    4    4    0  502  0.20016465491E+02 -0.83143113105E+02  0.20994102187E+02  0.88183209707E+02  0.47000000000E+01 0.  1.
<mgrwt>
<rscale>  0 0.30537335E+03</rscale>
<asrwt>0</asrwt>
<pdfrwt beam="1">  1       21 0.17101878E-01 0.30537335E+03</pdfrwt>
<pdfrwt beam="2">  1       21 0.32265007E-01 0.30537335E+03</pdfrwt>
<totfact> 0.27767722E+05</totfact>
</mgrwt>
</event>
<event>
 8    1  0.9529436E-006  0.2640166E+03  0.7546771E-02  0.1104754E+00
         21   -1    0    0  504  503  0.00000000000E+00  0.00000000000E+00  0.22234771001E+02  0.22234771001E+02  0.00000000000E+00 0.  1.
         21   -1    0    0  503  504 -0.00000000000E+00 -0.00000000000E+00 -0.78373593578E+03  0.78373593578E+03  0.00000000000E+00 0.  1.
         25    2    1    2    0    0 -0.28409605305E+02  0.39756310086E+01 -0.28528454971E+03  0.31278625290E+03  0.12500021754E+03 0.  0.
         25    2    1    2    0    0  0.28409605305E+02 -0.39756310086E+01 -0.47621661507E+03  0.49318445388E+03  0.12500291903E+03 0.  0.
          5    1    3    3  501    0 -0.49780613257E+02 -0.42092822986E+02 -0.22247802799E+03  0.23188030995E+03  0.47000000000E+01 0. -1.
         -5    1    3    3    0  501  0.21371007952E+02  0.46068453995E+02 -0.62806521713E+02  0.80905942946E+02  0.47000000000E+01 0. -1.
          5    1    4    4  502    0  0.61745894683E+02  0.73532044980E+01 -0.43195024107E+03  0.43642837429E+03  0.47000000000E+01 0.  1.
         -5    1    4    4    0  502 -0.33336289377E+02 -0.11328835507E+02 -0.44266374008E+02  0.56756079596E+02  0.47000000000E+01 0.  1.
<mgrwt>
<rscale>  0 0.26401658E+03</rscale>
<asrwt>0</asrwt>
<pdfrwt beam="1">  1       21 0.34207340E-02 0.26401658E+03</pdfrwt>
<pdfrwt beam="2">  1       21 0.12057476E+00 0.26401658E+03</pdfrwt>
<totfact> 0.25970585E+05</totfact>
</mgrwt>
</event>
<event>
 8    1  0.9529436E-006  0.3282357E+03  0.7546771E-02  0.1071920E+00
         21   -1    0    0  504  503  0.00000000000E+00  0.00000000000E+00  0.48315661865E+03  0.48315661865E+03  0.00000000000E+00 0. -1.
         21   -1    0    0  503  504 -0.00000000000E+00 -0.00000000000E+00 -0.55747277920E+02  0.55747277920E+02  0.00000000000E+00 0. -1.
         25    2    1    2    0    0  0.44604103254E+02  0.85128805556E+01  0.37159092523E+03  0.39467478686E+03  0.12500550591E+03 0.  0.
         25    2    1    2    0    0 -0.44604103254E+02 -0.85128805556E+01  0.55818415496E+02  0.14422910971E+03  0.12499738164E+03 0.  0.
          5    1    3    3  501    0 -0.16087951223E+02  0.44851838967E+02  0.24452870708E+03  0.24917240662E+03  0.47000000000E+01 0. -1.
         -5    1    3    3    0  501  0.60692054477E+02 -0.36338958412E+02  0.12706221815E+03  0.14550238025E+03  0.47000000000E+01 0. -1.
          5    1    4    4  502    0 -0.17326910868E+02 -0.18791117572E+02  0.93107154630E+02  0.96666230831E+02  0.47000000000E+01 0.  1.
         -5    1    4    4    0  502 -0.27277192386E+02  0.10278237017E+02 -0.37288739134E+02  0.47562878875E+02  0.47000000000E+01 0.  1.
<mgrwt>
<rscale>  0 0.32823569E+03</rscale>
<asrwt>0</asrwt>
<pdfrwt beam="1">  1       21 0.74331784E-01 0.32823569E+03</pdfrwt>
<pdfrwt beam="2">  1       21 0.85765047E-02 0.32823569E+03</pdfrwt>
<totfact> 0.16583186E+05</totfact>
</mgrwt>
</event>
<event>
 8    1  0.9529436E-006  0.2782814E+03  0.7546771E-02  0.1096631E+00
         21   -1    0    0  504  503  0.00000000000E+00  0.00000000000E+00  0.14054110781E+03  0.14054110781E+03  0.00000000000E+00 0. -1.
         21   -1    0    0  503  504 -0.00000000000E+00 -0.00000000000E+00 -0.13775427015E+03  0.13775427015E+03  0.00000000000E+00 0. -1.
         25    2    1    2    0    0  0.20535977692E+02  0.28187295327E+02  0.51599019878E+02  0.13964986806E+03  0.12499350702E+03 0.  0.
         25    2    1    2    0    0 -0.20535977692E+02 -0.28187295327E+02 -0.48812182222E+02  0.13864550991E+03  0.12499479304E+03 0.  0.
          5    1    3    3  501    0 -0.38496750089E+02  0.39730675627E+02 -0.64871521550E+01  0.55899011586E+02  0.47000000000E+01 0. -1.
         -5    1    3    3    0  501  0.59032727781E+02 -0.11543380300E+02  0.58086172033E+02  0.83750856470E+02  0.47000000000E+01 0. -1.
          5    1    4    4  502    0  0.41837399952E+02 -0.27514063455E+02 -0.56475720062E+02  0.75623995392E+02  0.47000000000E+01 0. -1.
         -5    1    4    4    0  502 -0.62373377644E+02 -0.67323187189E+00  0.76635378405E+01  0.63021514517E+02  0.47000000000E+01 0. -1.
<mgrwt>
<rscale>  0 0.27828142E+03</rscale>
<asrwt>0</asrwt>
<pdfrwt beam="1">  1       21 0.21621709E-01 0.27828142E+03</pdfrwt>
<pdfrwt beam="2">  1       21 0.21192965E-01 0.27828142E+03</pdfrwt>
<totfact> 0.40576298E+05</totfact>
</mgrwt>
</event>
<event>
 8    1  0.9529436E-006  0.3055436E+03  0.7546771E-02  0.1082502E+00
         21   -1    0    0  504  503  0.00000000000E+00  0.00000000000E+00  0.87335443638E+02  0.87335443638E+02  0.00000000000E+00 0. -1.
         21   -1    0    0  503  504 -0.00000000000E+00 -0.00000000000E+00 -0.26723655388E+03  0.26723655388E+03  0.00000000000E+00 0. -1.
         25    2    1    2    0    0  0.33601776655E+02  0.72944484400E+02 -0.13121537779E+03  0.19821731104E+03  0.12499059896E+03 0.  0.
         25    2    1    2    0    0 -0.33601776655E+02 -0.72944484400E+02 -0.48685732447E+02  0.15635468648E+03  0.12500604082E+03 0.  0.
          5    1    3    3  501    0  0.46203484479E+02  0.11648011682E+02  0.50993579965E+01  0.48151132968E+02  0.47000000000E+01 0.  1.
         -5    1    3    3    0  501 -0.12601707825E+02  0.61296472717E+02 -0.13631473579E+03  0.15006617807E+03  0.47000000000E+01 0.  1.
          5    1    4    4  502    0  0.44414977716E+02 -0.35477400435E+02 -0.39095429369E+02  0.69151130032E+02  0.47000000000E+01 0. -1.
         -5    1    4    4    0  502 -0.78016754371E+02 -0.37467083965E+02 -0.95903030780E+01  0.87203556444E+02  0.47000000000E+01 0. -1.
<mgrwt>
<rscale>  0 0.30554360E+03</rscale>
<asrwt>0</asrwt>
<pdfrwt beam="1">  1       21 0.13436222E-01 0.30554360E+03</pdfrwt>
<pdfrwt beam="2">  1       21 0.41113316E-01 0.30554360E+03</pdfrwt>
<totfact> 0.26555668E+05</totfact>
</mgrwt>
</event>
<event>
 8    1  0.9529436E-006  0.2799080E+03  0.7546771E-02  0.1095739E+00
         21   -1    0    0  504  503  0.00000000000E+00  0.00000000000E+00  0.70733014159E+02  0.70733014159E+02  0.00000000000E+00 0. -1.
         21   -1    0    0  503  504 -0.00000000000E+00 -0.00000000000E+00 -0.27691625159E+03  0.27691625159E+03  0.00000000000E+00 0. -1.
         25    2    1    2    0    0  0.11921217341E+02  0.57225076343E+02 -0.13203890817E+03  0.19099908400E+03  0.12501820680E+03 0.  0.
         25    2    1    2    0    0 -0.11921217341E+02 -0.57225076343E+02 -0.74144329260E+02  0.15665018175E+03  0.12500029238E+03 0.  0.
          5    1    3    3  501    0 -0.22988471107E+02 -0.31588977055E+02 -0.58169664482E+02  0.70229147376E+02  0.47000000000E+01 0. -1.
         -5    1    3    3    0  501  0.34909688448E+02  0.88814053398E+02 -0.73869243688E+02  0.12076993662E+03  0.47000000000E+01 0. -1.
          5    1    4    4  502    0 -0.66190776025E+02 -0.13195926146E+02 -0.41541150669E+02  0.79392118604E+02  0.47000000000E+01 0. -1.
         -5    1    4    4    0  502  0.54269558684E+02 -0.44029150197E+02 -0.32603178591E+02  0.77258063146E+02  0.47000000000E+01 0. -1.
<mgrwt>
<rscale>  0 0.27990799E+03</rscale>
<asrwt>0</asrwt>
<pdfrwt beam="1">  1       21 0.10882002E-01 0.27990799E+03</pdfrwt>
<pdfrwt beam="2">  1       21 0.42602500E-01 0.27990799E+03</pdfrwt>
<totfact> 0.36316863E+05</totfact>
</mgrwt>
</event>
<event>
 8    1  0.9529436E-006  0.2701702E+03  0.7546771E-02  0.1101182E+00
         21   -1    0    0  504  503  0.00000000000E+00  0.00000000000E+00  0.83421862428E+02  0.83421862428E+02  0.00000000000E+00 0. -1.
         21   -1    0    0  503  504 -0.00000000000E+00 -0.00000000000E+00 -0.21874338662E+03  0.21874338662E+03  0.00000000000E+00 0. -1.
         25    2    1    2    0    0 -0.99865970415E+01  0.13904553090E+02 -0.12165315945E+03  0.17526204949E+03  0.12499690424E+03 0.  0.
         25    2    1    2    0    0  0.99865970415E+01 -0.13904553090E+02 -0.13668364735E+02  0.12690319955E+03  0.12499811657E+03 0.  0.
          5    1    3    3  501    0  0.24027936574E+02 -0.25794318896E+02 -0.11732320143E+03  0.12259491106E+03  0.47000000000E+01 0.  1.
         -5    1    3    3    0  501 -0.34014533615E+02  0.39698871986E+02 -0.43299580203E+01  0.52667138431E+02  0.47000000000E+01 0.  1.
          5    1    4    4  502    0  0.36214779667E+02 -0.45400607573E+02 -0.46204452658E+02  0.74361729940E+02  0.47000000000E+01 0.  1.
         -5    1    4    4    0  502 -0.26228182626E+02  0.31496054482E+02  0.32536087923E+02  0.52541469613E+02  0.47000000000E+01 0.  1.
<mgrwt>
<rscale>  0 0.27017017E+03</rscale>
<asrwt>0</asrwt>
<pdfrwt beam="1">  1       21 0.12834133E-01 0.27017017E+03</pdfrwt>
<pdfrwt beam="2">  1       21 0.33652829E-01 0.27017017E+03</pdfrwt>
<totfact> 0.43546534E+05</totfact>
</mgrwt>
</event>
<event>
 8    1  0.9529436E-006  0.2865897E+03  0.7546771E-02  0.1092143E+00
         21   -1    0    0  504  503  0.00000000000E+00  0.00000000000E+00  0.32338772187E+03  0.32338772187E+03  0.00000000000E+00 0.  1.
         21   -1    0    0  503  504 -0.00000000000E+00 -0.00000000000E+00 -0.63494707694E+02  0.63494707694E+02  0.00000000000E+00 0.  1.
         25    2    1    2    0    0 -0.17194587088E+01  0.22153699362E+02  0.40102244941E+02  0.13305349180E+03  0.12490515880E+03 0.  0.
         25    2    1    2    0    0  0.17194587088E+01 -0.22153699362E+02  0.21979076923E+03  0.25382893777E+03  0.12500961753E+03 0.  0.
          5    1    3    3  501    0  0.15511437897E+02  0.62982944604E+02 -0.10221928643E+02  0.65833379390E+02  0.47000000000E+01 0.  1.
         -5    1    3    3    0  501 -0.17230896606E+02 -0.40829245242E+02  0.50324173584E+02  0.67220112406E+02  0.47000000000E+01 0.  1.
          5    1    4    4  502    0 -0.12322973039E+02  0.18992393936E+02 -0.59627478946E+01  0.23879092412E+02  0.47000000000E+01 0.  1.
         -5    1    4    4    0  502  0.14042431748E+02 -0.41146093299E+02  0.22575351713E+03  0.22994984536E+03  0.47000000000E+01 0.  1.
<mgrwt>
<rscale>  0 0.28658966E+03</rscale>
<asrwt>0</asrwt>
<pdfrwt beam="1">  1       21 0.49751956E-01 0.28658966E+03</pdfrwt>
<pdfrwt beam="2">  1       21 0.97684167E-02 0.28658966E+03</pdfrwt>
<totfact> 0.31850794E+05</totfact>
</mgrwt>
</event>
<event>
 8    1  0.9529436E-006  0.2793344E+03  0.7546771E-02  0.1096053E+00
         21   -1    0    0  504  503  0.00000000000E+00  0.00000000000E+00  0.23734070724E+03  0.23734070724E+03  0.00000000000E+00 0.  1.
         21   -1    0    0  503  504 -0.00000000000E+00 -0.00000000000E+00 -0.82189548839E+02  0.82189548839E+02  0.00000000000E+00 0.  1.
         25    2    1    2    0    0 -0.44501365674E+02  0.41188962646E+02  0.93940411263E+02  0.16771215896E+03  0.12500266079E+03 0.  0.
         25    2    1    2    0    0  0.44501365674E+02 -0.41188962646E+02  0.61210747142E+02  0.15181809712E+03  0.12500030743E+03 0.  0.
          5    1    3    3  501    0 -0.34308181099E+02 -0.29220189222E+02  0.84380396720E+02  0.95775842983E+02  0.47000000000E+01 0.  1.
         -5    1    3    3    0  501 -0.10193184575E+02  0.70409151868E+02  0.95600145425E+01  0.71936315979E+02  0.47000000000E+01 0.  1.
          5    1    4    4  502    0 -0.35770501811E+02 -0.21673845381E+02  0.54420223495E+02  0.68796330561E+02  0.47000000000E+01 0. -1.
         -5    1    4    4    0  502  0.80271867485E+02 -0.19515117265E+02  0.67905236471E+01  0.83021766560E+02  0.47000000000E+01 0. -1.
<mgrwt>
<rscale>  0 0.27933439E+03</rscale>
<asrwt>0</asrwt>
<pdfrwt beam="1">  1       21 0.36513955E-01 0.27933439E+03</pdfrwt>
<pdfrwt beam="2">  1       21 0.12644546E-01 0.27933439E+03</pdfrwt>
<totfact> 0.37929910E+05</totfact>
</mgrwt>
</event>
<event>
 8    1  0.9529436E-006  0.2751962E+03  0.7546771E-02  0.1098342E+00
         21   -1    0    0  504  503  0.00000000000E+00  0.00000000000E+00  0.12897244283E+03  0.12897244283E+03  0.00000000000E+00 0.  1.
         21   -1    0    0  503  504 -0.00000000000E+00 -0.00000000000E+00 -0.14680059072E+03  0.14680059072E+03  0.00000000000E+00 0.  1.
         25    2    1    2    0    0 -0.48641735940E+02  0.30149148473E+02 -0.29943010360E+01  0.13751345172E+03  0.12500397568E+03 0.  0.
         25    2    1    2    0    0  0.48641735940E+02 -0.30149148473E+02 -0.14833846854E+02  0.13825958183E+03  0.12498271611E+03 0.  0.
          5    1    3    3  501    0  0.19628968234E+02 -0.18170683429E+02  0.36012534275E+02  0.45105019178E+02  0.47000000000E+01 0.  1.
         -5    1    3    3    0  501 -0.68270704174E+02  0.48319831902E+02 -0.39006835311E+02  0.92408432540E+02  0.47000000000E+01 0.  1.
          5    1    4    4  502    0  0.33228863397E+02 -0.55902333288E+02  0.39338922954E+02  0.76150305901E+02  0.47000000000E+01 0.  1.
         -5    1    4    4    0  502  0.15412872544E+02  0.25753184815E+02 -0.54172769807E+02  0.62109275932E+02  0.47000000000E+01 0.  1.
<mgrwt>
<rscale>  0 0.27519615E+03</rscale>
<asrwt>0</asrwt>
<pdfrwt beam="1">  1       21 0.19841914E-01 0.27519615E+03</pdfrwt>
<pdfrwt beam="2">  1       21 0.22584706E-01 0.27519615E+03</pdfrwt>
<totfact> 0.42319288E+05</totfact>
</mgrwt>
</event>
<event>
 8    1  0.9529436E-006  0.2678541E+03  0.7546771E-02  0.1102514E+00
         21   -1    0    0  504  503  0.00000000000E+00  0.00000000000E+00  0.18987184538E+03  0.18987184538E+03  0.00000000000E+00 0.  1.
         21   -1    0    0  503  504 -0.00000000000E+00 -0.00000000000E+00 -0.94466123067E+02  0.94466123067E+02  0.00000000000E+00 0.  1.
         25    2    1    2    0    0 -0.15546046711E+02 -0.81798414677E+01  0.95211476893E+02  0.15810899187E+03  0.12499855440E+03 0.  0.
         25    2    1    2    0    0  0.15546046711E+02  0.81798414677E+01  0.19424542393E+00  0.12622897659E+03  0.12500050970E+03 0.  0.
          5    1    3    3  501    0 -0.26373764654E+02 -0.47655020037E+02  0.33225581689E+00  0.54669706335E+02  0.47000000000E+01 0.  1.
         -5    1    3    3    0  501  0.10827717944E+02  0.39475178570E+02  0.94879221076E+02  0.10343928553E+03  0.47000000000E+01 0.  1.
          5    1    4    4  502    0  0.22329343879E+02 -0.26408620185E+02  0.52462712659E+02  0.63011435769E+02  0.47000000000E+01 0. -1.
         -5    1    4    4    0  502 -0.67832971680E+01  0.34588461652E+02 -0.52268467235E+02  0.63217540818E+02  0.47000000000E+01 0. -1.
<mgrwt>
<rscale>  0 0.26785412E+03</rscale>
<asrwt>0</asrwt>
<pdfrwt beam="1">  1       21 0.29211053E-01 0.26785412E+03</pdfrwt>
<pdfrwt beam="2">  1       21 0.14533250E-01 0.26785412E+03</pdfrwt>
<totfact> 0.45938734E+05</totfact>
</mgrwt>
</event>
<event>
 8    1  0.9529436E-006  0.2540864E+03  0.7546771E-02  0.1110749E+00
         21   -1    0    0  504  503  0.00000000000E+00  0.00000000000E+00  0.11761774604E+03  0.11761774604E+03  0.00000000000E+00 0. -1.
         21   -1    0    0  503  504 -0.00000000000E+00 -0.00000000000E+00 -0.13722392810E+03  0.13722392810E+03  0.00000000000E+00 0. -1.
         25    2    1    2    0    0 -0.14186894589E+02 -0.13269843638E+02  0.21735610784E+01  0.12648590256E+03  0.12496640528E+03 0.  0.
         25    2    1    2    0    0  0.14186894589E+02  0.13269843638E+02 -0.21779743135E+02  0.12835577158E+03  0.12499396049E+03 0.  0.
          5    1    3    3  501    0  0.35300721677E+02  0.26395428058E+02 -0.31638219670E+02  0.54460320575E+02  0.47000000000E+01 0. -1.
         -5    1    3    3    0  501 -0.49487616266E+02 -0.39665271696E+02  0.33811780748E+02  0.72025581982E+02  0.47000000000E+01 0. -1.
          5    1    4    4  502    0  0.34670760281E+02  0.94461075937E+00 -0.67790337953E+02  0.76292685283E+02  0.47000000000E+01 0. -1.
         -5    1    4    4    0  502 -0.20483865691E+02  0.12325232879E+02  0.46010594818E+02  0.52063086296E+02  0.47000000000E+01 0. -1.
<mgrwt>
<rscale>  0 0.25408636E+03</rscale>
<asrwt>0</asrwt>
<pdfrwt beam="1">  1       21 0.18095038E-01 0.25408636E+03</pdfrwt>
<pdfrwt beam="2">  1       21 0.21111374E-01 0.25408636E+03</pdfrwt>
<totfact> 0.57361707E+05</totfact>
</mgrwt>
</event>
<event>
 8    1  0.9529436E-006  0.3634899E+03  0.7546771E-02  0.1057211E+00
         21   -1    0    0  504  503  0.00000000000E+00  0.00000000000E+00  0.11851784027E+04  0.11851784027E+04  0.00000000000E+00 0.  1.
         21   -1    0    0  503  504 -0.00000000000E+00 -0.00000000000E+00 -0.27870254810E+02  0.27870254810E+02  0.00000000000E+00 0.  1.
         25    2    1    2    0    0 -0.97284799441E+02  0.13416908829E+02  0.87265286873E+03  0.88701402389E+03  0.12500601437E+03 0.  0.
         25    2    1    2    0    0  0.97284799441E+02 -0.13416908829E+02  0.28465527916E+03  0.32603463362E+03  0.12500243486E+03 0.  0.
          5    1    3    3  501    0 -0.47251936346E+02  0.60928809518E+02  0.28419510832E+03  0.29450639197E+03  0.47000000000E+01 0. -1.
         -5    1    3    3    0  501 -0.50032863095E+02 -0.47511900690E+02  0.58845776041E+03  0.59250763192E+03  0.47000000000E+01 0. -1.
          5    1    4    4  502    0 -0.29398921939E+02 -0.11760582905E+02  0.63666295789E+02  0.71260754563E+02  0.47000000000E+01 0.  1.
         -5    1    4    4    0  502  0.12668372138E+03 -0.16563259239E+01  0.22098898337E+03  0.25477387906E+03  0.47000000000E+01 0.  1.
<mgrwt>
<rscale>  0 0.36348988E+03</rscale>
<asrwt>0</asrwt>
<pdfrwt beam="1">  1       21 0.18233510E+00 0.36348988E+03</pdfrwt>
<pdfrwt beam="2">  1       21 0.42877324E-02 0.36348988E+03</pdfrwt>
<totfact> 0.56651805E+04</totfact>
</mgrwt>
</event>
<event>
 8    1  0.9529436E-006  0.3298298E+03  0.7546771E-02  0.1071212E+00
         21   -1    0    0  504  503  0.00000000000E+00  0.00000000000E+00  0.25513852019E+03  0.25513852019E+03  0.00000000000E+00 0. -1.
         21   -1    0    0  503  504 -0.00000000000E+00 -0.00000000000E+00 -0.10659671114E+03  0.10659671114E+03  0.00000000000E+00 0. -1.
         25    2    1    2    0    0  0.62750216473E+02 -0.72441975802E+02  0.12786254316E+03  0.20287097117E+03  0.12498948545E+03 0.  0.
         25    2    1    2    0    0 -0.62750216473E+02  0.72441975802E+02  0.20679265888E+02  0.15886426015E+03  0.12499916636E+03 0.  0.
          5    1    3    3  501    0  0.94687504106E+02 -0.37900955561E+02  0.54882206067E+02  0.11591528117E+03  0.47000000000E+01 0.  1.
         -5    1    3    3    0  501 -0.31937287633E+02 -0.34541020240E+02  0.72980337094E+02  0.86955689998E+02  0.47000000000E+01 0.  1.
          5    1    4    4  502    0 -0.81907840590E+02  0.58942951578E+02  0.56540373345E+02  0.11576730846E+03  0.47000000000E+01 0.  1.
         -5    1    4    4    0  502  0.19157624117E+02  0.13499024224E+02 -0.35861107457E+02  0.43096951689E+02  0.47000000000E+01 0.  1.
<mgrwt>
<rscale>  0 0.32982982E+03</rscale>
<asrwt>0</asrwt>
<pdfrwt beam="1">  1       21 0.39252080E-01 0.32982982E+03</pdfrwt>
<pdfrwt beam="2">  1       21 0.16399494E-01 0.32982982E+03</pdfrwt>
<totfact> 0.20133456E+05</totfact>
</mgrwt>
</event>
<event>
 8    1  0.9529436E-006  0.3931058E+03  0.7546771E-02  0.1046193E+00
         21   -1    0    0  504  503  0.00000000000E+00  0.00000000000E+00  0.18538145809E+03  0.18538145809E+03  0.00000000000E+00 0. -1.
         21   -1    0    0  503  504 -0.00000000000E+00 -0.00000000000E+00 -0.20839758714E+03  0.20839758714E+03  0.00000000000E+00 0. -1.
         25    2    1    2    0    0 -0.81027358126E+02 -0.49858594389E+02  0.10682808115E+03  0.18997305419E+03  0.12500484069E+03 0.  0.
         25    2    1    2    0    0  0.81027358126E+02  0.49858594389E+02 -0.12984421020E+03  0.20380599104E+03  0.12500420337E+03 0.  0.
          5    1    3    3  501    0 -0.74668258960E+02 -0.82056083647E+02  0.44996741138E+02  0.11981379917E+03  0.47000000000E+01 0. -1.
         -5    1    3    3    0  501 -0.63590991660E+01  0.32197489258E+02  0.61831340015E+02  0.70159255018E+02  0.47000000000E+01 0. -1.
          5    1    4    4  502    0  0.17662072171E+01  0.39719987471E+02 -0.11581631134E+03  0.12254103340E+03  0.47000000000E+01 0.  1.
         -5    1    4    4    0  502  0.79261150909E+02  0.10138606917E+02 -0.14027898860E+02  0.81264957639E+02  0.47000000000E+01 0.  1.
<mgrwt>
<rscale>  0 0.39310583E+03</rscale>
<asrwt>0</asrwt>
<pdfrwt beam="1">  1       21 0.28520224E-01 0.39310583E+03</pdfrwt>
<pdfrwt beam="2">  1       21 0.32061167E-01 0.39310583E+03</pdfrwt>
<totfact> 0.10388510E+05</totfact>
</mgrwt>
</event>
<event>
 8    1  0.9529436E-006  0.3334003E+03  0.7546771E-02  0.1069642E+00
         21   -1    0    0  504  503  0.00000000000E+00  0.00000000000E+00  0.92659466271E+02  0.92659466271E+02  0.00000000000E+00 0. -1.
         21   -1    0    0  503  504 -0.00000000000E+00 -0.00000000000E+00 -0.29990391348E+03  0.29990391348E+03  0.00000000000E+00 0. -1.
         25    2    1    2    0    0  0.46753743772E+02  0.90548932168E+02 -0.53946773291E+02  0.17005244113E+03  0.12499022647E+03 0.  0.
         25    2    1    2    0    0 -0.46753743772E+02 -0.90548932168E+02 -0.15329767392E+03  0.22251093862E+03  0.12500367715E+03 0.  0.
          5    1    3    3  501    0  0.12702816447E+02  0.11541554895E+03 -0.52725786330E+02  0.12760959614E+03  0.47000000000E+01 0.  1.
         -5    1    3    3    0  501  0.34050927325E+02 -0.24866616777E+02 -0.12209869607E+01  0.42442844989E+02  0.47000000000E+01 0.  1.
          5    1    4    4  502    0  0.15790482569E+02 -0.10160631234E+02 -0.11007920521E+03  0.11176805978E+03  0.47000000000E+01 0.  1.
         -5    1    4    4    0  502 -0.62544226341E+02 -0.80388300934E+02 -0.43218468706E+02  0.11074287884E+03  0.47000000000E+01 0.  1.
<mgrwt>
<rscale>  0 0.33340028E+03</rscale>
<asrwt>0</asrwt>
<pdfrwt beam="1">  1       21 0.14255303E-01 0.33340028E+03</pdfrwt>
<pdfrwt beam="2">  1       21 0.46139063E-01 0.33340028E+03</pdfrwt>
<totfact> 0.18664249E+05</totfact>
</mgrwt>
</event>
<event>
 8    1  0.9529436E-006  0.2932141E+03  0.7546771E-02  0.1088683E+00
         21   -1    0    0  504  503  0.00000000000E+00  0.00000000000E+00  0.19969925364E+03  0.19969925364E+03  0.00000000000E+00 0. -1.
         21   -1    0    0  503  504 -0.00000000000E+00 -0.00000000000E+00 -0.10762998035E+03  0.10762998035E+03  0.00000000000E+00 0. -1.
         25    2    1    2    0    0 -0.61041202141E+01 -0.76093358446E+02  0.53027038535E+02  0.15575008000E+03  0.12497504199E+03 0.  0.
         25    2    1    2    0    0  0.61041202141E+01  0.76093358446E+02  0.39042234753E+02  0.15157915399E+03  0.12499793738E+03 0.  0.
          5    1    3    3  501    0 -0.62333238615E+02 -0.59666657954E+02  0.21457269132E+02  0.89039581683E+02  0.47000000000E+01 0.  1.
         -5    1    3    3    0  501  0.56229118401E+02 -0.16426700492E+02  0.31569769403E+02  0.66710498314E+02  0.47000000000E+01 0.  1.
          5    1    4    4  502    0 -0.26015738034E+02  0.84863270191E+02 -0.12783734145E+02  0.89800373673E+02  0.47000000000E+01 0. -1.
         -5    1    4    4    0  502  0.32119858248E+02 -0.87699117458E+01  0.51825968898E+02  0.61778780322E+02  0.47000000000E+01 0. -1.
<mgrwt>
<rscale>  0 0.29321410E+03</rscale>
<asrwt>0</asrwt>
<pdfrwt beam="1">  1       21 0.30722962E-01 0.29321410E+03</pdfrwt>
<pdfrwt beam="2">  1       21 0.16558459E-01 0.29321410E+03</pdfrwt>
<totfact> 0.32562767E+05</totfact>
</mgrwt>
</event>
<event>
 8    1  0.9529436E-006  0.3440164E+03  0.7546771E-02  0.1065098E+00
         21   -1    0    0  504  503  0.00000000000E+00  0.00000000000E+00  0.20107303394E+03  0.20107303394E+03  0.00000000000E+00 0.  1.
         21   -1    0    0  503  504 -0.00000000000E+00 -0.00000000000E+00 -0.14714467986E+03  0.14714467986E+03  0.00000000000E+00 0.  1.
         25    2    1    2    0    0 -0.46261801667E+02  0.10781158995E+03  0.41223005113E+02  0.17631706869E+03  0.12499951736E+03 0.  0.
         25    2    1    2    0    0  0.46261801667E+02 -0.10781158995E+03  0.12705348965E+02  0.17190064512E+03  0.12499965072E+03 0.  0.
          5    1    3    3  501    0 -0.56494105267E+02  0.12587085238E+03  0.57479893431E+02  0.14953622825E+03  0.47000000000E+01 0.  1.
         -5    1    3    3    0  501  0.10232303600E+02 -0.18059262439E+02 -0.16256888318E+02  0.26780840439E+02  0.47000000000E+01 0.  1.
          5    1    4    4  502    0 -0.22990525193E+02 -0.46218090035E+02  0.49876488554E+02  0.71933512396E+02  0.47000000000E+01 0.  1.
         -5    1    4    4    0  502  0.69252326860E+02 -0.61593499910E+02 -0.37171139589E+02  0.99967132724E+02  0.47000000000E+01 0.  1.
<mgrwt>
<rscale>  0 0.34401644E+03</rscale>
<asrwt>0</asrwt>
<pdfrwt beam="1">  1       21 0.30934313E-01 0.34401644E+03</pdfrwt>
<pdfrwt beam="2">  1       21 0.22637643E-01 0.34401644E+03</pdfrwt>
<totfact> 0.17645716E+05</totfact>
</mgrwt>
</event>
<event>
 8    1  0.9529436E-006  0.3126731E+03  0.7546771E-02  0.1079072E+00
         21   -1    0    0  504  503  0.00000000000E+00  0.00000000000E+00  0.21397820472E+03  0.21397820472E+03  0.00000000000E+00 0. -1.
         21   -1    0    0  503  504 -0.00000000000E+00 -0.00000000000E+00 -0.11422242408E+03  0.11422242408E+03  0.00000000000E+00 0. -1.
         25    2    1    2    0    0  0.51533794555E+02 -0.73917975192E+02  0.22173175178E+02  0.15568104069E+03  0.12500135078E+03 0.  0.
         25    2    1    2    0    0 -0.51533794555E+02  0.73917975192E+02  0.77582605465E+02  0.17251958812E+03  0.12499739427E+03 0.  0.
          5    1    3    3  501    0 -0.87963936015E+01 -0.18685382680E+02  0.61323283279E+02  0.64878001960E+02  0.47000000000E+01 0.  1.
         -5    1    3    3    0  501  0.60330188157E+02 -0.55232592512E+02 -0.39150108101E+02  0.90803038732E+02  0.47000000000E+01 0.  1.
          5    1    4    4  502    0  0.16785400315E+02 -0.12607303655E+02  0.56125192920E+02  0.60106747121E+02  0.47000000000E+01 0. -1.
         -5    1    4    4    0  502 -0.68319194870E+02  0.86525278847E+02  0.21457412545E+02  0.11241284099E+03  0.47000000000E+01 0. -1.
<mgrwt>
<rscale>  0 0.31267305E+03</rscale>
<asrwt>0</asrwt>
<pdfrwt beam="1">  1       21 0.32919724E-01 0.31267305E+03</pdfrwt>
<pdfrwt beam="2">  1       21 0.17572681E-01 0.31267305E+03</pdfrwt>
<totfact> 0.25327149E+05</totfact>
</mgrwt>
</event>
<event>
 8    1  0.9529436E-006  0.5125109E+03  0.7546771E-02  0.1010564E+00
         21   -1    0    0  504  503  0.00000000000E+00  0.00000000000E+00  0.74107114399E+02  0.74107114399E+02  0.00000000000E+00 0.  1.
         21   -1    0    0  503  504 -0.00000000000E+00 -0.00000000000E+00 -0.88610719812E+03  0.88610719812E+03  0.00000000000E+00 0.  1.
         25    2    1    2    0    0  0.83792732452E+02  0.18483051393E+03 -0.22966816848E+03  0.33099380169E+03  0.12500355298E+03 0.  0.
         25    2    1    2    0    0 -0.83792732452E+02 -0.18483051393E+03 -0.58233191525E+03  0.62922051083E+03  0.12499780335E+03 0.  0.
          5    1    3    3  501    0 -0.28024591992E+02  0.66941108661E+02 -0.96648377537E+02  0.12095242315E+03  0.47000000000E+01 0.  1.
         -5    1    3    3    0  501  0.11181732444E+03  0.11788940526E+03 -0.13301979094E+03  0.21004137855E+03  0.47000000000E+01 0.  1.
          5    1    4    4  502    0 -0.11629945466E+03 -0.13249632960E+03 -0.44222809904E+03  0.47609728217E+03  0.47000000000E+01 0.  1.
         -5    1    4    4    0  502  0.32506722213E+02 -0.52334184323E+02 -0.14010381621E+03  0.15312322866E+03  0.47000000000E+01 0.  1.
<mgrwt>
<rscale>  0 0.51251087E+03</rscale>
<asrwt>0</asrwt>
<pdfrwt beam="1">  1       21 0.11401095E-01 0.51251087E+03</pdfrwt>
<pdfrwt beam="2">  1       21 0.13632418E+00 0.51251087E+03</pdfrwt>
<totfact> 0.21767338E+04</totfact>
</mgrwt>
</event>
<event>
 8    1  0.9529436E-006  0.2930647E+03  0.7546771E-02  0.1088760E+00
         21   -1    0    0  504  503  0.00000000000E+00  0.00000000000E+00  0.16060546722E+03  0.16060546722E+03  0.00000000000E+00 0. -1.
         21   -1    0    0  503  504 -0.00000000000E+00 -0.00000000000E+00 -0.13369239434E+03  0.13369239434E+03  0.00000000000E+00 0. -1.
         25    2    1    2    0    0  0.18675357307E+02 -0.20317028913E+02  0.85068944908E+02  0.15369803257E+03  0.12499923678E+03 0.  0.
         25    2    1    2    0    0 -0.18675357307E+02  0.20317028913E+02 -0.58155872031E+02  0.14059982899E+03  0.12499862330E+03 0.  0.
          5    1    3    3  501    0  0.37096206543E+02 -0.56000541157E+01 -0.22147694954E+02  0.43818940400E+02  0.47000000000E+01 0.  1.
         -5    1    3    3    0  501 -0.18420849237E+02 -0.14716974797E+02  0.10721663986E+03  0.10987909217E+03  0.47000000000E+01 0.  1.
          5    1    4    4  502    0 -0.22591221396E+02 -0.50452256606E+02 -0.36225418813E+02  0.66258316075E+02  0.47000000000E+01 0. -1.
         -5    1    4    4    0  502  0.39158640895E+01  0.70769285519E+02 -0.21930453218E+02  0.74341512917E+02  0.47000000000E+01 0. -1.
<mgrwt>
<rscale>  0 0.29306470E+03</rscale>
<asrwt>0</asrwt>
<pdfrwt beam="1">  1       21 0.24708533E-01 0.29306470E+03</pdfrwt>
<pdfrwt beam="2">  1       21 0.20568061E-01 0.29306470E+03</pdfrwt>
<totfact> 0.33181249E+05</totfact>
</mgrwt>
</event>
<event>
 8    1  0.9529436E-006  0.2833749E+03  0.7546771E-02  0.1093860E+00
         21   -1    0    0  504  503  0.00000000000E+00  0.00000000000E+00  0.99808148131E+02  0.99808148131E+02  0.00000000000E+00 0.  1.
         21   -1    0    0  503  504 -0.00000000000E+00 -0.00000000000E+00 -0.20113929429E+03  0.20113929429E+03  0.00000000000E+00 0.  1.
         25    2    1    2    0    0 -0.23404464112E+02 -0.38214829911E+01  0.15562420797E+02  0.12817665735E+03  0.12499877550E+03 0.  0.
         25    2    1    2    0    0  0.23404464112E+02  0.38214829911E+01 -0.11689356696E+03  0.17277078507E+03  0.12499306183E+03 0.  0.
          5    1    3    3  501    0  0.20575651202E+02 -0.26142978350E+02 -0.40984098472E+02  0.52996217478E+02  0.47000000000E+01 0. -1.
         -5    1    3    3    0  501 -0.43980115315E+02  0.22321495359E+02  0.56546519269E+02  0.75180439873E+02  0.47000000000E+01 0. -1.
          5    1    4    4  502    0 -0.42843957688E+02 -0.23709328060E+02 -0.22440931251E+02  0.54068681719E+02  0.47000000000E+01 0.  1.
         -5    1    4    4    0  502  0.66248421801E+02  0.27530811051E+02 -0.94452635709E+02  0.11870210335E+03  0.47000000000E+01 0.  1.
<mgrwt>
<rscale>  0 0.28337495E+03</rscale>
<asrwt>0</asrwt>
<pdfrwt beam="1">  1       21 0.15355100E-01 0.28337495E+03</pdfrwt>
<pdfrwt beam="2">  1       21 0.30944506E-01 0.28337495E+03</pdfrwt>
<totfact> 0.36973633E+05</totfact>
</mgrwt>
</event>
<event>
 8    1  0.9529436E-006  0.2519859E+03  0.7546771E-02  0.1112056E+00
         21   -1    0    0  504  503  0.00000000000E+00  0.00000000000E+00  0.12277680814E+04  0.12277680814E+04  0.00000000000E+00 0.  1.
         21   -1    0    0  503  504 -0.00000000000E+00 -0.00000000000E+00 -0.12929337284E+02  0.12929337284E+02  0.00000000000E+00 0.  1.
         25    2    1    2    0    0  0.10233656165E+02  0.35767280878E+01  0.66404772543E+03  0.67579767132E+03  0.12500236082E+03 0.  0.
         25    2    1    2    0    0 -0.10233656165E+02 -0.35767280878E+01  0.55079101867E+03  0.56489974735E+03  0.12499383026E+03 0.  0.
          5    1    3    3  501    0  0.36343461150E+02 -0.41721488684E+02  0.51077072473E+03  0.51378045217E+03  0.47000000000E+01 0.  1.
         -5    1    3    3    0  501 -0.26109804985E+02  0.45298216772E+02  0.15327700070E+03  0.16201721915E+03  0.47000000000E+01 0.  1.
          5    1    4    4  502    0  0.16165009049E+02  0.44579604658E+02  0.42370048449E+03  0.42637171485E+03  0.47000000000E+01 0. -1.
         -5    1    4    4    0  502 -0.26398665214E+02 -0.48156332746E+02  0.12709053418E+03  0.13852803249E+03  0.47000000000E+01 0. -1.
<mgrwt>
<rscale>  0 0.25198593E+03</rscale>
<asrwt>0</asrwt>
<pdfrwt beam="1">  1       21 0.18888731E+00 0.25198593E+03</pdfrwt>
<pdfrwt beam="2">  1       21 0.19891298E-02 0.25198593E+03</pdfrwt>
<totfact> 0.19185642E+05</totfact>
</mgrwt>
</event>
<event>
 8    1  0.9529436E-006  0.4020493E+03  0.7546771E-02  0.1043072E+00
         21   -1    0    0  504  503  0.00000000000E+00  0.00000000000E+00  0.32809836872E+03  0.32809836872E+03  0.00000000000E+00 0.  1.
         21   -1    0    0  503  504 -0.00000000000E+00 -0.00000000000E+00 -0.12316704861E+03  0.12316704861E+03  0.00000000000E+00 0.  1.
         25    2    1    2    0    0  0.10823211484E+03  0.60938198990E+02 -0.61154468591E+01  0.17632375972E+03  0.12500005909E+03 0.  0.
         25    2    1    2    0    0 -0.10823211484E+03 -0.60938198990E+02  0.21104676696E+03  0.27494165760E+03  0.12499808983E+03 0.  0.
          5    1    3    3  501    0  0.73617020541E+02  0.17574041641E+02  0.54975481921E+02  0.93662726127E+02  0.47000000000E+01 0. -1.
         -5    1    3    3    0  501  0.34615094301E+02  0.43364157350E+02 -0.61090928781E+02  0.82661033597E+02  0.47000000000E+01 0. -1.
          5    1    4    4  502    0 -0.17374302032E+02 -0.13783636452E+02 -0.14704404762E+02  0.27021556660E+02  0.47000000000E+01 0. -1.
         -5    1    4    4    0  502 -0.90857812810E+02 -0.47154562538E+02  0.22575117172E+03  0.24792010094E+03  0.47000000000E+01 0. -1.
<mgrwt>
<rscale>  0 0.40204929E+03</rscale>
<asrwt>0</asrwt>
<pdfrwt beam="1">  1       21 0.50476672E-01 0.40204929E+03</pdfrwt>
<pdfrwt beam="2">  1       21 0.18948777E-01 0.40204929E+03</pdfrwt>
<totfact> 0.89621380E+04</totfact>
</mgrwt>
</event>
<event>
 8    1  0.9529436E-006  0.4761462E+03  0.7546771E-02  0.1020200E+00
         21   -1    0    0  504  503  0.00000000000E+00  0.00000000000E+00  0.15228197463E+03  0.15228197463E+03  0.00000000000E+00 0.  1.
         21   -1    0    0  503  504 -0.00000000000E+00 -0.00000000000E+00 -0.37219632235E+03  0.37219632235E+03  0.00000000000E+00 0.  1.
         25    2    1    2    0    0 -0.18046161600E+03  0.91091594615E+02 -0.12509744341E+03  0.26858976852E+03  0.12500807952E+03 0.  0.
         25    2    1    2    0    0  0.18046161600E+03 -0.91091594615E+02 -0.94816904302E+02  0.25588852846E+03  0.12499848077E+03 0.  0.
          5    1    3    3  501    0 -0.14046951957E+03  0.12123448521E+03 -0.11133319123E+03  0.21644088292E+03  0.47000000000E+01 0. -1.
         -5    1    3    3    0  501 -0.39992096438E+02 -0.30142890595E+02 -0.13764252181E+02  0.52148885597E+02  0.47000000000E+01 0. -1.
          5    1    4    4  502    0  0.15297508387E+03 -0.11369997572E+03 -0.47487330027E+02  0.19648459807E+03  0.47000000000E+01 0.  1.
         -5    1    4    4    0  502  0.27486532133E+02  0.22608381108E+02 -0.47329574275E+02  0.59403930392E+02  0.47000000000E+01 0.  1.
<mgrwt>
<rscale>  0 0.47614616E+03</rscale>
<asrwt>0</asrwt>
<pdfrwt beam="1">  1       21 0.23427996E-01 0.47614616E+03</pdfrwt>
<pdfrwt beam="2">  1       21 0.57260973E-01 0.47614616E+03</pdfrwt>
<totfact> 0.44838211E+04</totfact>
</mgrwt>
</event>
<event>
 8    1  0.9529436E-006  0.2802573E+03  0.7546771E-02  0.1095549E+00
         21   -1    0    0  504  503  0.00000000000E+00  0.00000000000E+00  0.28095371466E+02  0.28095371466E+02  0.00000000000E+00 0.  1.
         21   -1    0    0  503  504 -0.00000000000E+00 -0.00000000000E+00 -0.69890631557E+03  0.69890631557E+03  0.00000000000E+00 0.  1.
         25    2    1    2    0    0 -0.32786817012E+02  0.16111356519E+02 -0.46963750149E+03  0.48735760048E+03  0.12499398689E+03 0.  0.
         25    2    1    2    0    0  0.32786817012E+02 -0.16111356519E+02 -0.20117344261E+03  0.23964408655E+03  0.12499593205E+03 0.  0.
          5    1    3    3  501    0 -0.61059928910E+02 -0.22884513183E+02 -0.37911195046E+03  0.38470765114E+03  0.47000000000E+01 0. -1.
         -5    1    3    3    0  501  0.28273111898E+02  0.38995869702E+02 -0.90525551032E+02  0.10264994934E+03  0.47000000000E+01 0. -1.
          5    1    4    4  502    0  0.57844915536E+02 -0.45409596663E+02 -0.18195675832E+03  0.19631204146E+03  0.47000000000E+01 0.  1.
         -5    1    4    4    0  502 -0.25058098524E+02  0.29298240143E+02 -0.19216684287E+02  0.43332045095E+02  0.47000000000E+01 0.  1.
<mgrwt>
<rscale>  0 0.28025726E+03</rscale>
<asrwt>0</asrwt>
<pdfrwt beam="1">  1       21 0.43223651E-02 0.28025726E+03</pdfrwt>
<pdfrwt beam="2">  1       21 0.10752404E+00 0.28025726E+03</pdfrwt>
<totfact> 0.23116278E+05</totfact>
</mgrwt>
</event>
<event>
 8    1  0.9529436E-006  0.2940787E+03  0.7546771E-02  0.1088239E+00
         21   -1    0    0  504  503  0.00000000000E+00  0.00000000000E+00  0.17199154753E+03  0.17199154753E+03  0.00000000000E+00 0. -1.
         21   -1    0    0  503  504 -0.00000000000E+00 -0.00000000000E+00 -0.12570715895E+03  0.12570715895E+03  0.00000000000E+00 0. -1.
         25    2    1    2    0    0  0.51271661051E+01 -0.35668589990E+02  0.92508506955E+02  0.15962867088E+03  0.12499981025E+03 0.  0.
         25    2    1    2    0    0 -0.51271661051E+01  0.35668589990E+02 -0.46224118372E+02  0.13807003560E+03  0.12501251724E+03 0.  0.
          5    1    3    3  501    0  0.29776890114E+02 -0.75901790625E+02  0.67885684868E+02  0.10619934658E+03  0.47000000000E+01 0. -1.
         -5    1    3    3    0  501 -0.24649724008E+02  0.40233200635E+02  0.24622822087E+02  0.53429324295E+02  0.47000000000E+01 0. -1.
          5    1    4    4  502    0 -0.61058549970E+02  0.13209687699E+02 -0.11448395981E+01  0.62658144173E+02  0.47000000000E+01 0. -1.
         -5    1    4    4    0  502  0.55931383865E+02  0.22458902291E+02 -0.45079278773E+02  0.75411891422E+02  0.47000000000E+01 0. -1.
<mgrwt>
<rscale>  0 0.29407869E+03</rscale>
<asrwt>0</asrwt>
<pdfrwt beam="1">  1       21 0.26460238E-01 0.29407869E+03</pdfrwt>
<pdfrwt beam="2">  1       21 0.19339563E-01 0.29407869E+03</pdfrwt>
<totfact> 0.32640769E+05</totfact>
</mgrwt>
</event>
<event>
 8    1  0.9529436E-006  0.4190812E+03  0.7546771E-02  0.1037366E+00
         21   -1    0    0  504  503  0.00000000000E+00  0.00000000000E+00  0.22747916248E+03  0.22747916248E+03  0.00000000000E+00 0. -1.
         21   -1    0    0  503  504 -0.00000000000E+00 -0.00000000000E+00 -0.19301661684E+03  0.19301661684E+03  0.00000000000E+00 0. -1.
         25    2    1    2    0    0 -0.99688281635E+02 -0.75514656377E+01 -0.11844790609E+03  0.19912791719E+03  0.12500897096E+03 0.  0.
         25    2    1    2    0    0  0.99688281635E+02  0.75514656377E+01  0.15291045172E+03  0.22136786212E+03  0.12500938367E+03 0.  0.
          5    1    3    3  501    0  0.51477926931E+01 -0.45681382923E+02 -0.20314967372E+02  0.50478474765E+02  0.47000000000E+01 0.  1.
         -5    1    3    3    0  501 -0.10483607433E+03  0.38129917285E+02 -0.98132938713E+02  0.14864944243E+03  0.47000000000E+01 0.  1.
          5    1    4    4  502    0  0.95558873438E+02  0.41952607578E+02  0.56403955403E+02  0.11872243158E+03  0.47000000000E+01 0. -1.
         -5    1    4    4    0  502  0.41294081977E+01 -0.34401141941E+02  0.96506496320E+02  0.10264543054E+03  0.47000000000E+01 0. -1.
<mgrwt>
<rscale>  0 0.41908118E+03</rscale>
<asrwt>0</asrwt>
<pdfrwt beam="1">  1       21 0.34996794E-01 0.41908118E+03</pdfrwt>
<pdfrwt beam="2">  1       21 0.29694864E-01 0.41908118E+03</pdfrwt>
<totfact> 0.80010903E+04</totfact>
</mgrwt>
</event>
<event>
 8    1  0.9529436E-006  0.3278152E+03  0.7546771E-02  0.1072108E+00
         21   -1    0    0  504  503  0.00000000000E+00  0.00000000000E+00  0.11585782145E+04  0.11585782145E+04  0.00000000000E+00 0. -1.
         21   -1    0    0  503  504 -0.00000000000E+00 -0.00000000000E+00 -0.23188509572E+02  0.23188509572E+02  0.00000000000E+00 0. -1.
         25    2    1    2    0    0 -0.85434869174E+02 -0.12552807363E+02  0.34592991270E+03  0.37782070280E+03  0.12499715646E+03 0.  0.
         25    2    1    2    0    0  0.85434869174E+02  0.12552807363E+02  0.78945979226E+03  0.80394602130E+03  0.12500300685E+03 0.  0.
          5    1    3    3  501    0  0.23939806098E+02  0.52668730809E+01  0.15512155161E+03  0.15711664470E+03  0.47000000000E+01 0. -1.
         -5    1    3    3    0  501 -0.10937467527E+03 -0.17819680444E+02  0.19080836109E+03  0.22070405810E+03  0.47000000000E+01 0. -1.
          5    1    4    4  502    0  0.17721166319E+02 -0.33116794633E+02  0.54186099993E+03  0.54318154890E+03  0.47000000000E+01 0.  1.
         -5    1    4    4    0  502  0.67713702855E+02  0.45669601996E+02  0.24759879234E+03  0.26076447240E+03  0.47000000000E+01 0.  1.
<mgrwt>
<rscale>  0 0.32781520E+03</rscale>
<asrwt>0</asrwt>
<pdfrwt beam="1">  1       21 0.17824276E+00 0.32781520E+03</pdfrwt>
<pdfrwt beam="2">  1       21 0.35674639E-02 0.32781520E+03</pdfrwt>
<totfact> 0.83631427E+04</totfact>
</mgrwt>
</event>
<event>
 8    1  0.9529436E-006  0.3744276E+03  0.7546771E-02  0.1053013E+00
         21   -1    0    0  504  503  0.00000000000E+00  0.00000000000E+00  0.41607690915E+03  0.41607690915E+03  0.00000000000E+00 0.  1.
         21   -1    0    0  503  504 -0.00000000000E+00 -0.00000000000E+00 -0.84236837292E+02  0.84236837292E+02  0.00000000000E+00 0.  1.
         25    2    1    2    0    0 -0.15168546704E+02  0.11279236573E+03  0.27342410762E+03  0.32146181475E+03  0.12499901255E+03 0.  0.
         25    2    1    2    0    0  0.15168546704E+02 -0.11279236573E+03  0.58415964246E+02  0.17885193170E+03  0.12499354391E+03 0.  0.
          5    1    3    3  501    0  0.18772872708E+02  0.12135794546E+03  0.25142463666E+03  0.27985104895E+03  0.47000000000E+01 0.  1.
         -5    1    3    3    0  501 -0.33941419413E+02 -0.85655797378E+01  0.21999470955E+02  0.41610765798E+02  0.47000000000E+01 0.  1.
          5    1    4    4  502    0 -0.23447897030E+02 -0.12466241289E+03  0.33984711597E+02  0.13140613260E+03  0.47000000000E+01 0. -1.
         -5    1    4    4    0  502  0.38616443735E+02  0.11870047162E+02  0.24431252649E+02  0.47445799101E+02  0.47000000000E+01 0. -1.
<mgrwt>
<rscale>  0 0.37442758E+03</rscale>
<asrwt>0</asrwt>
<pdfrwt beam="1">  1       21 0.64011831E-01 0.37442758E+03</pdfrwt>
<pdfrwt beam="2">  1       21 0.12959514E-01 0.37442758E+03</pdfrwt>
<totfact> 0.10914722E+05</totfact>
</mgrwt>
</event>
<event>
 8    1  0.9529436E-006  0.2893422E+03  0.7546771E-02  0.1090693E+00
         21   -1    0    0  504  503  0.00000000000E+00  0.00000000000E+00  0.21809560418E+02  0.21809560418E+02  0.00000000000E+00 0. -1.
         21   -1    0    0  503  504 -0.00000000000E+00 -0.00000000000E+00 -0.95965858702E+03  0.95965858702E+03  0.00000000000E+00 0. -1.
         25    2    1    2    0    0  0.42139326033E+01 -0.72649189573E+02 -0.47879061552E+03  0.50016166028E+03  0.12500228369E+03 0.  0.
         25    2    1    2    0    0 -0.42139326033E+01  0.72649189573E+02 -0.45905841108E+03  0.48130648716E+03  0.12500259127E+03 0.  0.
          5    1    3    3  501    0  0.51296119571E+02 -0.47550707188E+02 -0.39166497212E+03  0.39788930876E+03  0.47000000000E+01 0.  1.
         -5    1    3    3    0  501 -0.47082186968E+02 -0.25098482386E+02 -0.87125643403E+02  0.10227235152E+03  0.47000000000E+01 0.  1.
          5    1    4    4  502    0  0.42042639366E+02 -0.67561991971E+01 -0.74945252974E+02  0.86325608575E+02  0.47000000000E+01 0.  1.
         -5    1    4    4    0  502 -0.46256571970E+02  0.79405388770E+02 -0.38411315811E+03  0.39498087858E+03  0.47000000000E+01 0.  1.
<mgrwt>
<rscale>  0 0.28934223E+03</rscale>
<asrwt>0</asrwt>
<pdfrwt beam="1">  1       21 0.33553181E-02 0.28934223E+03</pdfrwt>
<pdfrwt beam="2">  1       21 0.14763974E+00 0.28934223E+03</pdfrwt>
<totfact> 0.15794533E+05</totfact>
</mgrwt>
</event>
<event>
 8    1  0.9529436E-006  0.3055780E+03  0.7546771E-02  0.1082485E+00
         21   -1    0    0  504  503  0.00000000000E+00  0.00000000000E+00  0.38043053219E+03  0.38043053219E+03  0.00000000000E+00 0. -1.
         21   -1    0    0  503  504 -0.00000000000E+00 -0.00000000000E+00 -0.61363314981E+02  0.61363314981E+02  0.00000000000E+00 0. -1.
         25    2    1    2    0    0  0.41135174439E+02 -0.45336127068E+02  0.25062266893E+03  0.28668064806E+03  0.12500641903E+03 0.  0.
         25    2    1    2    0    0 -0.41135174439E+02  0.45336127068E+02  0.68444548279E+02  0.15511319911E+03  0.12501192485E+03 0.  0.
          5    1    3    3  501    0  0.30060401980E+02  0.40986033599E+02  0.10950844666E+03  0.12082082853E+03  0.47000000000E+01 0. -1.
         -5    1    3    3    0  501  0.11074772460E+02 -0.86322160667E+02  0.14111422227E+03  0.16585981953E+03  0.47000000000E+01 0. -1.
          5    1    4    4  502    0  0.45103242852E+01 -0.39836366637E+02  0.32790559242E+02  0.52005671877E+02  0.47000000000E+01 0. -1.
         -5    1    4    4    0  502 -0.45645498725E+02  0.85172493704E+02  0.35653989037E+02  0.10310752723E+03  0.47000000000E+01 0. -1.
<mgrwt>
<rscale>  0 0.30557800E+03</rscale>
<asrwt>0</asrwt>
<pdfrwt beam="1">  1       21 0.58527773E-01 0.30557800E+03</pdfrwt>
<pdfrwt beam="2">  1       21 0.94405102E-02 0.30557800E+03</pdfrwt>
<totfact> 0.23842720E+05</totfact>
</mgrwt>
</event>
<event>
 8    1  0.9529436E-006  0.4338683E+03  0.7546771E-02  0.1032645E+00
         21   -1    0    0  504  503  0.00000000000E+00  0.00000000000E+00  0.60117241187E+02  0.60117241187E+02  0.00000000000E+00 0.  1.
         21   -1    0    0  503  504 -0.00000000000E+00 -0.00000000000E+00 -0.78281067676E+03  0.78281067676E+03  0.00000000000E+00 0.  1.
         25    2    1    2    0    0 -0.16328066908E+03  0.51550201669E+02 -0.45073234215E+03  0.49809871381E+03  0.12499873703E+03 0.  0.
         25    2    1    2    0    0  0.16328066908E+03 -0.51550201669E+02 -0.27196109342E+03  0.34482920413E+03  0.12500537388E+03 0.  0.
          5    1    3    3  501    0 -0.11836005113E+03 -0.25758160642E+02 -0.28545127842E+03  0.31012434102E+03  0.47000000000E+01 0. -1.
         -5    1    3    3    0  501 -0.44920617950E+02  0.77308362311E+02 -0.16528106373E+03  0.18797437279E+03  0.47000000000E+01 0. -1.
          5    1    4    4  502    0  0.85437049837E+02 -0.54638590722E+02 -0.57651045939E+02  0.11675015280E+03  0.47000000000E+01 0. -1.
         -5    1    4    4    0  502  0.77843619239E+02  0.30883890532E+01 -0.21431004748E+03  0.22807905133E+03  0.47000000000E+01 0. -1.
<mgrwt>
<rscale>  0 0.43386827E+03</rscale>
<asrwt>0</asrwt>
<pdfrwt beam="1">  1       21 0.92488063E-02 0.43386827E+03</pdfrwt>
<pdfrwt beam="2">  1       21 0.12043241E+00 0.43386827E+03</pdfrwt>
<totfact> 0.44630156E+04</totfact>
</mgrwt>
</event>
<event>
 8    1  0.9529436E-006  0.3043185E+03  0.7546771E-02  0.1083102E+00
         21   -1    0    0  504  503  0.00000000000E+00  0.00000000000E+00  0.94818160987E+02  0.94818160987E+02  0.00000000000E+00 0. -1.
         21   -1    0    0  503  504 -0.00000000000E+00 -0.00000000000E+00 -0.24417724659E+03  0.24417724659E+03  0.00000000000E+00 0. -1.
         25    2    1    2    0    0 -0.12712477513E+02  0.47649257685E+02 -0.15419477526E+03  0.20453166077E+03  0.12500045078E+03 0.  0.
         25    2    1    2    0    0  0.12712477513E+02 -0.47649257685E+02  0.48356896608E+01  0.13446374681E+03  0.12500022588E+03 0.  0.
          5    1    3    3  501    0 -0.43401847884E+02  0.72501944357E+02 -0.13737644526E+03  0.16135250246E+03  0.47000000000E+01 0.  1.
         -5    1    3    3    0  501  0.30689370371E+02 -0.24852686672E+02 -0.16818330000E+02  0.43179158313E+02  0.47000000000E+01 0.  1.
          5    1    4    4  502    0  0.37455940174E+02 -0.82660029934E+02  0.79731290004E+01  0.91221098377E+02  0.47000000000E+01 0.  1.
         -5    1    4    4    0  502 -0.24743462661E+02  0.35010772249E+02 -0.31374393396E+01  0.43242648433E+02  0.47000000000E+01 0.  1.
<mgrwt>
<rscale>  0 0.30431850E+03</rscale>
<asrwt>0</asrwt>
<pdfrwt beam="1">  1       21 0.14587410E-01 0.30431850E+03</pdfrwt>
<pdfrwt beam="2">  1       21 0.37565730E-01 0.30431850E+03</pdfrwt>
<totfact> 0.27464772E+05</totfact>
</mgrwt>
</event>
<event>
 8    1  0.9529436E-006  0.3352355E+03  0.7546771E-02  0.1068844E+00
         21   -1    0    0  504  503  0.00000000000E+00  0.00000000000E+00  0.28428613107E+04  0.28428613107E+04  0.00000000000E+00 0.  1.
         21   -1    0    0  503  504 -0.00000000000E+00 -0.00000000000E+00 -0.98828977287E+01  0.98828977287E+01  0.00000000000E+00 0.  1.
         25    2    1    2    0    0 -0.51596153538E+02  0.65030090775E+02  0.78084581395E+03  0.79513369789E+03  0.12500534627E+03 0.  0.
         25    2    1    2    0    0  0.51596153538E+02 -0.65030090775E+02  0.20521325990E+04  0.20576105105E+04  0.12498693264E+03 0.  0.
          5    1    3    3  501    0  0.33991600547E+02  0.32760250679E+02  0.42696047058E+03  0.42958817066E+03  0.47000000000E+01 0.  1.
         -5    1    3    3    0  501 -0.85587754085E+02  0.32269840096E+02  0.35388534337E+03  0.36554552723E+03  0.47000000000E+01 0.  1.
          5    1    4    4  502    0 -0.23420996835E+02  0.15528543418E+02  0.83935318945E+03  0.83983661828E+03  0.47000000000E+01 0. -1.
         -5    1    4    4    0  502  0.75017150372E+02 -0.80558634193E+02  0.12127794096E+04  0.12177738923E+04  0.47000000000E+01 0. -1.
<mgrwt>
<rscale>  0 0.33523548E+03</rscale>
<asrwt>0</asrwt>
<pdfrwt beam="1">  1       21 0.43736263E+00 0.33523548E+03</pdfrwt>
<pdfrwt beam="2">  1       21 0.15204481E-02 0.33523548E+03</pdfrwt>
<totfact> 0.83938611E+03</totfact>
</mgrwt>
</event>
<event>
 8    1  0.9529436E-006  0.3338665E+03  0.7546771E-02  0.1069439E+00
         21   -1    0    0  504  503  0.00000000000E+00  0.00000000000E+00  0.67176392237E+03  0.67176392237E+03  0.00000000000E+00 0. -1.
         21   -1    0    0  503  504 -0.00000000000E+00 -0.00000000000E+00 -0.41482897166E+02  0.41482897166E+02  0.00000000000E+00 0. -1.
         25    2    1    2    0    0 -0.95102778748E+02  0.10764023101E+01  0.19436939451E+03  0.24990003039E+03  0.12499946599E+03 0.  0.
         25    2    1    2    0    0  0.95102778748E+02 -0.10764023101E+01  0.43591163070E+03  0.46334678915E+03  0.12500240028E+03 0.  0.
          5    1    3    3  501    0 -0.24709192347E+02 -0.43229095056E+02  0.15140125071E+02  0.52255260337E+02  0.47000000000E+01 0. -1.
         -5    1    3    3    0  501 -0.70393586402E+02  0.44305497366E+02  0.17922926944E+03  0.19764477005E+03  0.47000000000E+01 0. -1.
          5    1    4    4  502    0 -0.75511915870E+01 -0.32475199480E+02  0.21576738231E+03  0.21837882760E+03  0.47000000000E+01 0. -1.
         -5    1    4    4    0  502  0.10265397034E+03  0.31398797170E+02  0.22014424839E+03  0.24496796155E+03  0.47000000000E+01 0. -1.
<mgrwt>
<rscale>  0 0.33386652E+03</rscale>
<asrwt>0</asrwt>
<pdfrwt beam="1">  1       21 0.10334829E+00 0.33386652E+03</pdfrwt>
<pdfrwt beam="2">  1       21 0.63819847E-02 0.33386652E+03</pdfrwt>
<totfact> 0.12862148E+05</totfact>
</mgrwt>
</event>
<event>
 8    1  0.9529436E-006  0.2609202E+03  0.7546771E-02  0.1106592E+00
         21   -1    0    0  504  503  0.00000000000E+00  0.00000000000E+00  0.48797733935E+03  0.48797733935E+03  0.00000000000E+00 0.  1.
         21   -1    0    0  503  504 -0.00000000000E+00 -0.00000000000E+00 -0.34878343209E+02  0.34878343209E+02  0.00000000000E+00 0.  1.
         25    2    1    2    0    0  0.19067543128E+02 -0.32190957748E+02  0.22854086465E+03  0.26315801734E+03  0.12498554442E+03 0.  0.
         25    2    1    2    0    0 -0.19067543128E+02  0.32190957748E+02  0.22455813149E+03  0.25969766522E+03  0.12496677134E+03 0.  0.
          5    1    3    3  501    0  0.23319035456E+02 -0.54585425396E+02  0.23209772287E+03  0.23961383316E+03  0.47000000000E+01 0.  1.
         -5    1    3    3    0  501 -0.42514923279E+01  0.22394467648E+02 -0.35568582233E+01  0.23544184179E+02  0.47000000000E+01 0.  1.
          5    1    4    4  502    0  0.35979088680E+02 -0.13238155958E+02  0.15567714335E+03  0.16039702789E+03  0.47000000000E+01 0.  1.
         -5    1    4    4    0  502 -0.55046631808E+02  0.45429113706E+02  0.68880988145E+02  0.99300637326E+02  0.47000000000E+01 0.  1.
<mgrwt>
<rscale>  0 0.26092023E+03</rscale>
<asrwt>0</asrwt>
<pdfrwt beam="1">  1       21 0.75073432E-01 0.26092023E+03</pdfrwt>
<pdfrwt beam="2">  1       21 0.53658993E-02 0.26092023E+03</pdfrwt>
<totfact> 0.37227775E+05</totfact>
</mgrwt>
</event>
<event>
 8    1  0.9529436E-006  0.3039898E+03  0.7546771E-02  0.1083263E+00
         21   -1    0    0  504  503  0.00000000000E+00  0.00000000000E+00  0.73357416219E+03  0.73357416219E+03  0.00000000000E+00 0. -1.
         21   -1    0    0  503  504 -0.00000000000E+00 -0.00000000000E+00 -0.31492988751E+02  0.31492988751E+02  0.00000000000E+00 0. -1.
         25    2    1    2    0    0  0.67208623470E+01  0.51225237668E+02  0.52553907941E+03  0.54266702123E+03  0.12500790766E+03 0.  0.
         25    2    1    2    0    0 -0.67208623470E+01 -0.51225237668E+02  0.17654209403E+03  0.22240012971E+03  0.12500204706E+03 0.  0.
          5    1    3    3  501    0  0.55844188445E+02  0.29805332929E+01  0.13704461250E+03  0.14809042095E+03  0.47000000000E+01 0.  1.
         -5    1    3    3    0  501 -0.49123326098E+02  0.48244704375E+02  0.38849446691E+03  0.39457660028E+03  0.47000000000E+01 0.  1.
          5    1    4    4  502    0 -0.50214111401E+02 -0.18163782114E+02  0.21166367667E+02  0.57632326734E+02  0.47000000000E+01 0.  1.
         -5    1    4    4    0  502  0.43493249054E+02 -0.33061455554E+02  0.15537572636E+03  0.16476780298E+03  0.47000000000E+01 0.  1.
<mgrwt>
<rscale>  0 0.30398976E+03</rscale>
<asrwt>0</asrwt>
<pdfrwt beam="1">  1       21 0.11285755E+00 0.30398976E+03</pdfrwt>
<pdfrwt beam="2">  1       21 0.48450757E-02 0.30398976E+03</pdfrwt>
<totfact> 0.16797794E+05</totfact>
</mgrwt>
</event>
<event>
 8    1  0.9529436E-006  0.3050615E+03  0.7546771E-02  0.1082737E+00
         21   -1    0    0  504  503  0.00000000000E+00  0.00000000000E+00  0.23922962694E+03  0.23922962694E+03  0.00000000000E+00 0.  1.
         21   -1    0    0  503  504 -0.00000000000E+00 -0.00000000000E+00 -0.97252270554E+02  0.97252270554E+02  0.00000000000E+00 0.  1.
         25    2    1    2    0    0 -0.73592592240E+02 -0.47079353262E+02  0.68437016924E+02  0.16716249306E+03  0.12500935431E+03 0.  0.
         25    2    1    2    0    0  0.73592592240E+02  0.47079353262E+02  0.73540339467E+02  0.16931940444E+03  0.12501417541E+03 0.  0.
          5    1    3    3  501    0 -0.60276040110E+02 -0.48151496032E+01  0.96879217858E+02  0.11429811691E+03  0.47000000000E+01 0.  1.
         -5    1    3    3    0  501 -0.13316552129E+02 -0.42264203659E+02 -0.28442200934E+02  0.52864376148E+02  0.47000000000E+01 0.  1.
          5    1    4    4  502    0 -0.16202288822E+01  0.36479005220E+02 -0.25230075655E+02  0.44631711607E+02  0.47000000000E+01 0. -1.
         -5    1    4    4    0  502  0.75212821122E+02  0.10600348043E+02  0.98770415122E+02  0.12468769283E+03  0.47000000000E+01 0. -1.
<mgrwt>
<rscale>  0 0.30506147E+03</rscale>
<asrwt>0</asrwt>
<pdfrwt beam="1">  1       21 0.36804558E-01 0.30506147E+03</pdfrwt>
<pdfrwt beam="2">  1       21 0.14961888E-01 0.30506147E+03</pdfrwt>
<totfact> 0.27318462E+05</totfact>
</mgrwt>
</event>
<event>
 8    1  0.9529436E-006  0.4260024E+03  0.7546771E-02  0.1035130E+00
         21   -1    0    0  504  503  0.00000000000E+00  0.00000000000E+00  0.15759164351E+03  0.15759164351E+03  0.00000000000E+00 0.  1.
         21   -1    0    0  503  504 -0.00000000000E+00 -0.00000000000E+00 -0.28789285733E+03  0.28789285733E+03  0.00000000000E+00 0.  1.
         25    2    1    2    0    0 -0.12455561313E+03 -0.66964611580E+02  0.38062911123E+02  0.19255997116E+03  0.12502878599E+03 0.  0.
         25    2    1    2    0    0  0.12455561313E+03  0.66964611580E+02 -0.16836412495E+03  0.25292452968E+03  0.12500391665E+03 0.  0.
          5    1    3    3  501    0  0.24239951114E+02  0.23687551426E+00  0.10860901834E+02  0.26975554279E+02  0.47000000000E+01 0.  1.
         -5    1    3    3    0  501 -0.14879556424E+03 -0.67201487094E+02  0.27202009289E+02  0.16558441688E+03  0.47000000000E+01 0.  1.
          5    1    4    4  502    0  0.13222965464E+03  0.64759210406E+02 -0.18341653621E+03  0.23524912891E+03  0.47000000000E+01 0. -1.
         -5    1    4    4    0  502 -0.76740415131E+01  0.22054011743E+01  0.15052411260E+02  0.17675400766E+02  0.47000000000E+01 0. -1.
<mgrwt>
<rscale>  0 0.42600239E+03</rscale>
<asrwt>0</asrwt>
<pdfrwt beam="1">  1       21 0.24244868E-01 0.42600239E+03</pdfrwt>
<pdfrwt beam="2">  1       21 0.44291209E-01 0.42600239E+03</pdfrwt>
<totfact> 0.73284207E+04</totfact>
</mgrwt>
</event>
<event>
 8    1  0.9529436E-006  0.3373094E+03  0.7546771E-02  0.1067948E+00
         21   -1    0    0  504  503  0.00000000000E+00  0.00000000000E+00  0.30116560782E+02  0.30116560782E+02  0.00000000000E+00 0.  1.
         21   -1    0    0  503  504 -0.00000000000E+00 -0.00000000000E+00 -0.94447737734E+03  0.94447737734E+03  0.00000000000E+00 0.  1.
         25    2    1    2    0    0  0.62135553537E+02  0.88302588779E+02 -0.55564252404E+03  0.57967426332E+03  0.12500185132E+03 0.  0.
         25    2    1    2    0    0 -0.62135553537E+02 -0.88302588779E+02 -0.35871829252E+03  0.39491967481E+03  0.12499824784E+03 0.  0.
          5    1    3    3  501    0  0.82494666769E+02  0.79490657953E+02 -0.27268643022E+03  0.29581094296E+03  0.47000000000E+01 0. -1.
         -5    1    3    3    0  501 -0.20359113232E+02  0.88119308264E+01 -0.28295609382E+03  0.28386332036E+03  0.47000000000E+01 0. -1.
          5    1    4    4  502    0 -0.11937237460E+02 -0.35605090578E+02 -0.10682616859E+02  0.39324654051E+02  0.47000000000E+01 0. -1.
         -5    1    4    4    0  502 -0.50198316078E+02 -0.52697498201E+02 -0.34803567566E+03  0.35559502076E+03  0.47000000000E+01 0. -1.
<mgrwt>
<rscale>  0 0.33730941E+03</rscale>
<asrwt>0</asrwt>
<pdfrwt beam="1">  1       21 0.46333171E-02 0.33730941E+03</pdfrwt>
<pdfrwt beam="2">  1       21 0.14530421E+00 0.33730941E+03</pdfrwt>
<totfact> 0.94045120E+04</totfact>
</mgrwt>
</event>
<event>
 8    1  0.9529436E-006  0.3166763E+03  0.7546771E-02  0.1077189E+00
         21   -1    0    0  504  503  0.00000000000E+00  0.00000000000E+00  0.14845682728E+03  0.14845682728E+03  0.00000000000E+00 0. -1.
         21   -1    0    0  503  504 -0.00000000000E+00 -0.00000000000E+00 -0.16887714283E+03  0.16887714283E+03  0.00000000000E+00 0. -1.
         25    2    1    2    0    0  0.49936716121E+02  0.83185832858E+02 -0.15851413794E+02  0.15902736398E+03  0.12499950708E+03 0.  0.
         25    2    1    2    0    0 -0.49936716121E+02 -0.83185832858E+02 -0.45689017531E+01  0.15830660614E+03  0.12500619296E+03 0.  0.
          5    1    3    3  501    0 -0.25569414236E+02  0.46668058293E+01 -0.39442775427E+02  0.47469954228E+02  0.47000000000E+01 0. -1.
         -5    1    3    3    0  501  0.75506130357E+02  0.78519027029E+02  0.23591361633E+02  0.11155740975E+03  0.47000000000E+01 0. -1.
          5    1    4    4  502    0  0.35302086827E+02 -0.26146943148E+01 -0.18291009244E+02  0.40121378090E+02  0.47000000000E+01 0.  1.
         -5    1    4    4    0  502 -0.85238802948E+02 -0.80571138544E+02  0.13722107491E+02  0.11818522805E+03  0.47000000000E+01 0.  1.
<mgrwt>
<rscale>  0 0.31667627E+03</rscale>
<asrwt>0</asrwt>
<pdfrwt beam="1">  1       21 0.22839512E-01 0.31667627E+03</pdfrwt>
<pdfrwt beam="2">  1       21 0.25981099E-01 0.31667627E+03</pdfrwt>
<totfact> 0.24559916E+05</totfact>
</mgrwt>
</event>
<event>
 8    1  0.9529436E-006  0.3568829E+03  0.7546771E-02  0.1059825E+00
         21   -1    0    0  504  503  0.00000000000E+00  0.00000000000E+00  0.57348426622E+03  0.57348426622E+03  0.00000000000E+00 0.  1.
         21   -1    0    0  503  504 -0.00000000000E+00 -0.00000000000E+00 -0.55522618204E+02  0.55522618204E+02  0.00000000000E+00 0.  1.
         25    2    1    2    0    0 -0.42108752455E+02  0.90871487400E+02  0.12037692972E+03  0.20037153043E+03  0.12500948261E+03 0.  0.
         25    2    1    2    0    0  0.42108752455E+02 -0.90871487400E+02  0.39758471829E+03  0.42863535399E+03  0.12499553677E+03 0.  0.
          5    1    3    3  501    0 -0.14547685800E+02 -0.28629066135E+02  0.68133934054E+01  0.33162794206E+02  0.47000000000E+01 0.  1.
         -5    1    3    3    0  501 -0.27561066654E+02  0.11950055353E+03  0.11356353631E+03  0.16720873623E+03  0.47000000000E+01 0.  1.
          5    1    4    4  502    0  0.77843827125E+02 -0.94129980795E+02  0.33101931397E+03  0.35286823452E+03  0.47000000000E+01 0.  1.
         -5    1    4    4    0  502 -0.35735074671E+02  0.32584933954E+01  0.66565404320E+02  0.75767119473E+02  0.47000000000E+01 0.  1.
<mgrwt>
<rscale>  0 0.35688288E+03</rscale>
<asrwt>0</asrwt>
<pdfrwt beam="1">  1       21 0.88228345E-01 0.35688288E+03</pdfrwt>
<pdfrwt beam="2">  1       21 0.85419416E-02 0.35688288E+03</pdfrwt>
<totfact> 0.11184285E+05</totfact>
</mgrwt>
</event>
<event>
 8    1  0.9529436E-006  0.2779085E+03  0.7546771E-02  0.1096837E+00
         21   -1    0    0  504  503  0.00000000000E+00  0.00000000000E+00  0.57619554005E+03  0.57619554005E+03  0.00000000000E+00 0.  1.
         21   -1    0    0  503  504 -0.00000000000E+00 -0.00000000000E+00 -0.33509956471E+02  0.33509956471E+02  0.00000000000E+00 0.  1.
         25    2    1    2    0    0 -0.15378971104E+02 -0.33441415819E+02  0.16544117158E+03  0.21059525590E+03  0.12499895803E+03 0.  0.
         25    2    1    2    0    0  0.15378971104E+02  0.33441415819E+02  0.37724441199E+03  0.39911024062E+03  0.12498318585E+03 0.  0.
          5    1    3    3  501    0 -0.51378169669E+02 -0.35139490914E+02  0.27973011197E+02  0.68403797377E+02  0.47000000000E+01 0. -1.
         -5    1    3    3    0  501  0.35999198565E+02  0.16980750956E+01  0.13746816038E+03  0.14219145852E+03  0.47000000000E+01 0. -1.
          5    1    4    4  502    0  0.66778859577E+02  0.32506268760E+01  0.15311550913E+03  0.16714195104E+03  0.47000000000E+01 0.  1.
         -5    1    4    4    0  502 -0.51399888474E+02  0.30190788943E+02  0.22412890286E+03  0.23196828958E+03  0.47000000000E+01 0.  1.
<mgrwt>
<rscale>  0 0.27790853E+03</rscale>
<asrwt>0</asrwt>
<pdfrwt beam="1">  1       21 0.88645460E-01 0.27790853E+03</pdfrwt>
<pdfrwt beam="2">  1       21 0.51553784E-02 0.27790853E+03</pdfrwt>
<totfact> 0.27144451E+05</totfact>
</mgrwt>
</event>
<event>
 8    1  0.9529436E-006  0.1129513E+04  0.7546771E-02  0.9176894E-01
         21   -1    0    0  504  503  0.00000000000E+00  0.00000000000E+00  0.40514896191E+03  0.40514896191E+03  0.00000000000E+00 0.  1.
         21   -1    0    0  503  504 -0.00000000000E+00 -0.00000000000E+00 -0.78724124632E+03  0.78724124632E+03  0.00000000000E+00 0.  1.
         25    2    1    2    0    0  0.38367046636E+03  0.19237199025E+03  0.17329670852E+03  0.47944421377E+03  0.12499998216E+03 0.  0.
         25    2    1    2    0    0 -0.38367046636E+03 -0.19237199025E+03 -0.55538899293E+03  0.71294599446E+03  0.12500019264E+03 0.  0.
          5    1    3    3  501    0  0.39113202300E+02  0.17375007102E+02  0.65199002063E+02  0.78132792961E+02  0.47000000000E+01 0. -1.
         -5    1    3    3    0  501  0.34455726406E+03  0.17499698315E+03  0.10809770646E+03  0.40131142081E+03  0.47000000000E+01 0. -1.
          5    1    4    4  502    0 -0.18051355005E+03 -0.78598745125E+02 -0.15861370799E+03  0.25287013040E+03  0.47000000000E+01 0. -1.
         -5    1    4    4    0  502 -0.20315691631E+03 -0.11377324512E+03 -0.39677528494E+03  0.46007586406E+03  0.47000000000E+01 0. -1.
<mgrwt>
<rscale>  0 0.11295131E+04</rscale>
<asrwt>0</asrwt>
<pdfrwt beam="1">  1       21 0.62330609E-01 0.11295131E+04</pdfrwt>
<pdfrwt beam="2">  1       21 0.12111404E+00 0.11295131E+04</pdfrwt>
<totfact> 0.88568084E+02</totfact>
</mgrwt>
</event>
<event>
 8    1  0.9529436E-006  0.3077771E+03  0.7546771E-02  0.1081416E+00
         21   -1    0    0  504  503  0.00000000000E+00  0.00000000000E+00  0.34600609355E+03  0.34600609355E+03  0.00000000000E+00 0. -1.
         21   -1    0    0  503  504 -0.00000000000E+00 -0.00000000000E+00 -0.68442981237E+02  0.68442981237E+02  0.00000000000E+00 0. -1.
         25    2    1    2    0    0  0.62953430289E+02  0.55809315848E+02  0.96642033078E+02  0.17900257205E+03  0.12499769647E+03 0.  0.
         25    2    1    2    0    0 -0.62953430289E+02 -0.55809315848E+02  0.18092107923E+03  0.23544650273E+03  0.12499921847E+03 0.  0.
          5    1    3    3  501    0  0.10049655267E+03  0.33613037297E+02  0.76206546052E+02  0.13060980452E+03  0.47000000000E+01 0. -1.
         -5    1    3    3    0  501 -0.37543122381E+02  0.22196278551E+02  0.20435487026E+02  0.48392767534E+02  0.47000000000E+01 0. -1.
          5    1    4    4  502    0  0.31004500928E+02  0.94378110638E+01  0.63512638339E+02  0.71458355594E+02  0.47000000000E+01 0.  1.
         -5    1    4    4    0  502 -0.93957931217E+02 -0.65247126911E+02  0.11740844090E+03  0.16398814714E+03  0.47000000000E+01 0.  1.
<mgrwt>
<rscale>  0 0.30777712E+03</rscale>
<asrwt>0</asrwt>
<pdfrwt beam="1">  1       21 0.53231706E-01 0.30777712E+03</pdfrwt>
<pdfrwt beam="2">  1       21 0.10529690E-01 0.30777712E+03</pdfrwt>
<totfact> 0.24038139E+05</totfact>
</mgrwt>
</event>
<event>
 8    1  0.9529436E-006  0.2936416E+03  0.7546771E-02  0.1088463E+00
         21   -1    0    0  504  503  0.00000000000E+00  0.00000000000E+00  0.31789605801E+03  0.31789605801E+03  0.00000000000E+00 0. -1.
         21   -1    0    0  503  504 -0.00000000000E+00 -0.00000000000E+00 -0.67809409963E+02  0.67809409963E+02  0.00000000000E+00 0. -1.
         25    2    1    2    0    0  0.21787733387E+02  0.12528485265E+02  0.29407648959E+02  0.13084134578E+03  0.12499191845E+03 0.  0.
         25    2    1    2    0    0 -0.21787733387E+02 -0.12528485265E+02  0.22067899909E+03  0.25486412220E+03  0.12499932750E+03 0.  0.
          5    1    3    3  501    0  0.14572782943E+02 -0.43463313873E+02 -0.24888224393E+02  0.52373078666E+02  0.47000000000E+01 0.  1.
         -5    1    3    3    0  501  0.72149504448E+01  0.55991799138E+02  0.54295873353E+02  0.78468267113E+02  0.47000000000E+01 0.  1.
          5    1    4    4  502    0  0.74657636018E+01 -0.61480243824E+02  0.69447983852E+02  0.93170115745E+02  0.47000000000E+01 0.  1.
         -5    1    4    4    0  502 -0.29253496989E+02  0.48951758560E+02  0.15123101524E+03  0.16169400645E+03  0.47000000000E+01 0.  1.
<mgrwt>
<rscale>  0 0.29364158E+03</rscale>
<asrwt>0</asrwt>
<pdfrwt beam="1">  1       21 0.48907085E-01 0.29364158E+03</pdfrwt>
<pdfrwt beam="2">  1       21 0.10432217E-01 0.29364158E+03</pdfrwt>
<totfact> 0.29322323E+05</totfact>
</mgrwt>
</event>
<event>
 8    1  0.9529436E-006  0.2939054E+03  0.7546771E-02  0.1088328E+00
         21   -1    0    0  504  503  0.00000000000E+00  0.00000000000E+00  0.15008542038E+02  0.15008542038E+02  0.00000000000E+00 0. -1.
         21   -1    0    0  503  504 -0.00000000000E+00 -0.00000000000E+00 -0.14388537560E+04  0.14388537560E+04  0.00000000000E+00 0. -1.
         25    2    1    2    0    0  0.18689272333E+02  0.36112281686E+02 -0.38722849079E+03  0.40894460749E+03  0.12504560018E+03 0.  0.
         25    2    1    2    0    0 -0.18689272333E+02 -0.36112281686E+02 -0.10366167232E+04  0.10449176905E+04  0.12500145391E+03 0.  0.
          5    1    3    3  501    0  0.68857752277E+02  0.29318704868E+02 -0.28596733163E+03  0.29563555480E+03  0.47000000000E+01 0.  1.
         -5    1    3    3    0  501 -0.50168479944E+02  0.67935768185E+01 -0.10126115917E+03  0.11330905269E+03  0.47000000000E+01 0.  1.
          5    1    4    4  502    0 -0.23142247315E+02  0.24294467124E+02 -0.79698166626E+03  0.79770147994E+03  0.47000000000E+01 0.  1.
         -5    1    4    4    0  502  0.44529749813E+01 -0.60406748811E+02 -0.23963505690E+03  0.24721621060E+03  0.47000000000E+01 0.  1.
<mgrwt>
<rscale>  0 0.29390541E+03</rscale>
<asrwt>0</asrwt>
<pdfrwt beam="1">  1       21 0.23090054E-02 0.29390541E+03</pdfrwt>
<pdfrwt beam="2">  1       21 0.22136222E+00 0.29390541E+03</pdfrwt>
<totfact> 0.91047420E+04</totfact>
</mgrwt>
</event>
<event>
 8    1  0.9529436E-006  0.3898655E+03  0.7546771E-02  0.1047346E+00
         21   -1    0    0  504  503  0.00000000000E+00  0.00000000000E+00  0.58952472338E+02  0.58952472338E+02  0.00000000000E+00 0.  1.
         21   -1    0    0  503  504 -0.00000000000E+00 -0.00000000000E+00 -0.64456643965E+03  0.64456643965E+03  0.00000000000E+00 0.  1.
         25    2    1    2    0    0 -0.69164385106E+02 -0.18209345116E+02 -0.55760934348E+02  0.15443255559E+03  0.12499936004E+03 0.  0.
         25    2    1    2    0    0  0.69164385106E+02  0.18209345116E+02 -0.52985303297E+03  0.54908635639E+03  0.12504518311E+03 0.  0.
          5    1    3    3  501    0 -0.56441340333E+02 -0.60726146047E+02 -0.34128211111E-01  0.83038430122E+02  0.47000000000E+01 0.  1.
         -5    1    3    3    0  501 -0.12723044773E+02  0.42516800932E+02 -0.55726806137E+02  0.71394125473E+02  0.47000000000E+01 0.  1.
          5    1    4    4  502    0  0.10559118218E+03  0.11370045226E+02 -0.40907203059E+03  0.42265919119E+03  0.47000000000E+01 0. -1.
         -5    1    4    4    0  502 -0.36426797073E+02  0.68392998896E+01 -0.12078100237E+03  0.12642716521E+03  0.47000000000E+01 0. -1.
<mgrwt>
<rscale>  0 0.38986554E+03</rscale>
<asrwt>0</asrwt>
<pdfrwt beam="1">  1       21 0.90696106E-02 0.38986554E+03</pdfrwt>
<pdfrwt beam="2">  1       21 0.99164073E-01 0.38986554E+03</pdfrwt>
<totfact> 0.75559308E+04</totfact>
</mgrwt>
</event>
<event>
 8    1  0.9529436E-006  0.3074102E+03  0.7546771E-02  0.1081594E+00
         21   -1    0    0  504  503  0.00000000000E+00  0.00000000000E+00  0.20076817425E+03  0.20076817425E+03  0.00000000000E+00 0.  1.
         21   -1    0    0  503  504 -0.00000000000E+00 -0.00000000000E+00 -0.11767435137E+03  0.11767435137E+03  0.00000000000E+00 0.  1.
         25    2    1    2    0    0  0.79571921714E+02  0.40684700667E+02  0.37868869351E+02  0.15826512239E+03  0.12500744820E+03 0.  0.
         25    2    1    2    0    0 -0.79571921714E+02 -0.40684700667E+02  0.45224953534E+02  0.16017740323E+03  0.12499827395E+03 0.  0.
          5    1    3    3  501    0  0.65641993286E+02  0.62277816383E+02 -0.21744931088E+02  0.93179019763E+02  0.47000000000E+01 0. -1.
         -5    1    3    3    0  501  0.13929928428E+02 -0.21593115715E+02  0.59613800439E+02  0.65086102626E+02  0.47000000000E+01 0. -1.
          5    1    4    4  502    0 -0.70248235486E+02 -0.52918363444E+02  0.81812721628E+02  0.12021056193E+03  0.47000000000E+01 0.  1.
         -5    1    4    4    0  502 -0.93236862284E+01  0.12233662776E+02 -0.36587768094E+02  0.39966841305E+02  0.47000000000E+01 0.  1.
<mgrwt>
<rscale>  0 0.30741024E+03</rscale>
<asrwt>0</asrwt>
<pdfrwt beam="1">  1       21 0.30887411E-01 0.30741024E+03</pdfrwt>
<pdfrwt beam="2">  1       21 0.18103746E-01 0.30741024E+03</pdfrwt>
<totfact> 0.27215683E+05</totfact>
</mgrwt>
</event>
<event>
 8    1  0.9529436E-006  0.3419847E+03  0.7546771E-02  0.1065954E+00
         21   -1    0    0  504  503  0.00000000000E+00  0.00000000000E+00  0.26829251942E+02  0.26829251942E+02  0.00000000000E+00 0.  1.
         21   -1    0    0  503  504 -0.00000000000E+00 -0.00000000000E+00 -0.10897949700E+04  0.10897949700E+04  0.00000000000E+00 0.  1.
         25    2    1    2    0    0  0.51194006692E+02 -0.52039551588E+02 -0.23431450404E+03  0.27542395599E+03  0.12500450982E+03 0.  0.
         25    2    1    2    0    0 -0.51194006692E+02  0.52039551588E+02 -0.82865121402E+03  0.84120026596E+03  0.12500444674E+03 0.  0.
          5    1    3    3  501    0 -0.14593357444E+02 -0.71235590022E+02 -0.14924580518E+03  0.16608394182E+03  0.47000000000E+01 0. -1.
         -5    1    3    3    0  501  0.65787364136E+02  0.19196038434E+02 -0.85068698867E+02  0.10934001417E+03  0.47000000000E+01 0. -1.
          5    1    4    4  502    0  0.32554382579E+02  0.47570364250E+02 -0.42368987871E+03  0.42761890826E+03  0.47000000000E+01 0. -1.
         -5    1    4    4    0  502 -0.83748389272E+02  0.44691873371E+01 -0.40496133532E+03  0.41358135771E+03  0.47000000000E+01 0. -1.
<mgrwt>
<rscale>  0 0.34198470E+03</rscale>
<asrwt>0</asrwt>
<pdfrwt beam="1">  1       21 0.41275787E-02 0.34198470E+03</pdfrwt>
<pdfrwt beam="2">  1       21 0.16766071E+00 0.34198470E+03</pdfrwt>
<totfact> 0.77359970E+04</totfact>
</mgrwt>
</event>
<event>
 8    1  0.9529436E-006  0.4071905E+03  0.7546771E-02  0.1041318E+00
         21   -1    0    0  504  503  0.00000000000E+00  0.00000000000E+00  0.70871343607E+02  0.70871343607E+02  0.00000000000E+00 0.  1.
         21   -1    0    0  503  504 -0.00000000000E+00 -0.00000000000E+00 -0.58487716922E+03  0.58487716922E+03  0.00000000000E+00 0.  1.
         25    2    1    2    0    0  0.10573936361E+03 -0.83928506367E+02 -0.11659785164E+03  0.21781948448E+03  0.12500184645E+03 0.  0.
         25    2    1    2    0    0 -0.10573936361E+03  0.83928506367E+02 -0.39740797398E+03  0.43792902834E+03  0.12499571548E+03 0.  0.
          5    1    3    3  501    0  0.17564875308E+02 -0.84812711566E+02 -0.91363553396E+02  0.12598059286E+03  0.47000000000E+01 0. -1.
         -5    1    3    3    0  501  0.88174488306E+02  0.88420519916E+00 -0.25234298240E+02  0.91838891623E+02  0.47000000000E+01 0. -1.
          5    1    4    4  502    0 -0.22436327202E+02  0.84032206142E+01 -0.25619575215E+03  0.25735647712E+03  0.47000000000E+01 0.  1.
         -5    1    4    4    0  502 -0.83303036412E+02  0.75525285753E+02 -0.14121222182E+03  0.18057255123E+03  0.47000000000E+01 0.  1.
<mgrwt>
<rscale>  0 0.40719052E+03</rscale>
<asrwt>0</asrwt>
<pdfrwt beam="1">  1       21 0.10903283E-01 0.40719052E+03</pdfrwt>
<pdfrwt beam="2">  1       21 0.89981106E-01 0.40719052E+03</pdfrwt>
<totfact> 0.68191217E+04</totfact>
</mgrwt>
</event>
<event>
 8    1  0.9529436E-006  0.3417785E+03  0.7546771E-02  0.1066041E+00
         21   -1    0    0  504  503  0.00000000000E+00  0.00000000000E+00  0.75390211890E+03  0.75390211890E+03  0.00000000000E+00 0.  1.
         21   -1    0    0  503  504 -0.00000000000E+00 -0.00000000000E+00 -0.38735978953E+02  0.38735978953E+02  0.00000000000E+00 0.  1.
         25    2    1    2    0    0 -0.17443881501E+02 -0.43587221441E+02  0.60493643994E+03  0.61949444316E+03  0.12498453446E+03 0.  0.
         25    2    1    2    0    0  0.17443881501E+02  0.43587221441E+02  0.11022970000E+03  0.17314365469E+03  0.12499601403E+03 0.  0.
          5    1    3    3  501    0 -0.26939468913E+02  0.39695879803E+02  0.26468115458E+03  0.26903475882E+03  0.47000000000E+01 0. -1.
         -5    1    3    3    0  501  0.94955874126E+01 -0.83283101245E+02  0.34025528536E+03  0.35045968434E+03  0.47000000000E+01 0. -1.
          5    1    4    4  502    0 -0.29964089200E+01 -0.43543685753E+02  0.36820435775E+02  0.57296295919E+02  0.47000000000E+01 0. -1.
         -5    1    4    4    0  502  0.20440290421E+02  0.87130907194E+02  0.73409264224E+02  0.11584735877E+03  0.47000000000E+01 0. -1.
<mgrwt>
<rscale>  0 0.34177850E+03</rscale>
<asrwt>0</asrwt>
<pdfrwt beam="1">  1       21 0.11598493E+00 0.34177850E+03</pdfrwt>
<pdfrwt beam="2">  1       21 0.59593819E-02 0.34177850E+03</pdfrwt>
<totfact> 0.10885407E+05</totfact>
</mgrwt>
</event>
<event>
 8    1  0.9529436E-006  0.2608706E+03  0.7546771E-02  0.1106621E+00
         21   -1    0    0  504  503  0.00000000000E+00  0.00000000000E+00  0.11328844574E+03  0.11328844574E+03  0.00000000000E+00 0. -1.
         21   -1    0    0  503  504 -0.00000000000E+00 -0.00000000000E+00 -0.15017740431E+03  0.15017740431E+03  0.00000000000E+00 0. -1.
         25    2    1    2    0    0 -0.76680521615E+01  0.33501414442E+02 -0.39539003500E+01  0.12971097029E+03  0.12501263413E+03 0.  0.
         25    2    1    2    0    0  0.76680521615E+01 -0.33501414442E+02 -0.32935058215E+02  0.13375487975E+03  0.12499802400E+03 0.  0.
          5    1    3    3  501    0  0.43794644017E+02  0.13280595688E+02 -0.42109364780E+02  0.62366927683E+02  0.47000000000E+01 0.  1.
         -5    1    3    3    0  501 -0.51462696178E+02  0.20220818754E+02  0.38155464431E+02  0.67344042609E+02  0.47000000000E+01 0.  1.
          5    1    4    4  502    0 -0.14194068184E+02  0.41185576702E+02 -0.34513293219E+02  0.55776166134E+02  0.47000000000E+01 0.  1.
         -5    1    4    4    0  502  0.21862120345E+02 -0.74686991143E+02  0.15782350040E+01  0.77978713620E+02  0.47000000000E+01 0.  1.
<mgrwt>
<rscale>  0 0.26087058E+03</rscale>
<asrwt>0</asrwt>
<pdfrwt beam="1">  1       21 0.17428992E-01 0.26087058E+03</pdfrwt>
<pdfrwt beam="2">  1       21 0.23104216E-01 0.26087058E+03</pdfrwt>
<totfact> 0.51765206E+05</totfact>
</mgrwt>
</event>
<event>
 8    1  0.9529436E-006  0.3331700E+03  0.7546771E-02  0.1069743E+00
         21   -1    0    0  504  503  0.00000000000E+00  0.00000000000E+00  0.17828689388E+03  0.17828689388E+03  0.00000000000E+00 0.  1.
         21   -1    0    0  503  504 -0.00000000000E+00 -0.00000000000E+00 -0.15565115430E+03  0.15565115430E+03  0.00000000000E+00 0.  1.
         25    2    1    2    0    0 -0.10223318977E+03 -0.16696495829E+02  0.48786270092E+02  0.16951131071E+03  0.12499434486E+03 0.  0.
         25    2    1    2    0    0  0.10223318977E+03  0.16696495829E+02 -0.26150530516E+02  0.16442673747E+03  0.12498761413E+03 0.  0.
          5    1    3    3  501    0 -0.78557153575E+01  0.23377366600E+02  0.61174412169E+02  0.66125730523E+02  0.47000000000E+01 0. -1.
         -5    1    3    3    0  501 -0.94377474415E+02 -0.40073862429E+02 -0.12388142077E+02  0.10338558019E+03  0.47000000000E+01 0. -1.
          5    1    4    4  502    0  0.13259342484E+02  0.54767873532E+02 -0.36005365570E+02  0.67035859688E+02  0.47000000000E+01 0.  1.
         -5    1    4    4    0  502  0.88973847289E+02 -0.38071377703E+02  0.98548350531E+01  0.97390877784E+02  0.47000000000E+01 0.  1.
<mgrwt>
<rscale>  0 0.33316999E+03</rscale>
<asrwt>0</asrwt>
<pdfrwt beam="1">  1       21 0.27428753E-01 0.33316999E+03</pdfrwt>
<pdfrwt beam="2">  1       21 0.23946331E-01 0.33316999E+03</pdfrwt>
<totfact> 0.20115691E+05</totfact>
</mgrwt>
</event>
<event>
 8    1  0.9529436E-006  0.2944636E+03  0.7546771E-02  0.1088041E+00
         21   -1    0    0  504  503  0.00000000000E+00  0.00000000000E+00  0.76387277565E+03  0.76387277565E+03  0.00000000000E+00 0. -1.
         21   -1    0    0  503  504 -0.00000000000E+00 -0.00000000000E+00 -0.28378032645E+02  0.28378032645E+02  0.00000000000E+00 0. -1.
         25    2    1    2    0    0  0.23720830630E+02 -0.33763080646E+02  0.54521104756E+03  0.56087488173E+03  0.12499169234E+03 0.  0.
         25    2    1    2    0    0 -0.23720830630E+02  0.33763080646E+02  0.19028369544E+03  0.23137592656E+03  0.12499724485E+03 0.  0.
          5    1    3    3  501    0  0.26696197708E+02  0.34804277271E+02  0.37035555878E+03  0.37297366476E+03  0.47000000000E+01 0. -1.
         -5    1    3    3    0  501 -0.29753670785E+01 -0.68567357917E+02  0.17485548878E+03  0.18790121697E+03  0.47000000000E+01 0. -1.
          5    1    4    4  502    0  0.48252228129E+02  0.33519515891E+02  0.96305287859E+02  0.11290984871E+03  0.47000000000E+01 0.  1.
         -5    1    4    4    0  502 -0.71973058759E+02  0.24356475404E+00  0.93978407584E+02  0.11846607786E+03  0.47000000000E+01 0.  1.
<mgrwt>
<rscale>  0 0.29446362E+03</rscale>
<asrwt>0</asrwt>
<pdfrwt beam="1">  1       21 0.11751887E+00 0.29446362E+03</pdfrwt>
<pdfrwt beam="2">  1       21 0.43658517E-02 0.29446362E+03</pdfrwt>
<totfact> 0.18196565E+05</totfact>
</mgrwt>
</event>
<event>
 8    1  0.9529436E-006  0.2826012E+03  0.7546771E-02  0.1094277E+00
         21   -1    0    0  504  503  0.00000000000E+00  0.00000000000E+00  0.16648377086E+02  0.16648377086E+02  0.00000000000E+00 0. -1.
         21   -1    0    0  503  504 -0.00000000000E+00 -0.00000000000E+00 -0.11992673887E+04  0.11992673887E+04  0.00000000000E+00 0. -1.
         25    2    1    2    0    0 -0.20160674270E+02 -0.47196082179E+02 -0.41352945142E+03  0.43504623783E+03  0.12499879556E+03 0.  0.
         25    2    1    2    0    0  0.20160674270E+02  0.47196082179E+02 -0.76908956021E+03  0.78086952798E+03  0.12499818055E+03 0.  0.
          5    1    3    3  501    0 -0.14809047192E+02  0.22947820794E+01  0.26037137582E+01  0.15919900404E+02  0.47000000000E+01 0. -1.
         -5    1    3    3    0  501 -0.53516270773E+01 -0.49490864258E+02 -0.41613316518E+03  0.41912633742E+03  0.47000000000E+01 0. -1.
          5    1    4    4  502    0 -0.46845603218E+01 -0.35282334594E+01 -0.63809599324E+03  0.63814025115E+03  0.47000000000E+01 0.  1.
         -5    1    4    4    0  502  0.24845234592E+02  0.50724315638E+02 -0.13099356697E+03  0.14272927683E+03  0.47000000000E+01 0.  1.
<mgrwt>
<rscale>  0 0.28260117E+03</rscale>
<asrwt>0</asrwt>
<pdfrwt beam="1">  1       21 0.25612888E-02 0.28260117E+03</pdfrwt>
<pdfrwt beam="2">  1       21 0.18450268E+00 0.28260117E+03</pdfrwt>
<totfact> 0.13385351E+05</totfact>
</mgrwt>
</event>
<event>
 8    1  0.9529436E-006  0.3178050E+03  0.7546771E-02  0.1076664E+00
         21   -1    0    0  504  503  0.00000000000E+00  0.00000000000E+00  0.23621529704E+03  0.23621529704E+03  0.00000000000E+00 0.  1.
         21   -1    0    0  503  504 -0.00000000000E+00 -0.00000000000E+00 -0.10689406094E+03  0.10689406094E+03  0.00000000000E+00 0.  1.
         25    2    1    2    0    0 -0.89808845080E+02 -0.37418614610E+02  0.51004499925E+02  0.16640800101E+03  0.12499752963E+03 0.  0.
         25    2    1    2    0    0  0.89808845080E+02  0.37418614610E+02  0.78316736175E+02  0.17670135696E+03  0.12499630800E+03 0.  0.
          5    1    3    3  501    0 -0.48978818528E+01 -0.52251825805E+02  0.59722939216E+02  0.79643970363E+02  0.47000000000E+01 0.  1.
         -5    1    3    3    0  501 -0.84910963227E+02  0.14833211195E+02 -0.87184392906E+01  0.86764030647E+02  0.47000000000E+01 0.  1.
          5    1    4    4  502    0  0.55692322222E+02 -0.29925765958E+02  0.78702471398E+02  0.10106114598E+03  0.47000000000E+01 0. -1.
         -5    1    4    4    0  502  0.34116522857E+02  0.67344380568E+02 -0.38573522312E+00  0.75640210983E+02  0.47000000000E+01 0. -1.
<mgrwt>
<rscale>  0 0.31780505E+03</rscale>
<asrwt>0</asrwt>
<pdfrwt beam="1">  1       21 0.36340815E-01 0.31780505E+03</pdfrwt>
<pdfrwt beam="2">  1       21 0.16445240E-01 0.31780505E+03</pdfrwt>
<totfact> 0.23475896E+05</totfact>
</mgrwt>
</event>
<event>
 8    1  0.9529436E-006  0.3083519E+03  0.7546771E-02  0.1081139E+00
         21   -1    0    0  504  503  0.00000000000E+00  0.00000000000E+00  0.77085521961E+02  0.77085521961E+02  0.00000000000E+00 0. -1.
         21   -1    0    0  503  504 -0.00000000000E+00 -0.00000000000E+00 -0.30836179416E+03  0.30836179416E+03  0.00000000000E+00 0. -1.
         25    2    1    2    0    0  0.26184187668E+02 -0.76754220707E+02 -0.65987044842E+02  0.16291114728E+03  0.12493570242E+03 0.  0.
         25    2    1    2    0    0 -0.26184187668E+02  0.76754220707E+02 -0.16528922736E+03  0.22253616884E+03  0.12499998273E+03 0.  0.
          5    1    3    3  501    0  0.51532062616E+02 -0.97323456349E+02 -0.68598280442E+02  0.12982766544E+03  0.47000000000E+01 0.  1.
         -5    1    3    3    0  501 -0.25347874947E+02  0.20569235642E+02  0.26112356000E+01  0.33083481839E+02  0.47000000000E+01 0.  1.
          5    1    4    4  502    0 -0.73945159119E+02  0.52394789686E+02 -0.12862130893E+03  0.15741229830E+03  0.47000000000E+01 0.  1.
         -5    1    4    4    0  502  0.47760971451E+02  0.24359431021E+02 -0.36667918424E+02  0.65123870548E+02  0.47000000000E+01 0.  1.
<mgrwt>
<rscale>  0 0.30835194E+03</rscale>
<asrwt>0</asrwt>
<pdfrwt beam="1">  1       21 0.11859311E-01 0.30835194E+03</pdfrwt>
<pdfrwt beam="2">  1       21 0.47440277E-01 0.30835194E+03</pdfrwt>
<totfact> 0.24747899E+05</totfact>
</mgrwt>
</event>
<event>
 8    1  0.9529436E-006  0.2593273E+03  0.7546771E-02  0.1107548E+00
         21   -1    0    0  504  503  0.00000000000E+00  0.00000000000E+00  0.37024882333E+02  0.37024882333E+02  0.00000000000E+00 0.  1.
         21   -1    0    0  503  504 -0.00000000000E+00 -0.00000000000E+00 -0.45409073717E+03  0.45409073717E+03  0.00000000000E+00 0.  1.
         25    2    1    2    0    0 -0.46123590226E+01 -0.33817289139E+02 -0.21765546547E+03  0.25330420843E+03  0.12499694981E+03 0.  0.
         25    2    1    2    0    0  0.46123590226E+01  0.33817289139E+02 -0.19941038937E+03  0.23781141107E+03  0.12499952379E+03 0.  0.
          5    1    3    3  501    0 -0.81113914745E+01  0.45221400061E+02 -0.51249497908E+02  0.68988192693E+02  0.47000000000E+01 0.  1.
         -5    1    3    3    0  501  0.34990324519E+01 -0.79038689200E+02 -0.16640596756E+03  0.18431601574E+03  0.47000000000E+01 0.  1.
          5    1    4    4  502    0  0.17510228161E+02 -0.29960827358E+02 -0.15496271667E+03  0.15887036484E+03  0.47000000000E+01 0. -1.
         -5    1    4    4    0  502 -0.12897869139E+02  0.63778116497E+02 -0.44447672701E+02  0.78941046236E+02  0.47000000000E+01 0. -1.
<mgrwt>
<rscale>  0 0.25932725E+03</rscale>
<asrwt>0</asrwt>
<pdfrwt beam="1">  1       21 0.56961353E-02 0.25932725E+03</pdfrwt>
<pdfrwt beam="2">  1       21 0.69860118E-01 0.25932725E+03</pdfrwt>
<totfact> 0.39483170E+05</totfact>
</mgrwt>
</event>
<event>
 8    1  0.9529436E-006  0.5607804E+03  0.7546771E-02  0.9990290E-01
         21   -1    0    0  504  503  0.00000000000E+00  0.00000000000E+00  0.63221383644E+03  0.63221383644E+03  0.00000000000E+00 0. -1.
         21   -1    0    0  503  504 -0.00000000000E+00 -0.00000000000E+00 -0.12435452727E+03  0.12435452727E+03  0.00000000000E+00 0. -1.
         25    2    1    2    0    0 -0.22721541555E+03  0.10437379843E+03  0.28324009216E+03  0.39795791438E+03  0.12499926780E+03 0.  0.
         25    2    1    2    0    0  0.22721541555E+03 -0.10437379843E+03  0.22461921701E+03  0.35861044933E+03  0.12500770718E+03 0.  0.
          5    1    3    3  501    0 -0.97800409996E+02  0.91900681617E+02  0.20825406523E+03  0.24779528075E+03  0.47000000000E+01 0. -1.
         -5    1    3    3    0  501 -0.12941500555E+03  0.12473116812E+02  0.74986026938E+02  0.15016263364E+03  0.47000000000E+01 0. -1.
          5    1    4    4  502    0  0.87680991487E+02 -0.42918407716E+02  0.17092679897E+03  0.19689592833E+03  0.47000000000E+01 0. -1.
         -5    1    4    4    0  502  0.13953442406E+03 -0.61455390713E+02  0.53692418046E+02  0.16171452100E+03  0.47000000000E+01 0. -1.
<mgrwt>
<rscale>  0 0.56078036E+03</rscale>
<asrwt>0</asrwt>
<pdfrwt beam="1">  1       21 0.97263665E-01 0.56078036E+03</pdfrwt>
<pdfrwt beam="2">  1       21 0.19131466E-01 0.56078036E+03</pdfrwt>
<totfact> 0.19299650E+04</totfact>
</mgrwt>
</event>
<event>
 8    1  0.9529436E-006  0.2912229E+03  0.7546771E-02  0.1089712E+00
         21   -1    0    0  504  503  0.00000000000E+00  0.00000000000E+00  0.58390196849E+02  0.58390196849E+02  0.00000000000E+00 0.  1.
         21   -1    0    0  503  504 -0.00000000000E+00 -0.00000000000E+00 -0.36312089371E+03  0.36312089371E+03  0.00000000000E+00 0.  1.
         25    2    1    2    0    0  0.19831265014E+02 -0.21827642502E+02 -0.53042323794E+02  0.13894621757E+03  0.12499135255E+03 0.  0.
         25    2    1    2    0    0 -0.19831265014E+02  0.21827642502E+02 -0.25168837307E+03  0.28256487300E+03  0.12500458097E+03 0.  0.
          5    1    3    3  501    0  0.71331399053E+02 -0.12317912721E+01 -0.20116574897E+02  0.74272824008E+02  0.47000000000E+01 0.  1.
         -5    1    3    3    0  501 -0.51500134039E+02 -0.20595851230E+02 -0.32925748897E+02  0.64673393558E+02  0.47000000000E+01 0.  1.
          5    1    4    4  502    0  0.33922140686E+02 -0.16883464120E+02 -0.23327440471E+02  0.44743965720E+02  0.47000000000E+01 0. -1.
         -5    1    4    4    0  502 -0.53753405699E+02  0.38711106622E+02 -0.22836093260E+03  0.23782090728E+03  0.47000000000E+01 0. -1.
<mgrwt>
<rscale>  0 0.29122294E+03</rscale>
<asrwt>0</asrwt>
<pdfrwt beam="1">  1       21 0.89831072E-02 0.29122294E+03</pdfrwt>
<pdfrwt beam="2">  1       21 0.55864753E-01 0.29122294E+03</pdfrwt>
<totfact> 0.28871516E+05</totfact>
</mgrwt>
</event>
<event>
 8    1  0.9529436E-006  0.2679462E+03  0.7546771E-02  0.1102461E+00
         21   -1    0    0  504  503  0.00000000000E+00  0.00000000000E+00  0.43304942084E+03  0.43304942084E+03  0.00000000000E+00 0.  1.
         21   -1    0    0  503  504 -0.00000000000E+00 -0.00000000000E+00 -0.41447430913E+02  0.41447430913E+02  0.00000000000E+00 0.  1.
         25    2    1    2    0    0  0.25995825657E+02 -0.30981178256E+02  0.14934915872E+03  0.19891208071E+03  0.12500091314E+03 0.  0.
         25    2    1    2    0    0 -0.25995825657E+02  0.30981178256E+02  0.24225283121E+03  0.27558477104E+03  0.12499966177E+03 0.  0.
          5    1    3    3  501    0  0.33714910763E+02 -0.35154674907E+02  0.16950759170E+03  0.17642975945E+03  0.47000000000E+01 0.  1.
         -5    1    3    3    0  501 -0.77190851061E+01  0.41734966520E+01 -0.20158432982E+02  0.22482321265E+02  0.47000000000E+01 0.  1.
          5    1    4    4  502    0 -0.17935204088E+01  0.76959548038E+02  0.16776803477E+03  0.18464612706E+03  0.47000000000E+01 0.  1.
         -5    1    4    4    0  502 -0.24202305248E+02 -0.45978369783E+02  0.74484796448E+02  0.90938643981E+02  0.47000000000E+01 0.  1.
<mgrwt>
<rscale>  0 0.26794616E+03</rscale>
<asrwt>0</asrwt>
<pdfrwt beam="1">  1       21 0.66622985E-01 0.26794616E+03</pdfrwt>
<pdfrwt beam="2">  1       21 0.63765281E-02 0.26794616E+03</pdfrwt>
<totfact> 0.36035929E+05</totfact>
</mgrwt>
</event>
<event>
 8    1  0.9529436E-006  0.2535456E+03  0.7546771E-02  0.1111084E+00
         21   -1    0    0  504  503  0.00000000000E+00  0.00000000000E+00  0.65667570720E+02  0.65667570720E+02  0.00000000000E+00 0. -1.
         21   -1    0    0  503  504 -0.00000000000E+00 -0.00000000000E+00 -0.24473794512E+03  0.24473794512E+03  0.00000000000E+00 0. -1.
         25    2    1    2    0    0  0.20556967020E+02  0.49059132080E+01 -0.88298392273E+02  0.15448820825E+03  0.12499337395E+03 0.  0.
         25    2    1    2    0    0 -0.20556967020E+02 -0.49059132080E+01 -0.90771982132E+02  0.15591730760E+03  0.12499598870E+03 0.  0.
          5    1    3    3  501    0  0.27736460441E+02 -0.57030353985E+02 -0.52319149128E+02  0.82347773977E+02  0.47000000000E+01 0. -1.
         -5    1    3    3    0  501 -0.71794934211E+01  0.61936267193E+02 -0.35979243145E+02  0.72140434271E+02  0.47000000000E+01 0. -1.
          5    1    4    4  502    0  0.15774224107E+02  0.12361343528E+02 -0.10941391846E+03  0.11133339352E+03  0.47000000000E+01 0.  1.
         -5    1    4    4    0  502 -0.36331191127E+02 -0.17267256736E+02  0.18641936331E+02  0.44583914073E+02  0.47000000000E+01 0.  1.
<mgrwt>
<rscale>  0 0.25354563E+03</rscale>
<asrwt>0</asrwt>
<pdfrwt beam="1">  1       21 0.10102703E-01 0.25354563E+03</pdfrwt>
<pdfrwt beam="2">  1       21 0.37651993E-01 0.25354563E+03</pdfrwt>
<totfact> 0.53587626E+05</totfact>
</mgrwt>
</event>
<event>
 8    1  0.9529436E-006  0.3419040E+03  0.7546771E-02  0.1065988E+00
         21   -1    0    0  504  503  0.00000000000E+00  0.00000000000E+00  0.10944058426E+03  0.10944058426E+03  0.00000000000E+00 0. -1.
         21   -1    0    0  503  504 -0.00000000000E+00 -0.00000000000E+00 -0.26703611677E+03  0.26703611677E+03  0.00000000000E+00 0. -1.
         25    2    1    2    0    0 -0.11143863369E+02 -0.89815216029E+02  0.21923813428E+01  0.15433979563E+03  0.12500002903E+03 0.  0.
         25    2    1    2    0    0  0.11143863369E+02  0.89815216029E+02 -0.15978791385E+03  0.22213690541E+03  0.12498667374E+03 0.  0.
          5    1    3    3  501    0 -0.27483006435E+02 -0.11683948769E+03  0.12550338086E+02  0.12077409702E+03  0.47000000000E+01 0.  1.
         -5    1    3    3    0  501  0.16339143066E+02  0.27024271659E+02 -0.10357956743E+02  0.33565698603E+02  0.47000000000E+01 0.  1.
          5    1    4    4  502    0  0.55975961942E+02  0.54321823186E+01 -0.41758612499E+02  0.70204619776E+02  0.47000000000E+01 0. -1.
         -5    1    4    4    0  502 -0.44832098573E+02  0.84383033710E+02 -0.11802930135E+03  0.15193228564E+03  0.47000000000E+01 0. -1.
<mgrwt>
<rscale>  0 0.34190401E+03</rscale>
<asrwt>0</asrwt>
<pdfrwt beam="1">  1       21 0.16837013E-01 0.34190401E+03</pdfrwt>
<pdfrwt beam="2">  1       21 0.41082479E-01 0.34190401E+03</pdfrwt>
<totfact> 0.17419387E+05</totfact>
</mgrwt>
</event>
<event>
 8    1  0.9529436E-006  0.3391559E+03  0.7546771E-02  0.1067156E+00
         21   -1    0    0  504  503  0.00000000000E+00  0.00000000000E+00  0.34233659946E+03  0.34233659946E+03  0.00000000000E+00 0.  1.
         21   -1    0    0  503  504 -0.00000000000E+00 -0.00000000000E+00 -0.84001195050E+02  0.84001195050E+02  0.00000000000E+00 0.  1.
         25    2    1    2    0    0  0.10779492898E+03  0.23384347237E+02  0.16816696668E+03  0.23680622062E+03  0.12502193021E+03 0.  0.
         25    2    1    2    0    0 -0.10779492898E+03 -0.23384347237E+02  0.90168437736E+02  0.18953157389E+03  0.12500118371E+03 0.  0.
          5    1    3    3  501    0  0.12525732893E+03  0.98658948779E+00  0.16589899583E+03  0.20793012919E+03  0.47000000000E+01 0. -1.
         -5    1    3    3    0  501 -0.17462399950E+02  0.22397757749E+02  0.22679708449E+01  0.28876091424E+02  0.47000000000E+01 0. -1.
          5    1    4    4  502    0  0.99743110209E+01 -0.29648528632E+02  0.59811106454E+02  0.67660775828E+02  0.47000000000E+01 0. -1.
         -5    1    4    4    0  502 -0.11776924000E+03  0.62641813952E+01  0.30357331283E+02  0.12187079807E+03  0.47000000000E+01 0. -1.
<mgrwt>
<rscale>  0 0.33915591E+03</rscale>
<asrwt>0</asrwt>
<pdfrwt beam="1">  1       21 0.52667168E-01 0.33915591E+03</pdfrwt>
<pdfrwt beam="2">  1       21 0.12923261E-01 0.33915591E+03</pdfrwt>
<totfact> 0.16873810E+05</totfact>
</mgrwt>
</event>
<event>
 8    1  0.9529436E-006  0.3090605E+03  0.7546771E-02  0.1080797E+00
         21   -1    0    0  504  503  0.00000000000E+00  0.00000000000E+00  0.22949908961E+03  0.22949908961E+03  0.00000000000E+00 0.  1.
         21   -1    0    0  503  504 -0.00000000000E+00 -0.00000000000E+00 -0.10405094700E+03  0.10405094700E+03  0.00000000000E+00 0.  1.
         25    2    1    2    0    0 -0.29268707651E+02 -0.85832997516E+02  0.56797768644E+02  0.16454734435E+03  0.12500352515E+03 0.  0.
         25    2    1    2    0    0  0.29268707651E+02  0.85832997516E+02  0.68650373962E+02  0.16900269226E+03  0.12500030175E+03 0.  0.
          5    1    3    3  501    0 -0.35730110717E+01  0.18461459158E+02  0.53585648239E+02  0.56983362305E+02  0.47000000000E+01 0.  1.
         -5    1    3    3    0  501 -0.25695696579E+02 -0.10429445667E+03  0.32121204049E+01  0.10756398204E+03  0.47000000000E+01 0.  1.
          5    1    4    4  502    0 -0.12602680957E+02  0.52955999169E+00  0.72542873901E+02  0.73781207328E+02  0.47000000000E+01 0.  1.
         -5    1    4    4    0  502  0.41871388607E+02  0.85303437524E+02 -0.38924999383E+01  0.95221484934E+02  0.47000000000E+01 0.  1.
<mgrwt>
<rscale>  0 0.30906050E+03</rscale>
<asrwt>0</asrwt>
<pdfrwt beam="1">  1       21 0.35307552E-01 0.30906050E+03</pdfrwt>
<pdfrwt beam="2">  1       21 0.16007838E-01 0.30906050E+03</pdfrwt>
<totfact> 0.26199637E+05</totfact>
</mgrwt>
</event>
<event>
 8    1  0.9529436E-006  0.2601964E+03  0.7546771E-02  0.1107025E+00
         21   -1    0    0  504  503  0.00000000000E+00  0.00000000000E+00  0.67827658471E+03  0.67827658471E+03  0.00000000000E+00 0. -1.
         21   -1    0    0  503  504 -0.00000000000E+00 -0.00000000000E+00 -0.24953740192E+02  0.24953740192E+02  0.00000000000E+00 0. -1.
         25    2    1    2    0    0  0.33638720956E+02  0.98302880826E+01  0.30324347257E+03  0.32985673513E+03  0.12498265457E+03 0.  0.
         25    2    1    2    0    0 -0.33638720956E+02 -0.98302880826E+01  0.35007937195E+03  0.37337358977E+03  0.12499629100E+03 0.  0.
          5    1    3    3  501    0 -0.22074894800E+02  0.79313535598E+01  0.26126448632E+01  0.24064980010E+02  0.47000000000E+01 0.  1.
         -5    1    3    3    0  501  0.55713615756E+02  0.18989345228E+01  0.30063082770E+03  0.30579175512E+03  0.47000000000E+01 0.  1.
          5    1    4    4  502    0  0.37166748084E+01  0.38075504848E+02  0.33757207687E+02  0.51236674481E+02  0.47000000000E+01 0.  1.
         -5    1    4    4    0  502 -0.37355395764E+02 -0.47905792931E+02  0.31632216426E+03  0.32213691529E+03  0.47000000000E+01 0.  1.
<mgrwt>
<rscale>  0 0.26019637E+03</rscale>
<asrwt>0</asrwt>
<pdfrwt beam="1">  1       21 0.10435023E+00 0.26019637E+03</pdfrwt>
<pdfrwt beam="2">  1       21 0.38390375E-02 0.26019637E+03</pdfrwt>
<totfact> 0.30535796E+05</totfact>
</mgrwt>
</event>
<event>
 8    1  0.9529436E-006  0.3850091E+03  0.7546771E-02  0.1049098E+00
         21   -1    0    0  504  503  0.00000000000E+00  0.00000000000E+00  0.75767140038E+03  0.75767140038E+03  0.00000000000E+00 0.  1.
         21   -1    0    0  503  504 -0.00000000000E+00 -0.00000000000E+00 -0.48910390710E+02  0.48910390710E+02  0.00000000000E+00 0.  1.
         25    2    1    2    0    0  0.11326880655E+02 -0.10525204210E+03  0.14251562327E+03  0.21712049925E+03  0.12499727087E+03 0.  0.
         25    2    1    2    0    0 -0.11326880655E+02  0.10525204210E+03  0.56624538640E+03  0.58946129184E+03  0.12499794545E+03 0.  0.
          5    1    3    3  501    0  0.17944479255E+02 -0.11721236178E+03  0.59306681580E+02  0.13266542341E+03  0.47000000000E+01 0.  1.
         -5    1    3    3    0  501 -0.66175985997E+01  0.11960319671E+02  0.83208941690E+02  0.84455075839E+02  0.47000000000E+01 0.  1.
          5    1    4    4  502    0  0.30419977647E+01  0.13022768121E+03  0.50593055394E+03  0.52245221610E+03  0.47000000000E+01 0. -1.
         -5    1    4    4    0  502 -0.14368878420E+02 -0.24975639110E+02  0.60314832462E+02  0.67009075736E+02  0.47000000000E+01 0. -1.
<mgrwt>
<rscale>  0 0.38500911E+03</rscale>
<asrwt>0</asrwt>
<pdfrwt beam="1">  1       21 0.11656482E+00 0.38500911E+03</pdfrwt>
<pdfrwt beam="2">  1       21 0.75246761E-02 0.38500911E+03</pdfrwt>
<totfact> 0.70745076E+04</totfact>
</mgrwt>
</event>
<event>
 8    1  0.9529436E-006  0.2991922E+03  0.7546771E-02  0.1085645E+00
         21   -1    0    0  504  503  0.00000000000E+00  0.00000000000E+00  0.97955441009E+02  0.97955441009E+02  0.00000000000E+00 0.  1.
         21   -1    0    0  503  504 -0.00000000000E+00 -0.00000000000E+00 -0.22846089981E+03  0.22846089981E+03  0.00000000000E+00 0.  1.
         25    2    1    2    0    0 -0.30673161077E+01 -0.39628485755E+02 -0.14373326353E+03  0.19458328337E+03  0.12499431111E+03 0.  0.
         25    2    1    2    0    0  0.30673161077E+01  0.39628485755E+02  0.13227804727E+02  0.13183305745E+03  0.12500061963E+03 0.  0.
          5    1    3    3  501    0 -0.41238619105E+02  0.25498040030E+02 -0.27587505684E+02  0.55981552505E+02  0.47000000000E+01 0.  1.
         -5    1    3    3    0  501  0.38171302997E+02 -0.65126525786E+02 -0.11614575785E+03  0.13860173087E+03  0.47000000000E+01 0.  1.
          5    1    4    4  502    0 -0.14113807279E+02 -0.19274224518E+02 -0.42391205571E+02  0.48885576568E+02  0.47000000000E+01 0.  1.
         -5    1    4    4    0  502  0.17181123387E+02  0.58902710273E+02  0.55619010297E+02  0.82947480883E+02  0.47000000000E+01 0.  1.
<mgrwt>
<rscale>  0 0.29919217E+03</rscale>
<asrwt>0</asrwt>
<pdfrwt beam="1">  1       21 0.15070068E-01 0.29919217E+03</pdfrwt>
<pdfrwt beam="2">  1       21 0.35147830E-01 0.29919217E+03</pdfrwt>
<totfact> 0.29611822E+05</totfact>
</mgrwt>
</event>
<event>
 8    1  0.9529436E-006  0.3103637E+03  0.7546771E-02  0.1080172E+00
         21   -1    0    0  504  503  0.00000000000E+00  0.00000000000E+00  0.71202021762E+02  0.71202021762E+02  0.00000000000E+00 0. -1.
         21   -1    0    0  503  504 -0.00000000000E+00 -0.00000000000E+00 -0.33821232288E+03  0.33821232288E+03  0.00000000000E+00 0. -1.
         25    2    1    2    0    0 -0.45850046239E+02  0.59508269894E+02 -0.63569062898E+02  0.15909619399E+03  0.12500844875E+03 0.  0.
         25    2    1    2    0    0  0.45850046239E+02 -0.59508269894E+02 -0.20344123822E+03  0.25031815065E+03  0.12500951248E+03 0.  0.
          5    1    3    3  501    0  0.32980253885E+02  0.37142903067E+02  0.75901020268E+01  0.50467732695E+02  0.47000000000E+01 0.  1.
         -5    1    3    3    0  501 -0.78830300124E+02  0.22365366827E+02 -0.71159164925E+02  0.10862846130E+03  0.47000000000E+01 0.  1.
          5    1    4    4  502    0 -0.38334468789E+02 -0.54122055606E+01 -0.94966004484E+02  0.10266185014E+03  0.47000000000E+01 0.  1.
         -5    1    4    4    0  502  0.84184515028E+02 -0.54096064333E+02 -0.10847523374E+03  0.14765630051E+03  0.47000000000E+01 0.  1.
<mgrwt>
<rscale>  0 0.31036367E+03</rscale>
<asrwt>0</asrwt>
<pdfrwt beam="1">  1       21 0.10954157E-01 0.31036367E+03</pdfrwt>
<pdfrwt beam="2">  1       21 0.52032664E-01 0.31036367E+03</pdfrwt>
<totfact> 0.23491344E+05</totfact>
</mgrwt>
</event>
<event>
 8    1  0.9529436E-006  0.2863441E+03  0.7546771E-02  0.1092274E+00
         21   -1    0    0  504  503  0.00000000000E+00  0.00000000000E+00  0.38834275216E+02  0.38834275216E+02  0.00000000000E+00 0.  1.
         21   -1    0    0  503  504 -0.00000000000E+00 -0.00000000000E+00 -0.52783871554E+03  0.52783871554E+03  0.00000000000E+00 0.  1.
         25    2    1    2    0    0  0.82609945637E+01 -0.61032892997E+02 -0.30952347984E+03  0.33944631087E+03  0.12500302128E+03 0.  0.
         25    2    1    2    0    0 -0.82609945637E+01  0.61032892997E+02 -0.17948096049E+03  0.22722667990E+03  0.12500116327E+03 0.  0.
          5    1    3    3  501    0  0.57178697138E+02 -0.58227637537E+01 -0.82215221675E+02  0.10042280946E+03  0.47000000000E+01 0.  1.
         -5    1    3    3    0  501 -0.48917702574E+02 -0.55210129243E+02 -0.22730825816E+03  0.23902350141E+03  0.47000000000E+01 0.  1.
          5    1    4    4  502    0  0.40993917444E+02  0.32595015287E+02 -0.17392682498E+02  0.55385302143E+02  0.47000000000E+01 0. -1.
         -5    1    4    4    0  502 -0.49254912008E+02  0.28437877710E+02 -0.16208827799E+03  0.17184137775E+03  0.47000000000E+01 0. -1.
<mgrwt>
<rscale>  0 0.28634409E+03</rscale>
<asrwt>0</asrwt>
<pdfrwt beam="1">  1       21 0.59745037E-02 0.28634409E+03</pdfrwt>
<pdfrwt beam="2">  1       21 0.81205959E-01 0.28634409E+03</pdfrwt>
<totfact> 0.25747921E+05</totfact>
</mgrwt>
</event>
<event>
 8    1  0.9529436E-006  0.3062704E+03  0.7546771E-02  0.1082147E+00
         21   -1    0    0  504  503  0.00000000000E+00  0.00000000000E+00  0.43838197201E+02  0.43838197201E+02  0.00000000000E+00 0. -1.
         21   -1    0    0  503  504 -0.00000000000E+00 -0.00000000000E+00 -0.53493043129E+03  0.53493043129E+03  0.00000000000E+00 0. -1.
         25    2    1    2    0    0  0.27006091407E+02  0.34976208972E+02 -0.39036665758E+03  0.41226618429E+03  0.12499846076E+03 0.  0.
         25    2    1    2    0    0 -0.27006091407E+02 -0.34976208972E+02 -0.10072557651E+03  0.16650244420E+03  0.12499903197E+03 0.  0.
          5    1    3    3  501    0 -0.46529590015E+02  0.27950816384E+02 -0.21747685250E+03  0.22419750725E+03  0.47000000000E+01 0. -1.
         -5    1    3    3    0  501  0.73535681422E+02  0.70253925881E+01 -0.17288980508E+03  0.18806867704E+03  0.47000000000E+01 0. -1.
          5    1    4    4  502    0 -0.32536432317E+00 -0.66468737155E+02 -0.10880087745E+02  0.67517887928E+02  0.47000000000E+01 0. -1.
         -5    1    4    4    0  502 -0.26680727084E+02  0.31492528183E+02 -0.89845488760E+02  0.98984556268E+02  0.47000000000E+01 0. -1.
<mgrwt>
<rscale>  0 0.30627038E+03</rscale>
<asrwt>0</asrwt>
<pdfrwt beam="1">  1       21 0.67443378E-02 0.30627038E+03</pdfrwt>
<pdfrwt beam="2">  1       21 0.82296993E-01 0.30627038E+03</pdfrwt>
<totfact> 0.20145728E+05</totfact>
</mgrwt>
</event>
<event>
 8    1  0.9529436E-006  0.3051011E+03  0.7546771E-02  0.1082718E+00
         21   -1    0    0  504  503  0.00000000000E+00  0.00000000000E+00  0.34329873862E+03  0.34329873862E+03  0.00000000000E+00 0.  1.
         21   -1    0    0  503  504 -0.00000000000E+00 -0.00000000000E+00 -0.67788391229E+02  0.67788391229E+02  0.00000000000E+00 0.  1.
         25    2    1    2    0    0 -0.95374119228E+01  0.71443725252E+02  0.71050189832E+02  0.16083903841E+03  0.12500359474E+03 0.  0.
         25    2    1    2    0    0  0.95374119228E+01 -0.71443725252E+02  0.20446015756E+03  0.25024809143E+03  0.12499993253E+03 0.  0.
          5    1    3    3  501    0 -0.49544924184E+02 -0.90289445800E+01  0.86114373102E+01  0.51307584285E+02  0.47000000000E+01 0.  1.
         -5    1    3    3    0  501  0.40007512261E+02  0.80472669832E+02  0.62438752521E+02  0.10953145413E+03  0.47000000000E+01 0.  1.
          5    1    4    4  502    0 -0.18415164325E+02 -0.97129361246E+02  0.10805037873E+03  0.14652714915E+03  0.47000000000E+01 0. -1.
         -5    1    4    4    0  502  0.27952576248E+02  0.25685635994E+02  0.96409778825E+02  0.10372094228E+03  0.47000000000E+01 0. -1.
<mgrwt>
<rscale>  0 0.30510109E+03</rscale>
<asrwt>0</asrwt>
<pdfrwt beam="1">  1       21 0.52815189E-01 0.30510109E+03</pdfrwt>
<pdfrwt beam="2">  1       21 0.10428984E-01 0.30510109E+03</pdfrwt>
<totfact> 0.24881400E+05</totfact>
</mgrwt>
</event>
<event>
 8    1  0.9529436E-006  0.3109682E+03  0.7546771E-02  0.1079883E+00
         21   -1    0    0  504  503  0.00000000000E+00  0.00000000000E+00  0.55970005303E+03  0.55970005303E+03  0.00000000000E+00 0.  1.
         21   -1    0    0  503  504 -0.00000000000E+00 -0.00000000000E+00 -0.43193327811E+02  0.43193327811E+02  0.00000000000E+00 0.  1.
         25    2    1    2    0    0 -0.24264869858E+02  0.88473112454E+02  0.23574598400E+03  0.28216322282E+03  0.12499455910E+03 0.  0.
         25    2    1    2    0    0  0.24264869858E+02 -0.88473112454E+02  0.28076074122E+03  0.32073015802E+03  0.12499985966E+03 0.  0.
          5    1    3    3  501    0  0.47781318781E+00  0.97993805623E+02  0.87394910895E+02  0.13138863991E+03  0.47000000000E+01 0. -1.
         -5    1    3    3    0  501 -0.24742683045E+02 -0.95206931685E+01  0.14835107310E+03  0.15077458291E+03  0.47000000000E+01 0. -1.
          5    1    4    4  502    0 -0.29293297882E+02  0.17458164370E+02  0.44259454983E+02  0.56070260917E+02  0.47000000000E+01 0. -1.
         -5    1    4    4    0  502  0.53558167739E+02 -0.10593127682E+03  0.23650128624E+03  0.26465989710E+03  0.47000000000E+01 0. -1.
<mgrwt>
<rscale>  0 0.31096822E+03</rscale>
<asrwt>0</asrwt>
<pdfrwt beam="1">  1       21 0.86107696E-01 0.31096822E+03</pdfrwt>
<pdfrwt beam="2">  1       21 0.66451277E-02 0.31096822E+03</pdfrwt>
<totfact> 0.18596999E+05</totfact>
</mgrwt>
</event>
<event>
 8    1  0.9529436E-006  0.2752621E+03  0.7546771E-02  0.1098305E+00
         21   -1    0    0  504  503  0.00000000000E+00  0.00000000000E+00  0.21323933831E+03  0.21323933831E+03  0.00000000000E+00 0. -1.
         21   -1    0    0  503  504 -0.00000000000E+00 -0.00000000000E+00 -0.88831184158E+02  0.88831184158E+02  0.00000000000E+00 0. -1.
         25    2    1    2    0    0  0.18035096312E+02  0.49050660387E+02  0.35627770220E+02  0.14008799084E+03  0.12499630068E+03 0.  0.
         25    2    1    2    0    0 -0.18035096312E+02 -0.49050660387E+02  0.88780383936E+02  0.16198253163E+03  0.12500060799E+03 0.  0.
          5    1    3    3  501    0  0.65032031376E+02  0.14589224445E+02  0.45442398746E+02  0.80802921845E+02  0.47000000000E+01 0. -1.
         -5    1    3    3    0  501 -0.46996935064E+02  0.34461435942E+02 -0.98146285266E+01  0.59285068994E+02  0.47000000000E+01 0. -1.
          5    1    4    4  502    0  0.45852914334E+02 -0.28574909893E+02  0.76254271475E+02  0.93572534146E+02  0.47000000000E+01 0. -1.
         -5    1    4    4    0  502 -0.63888010646E+02 -0.20475750494E+02  0.12526112461E+02  0.68409997486E+02  0.47000000000E+01 0. -1.
<mgrwt>
<rscale>  0 0.27526208E+03</rscale>
<asrwt>0</asrwt>
<pdfrwt beam="1">  1       21 0.32806052E-01 0.27526208E+03</pdfrwt>
<pdfrwt beam="2">  1       21 0.13666336E-01 0.27526208E+03</pdfrwt>
<totfact> 0.40829537E+05</totfact>
</mgrwt>
</event>
<event>
 8    1  0.9529436E-006  0.3502894E+03  0.7546771E-02  0.1062496E+00
         21   -1    0    0  504  503  0.00000000000E+00  0.00000000000E+00  0.18836348272E+04  0.18836348272E+04  0.00000000000E+00 0.  1.
         21   -1    0    0  503  504 -0.00000000000E+00 -0.00000000000E+00 -0.16285358781E+02  0.16285358781E+02  0.00000000000E+00 0.  1.
         25    2    1    2    0    0  0.27573815906E+02  0.11843571970E+03  0.84562427095E+03  0.86341878504E+03  0.12499702288E+03 0.  0.
         25    2    1    2    0    0 -0.27573815906E+02 -0.11843571970E+03  0.10217251974E+04  0.10365014009E+04  0.12500175986E+03 0.  0.
          5    1    3    3  501    0 -0.49545875199E+02  0.43590731663E+02  0.28633950926E+03  0.29388322545E+03  0.47000000000E+01 0. -1.
         -5    1    3    3    0  501  0.77119691104E+02  0.74844988039E+02  0.55928476168E+03  0.56953555959E+03  0.47000000000E+01 0. -1.
          5    1    4    4  502    0  0.41613291232E+02 -0.25547644467E+02  0.17040190472E+03  0.17732243873E+03  0.47000000000E+01 0.  1.
         -5    1    4    4    0  502 -0.69187107138E+02 -0.92888075235E+02  0.85132329273E+03  0.85917896218E+03  0.47000000000E+01 0.  1.
<mgrwt>
<rscale>  0 0.35028942E+03</rscale>
<asrwt>0</asrwt>
<pdfrwt beam="1">  1       21 0.28978980E+00 0.35028942E+03</pdfrwt>
<pdfrwt beam="2">  1       21 0.25054413E-02 0.35028942E+03</pdfrwt>
<totfact> 0.29891147E+04</totfact>
</mgrwt>
</event>
<event>
 8    1  0.9529436E-006  0.2750401E+03  0.7546771E-02  0.1098429E+00
         21   -1    0    0  504  503  0.00000000000E+00  0.00000000000E+00  0.14810024917E+04  0.14810024917E+04  0.00000000000E+00 0. -1.
         21   -1    0    0  503  504 -0.00000000000E+00 -0.00000000000E+00 -0.12769567846E+02  0.12769567846E+02  0.00000000000E+00 0. -1.
         25    2    1    2    0    0  0.19301710915E+02 -0.40643534688E+02  0.54127540598E+03  0.55734225930E+03  0.12500750348E+03 0.  0.
         25    2    1    2    0    0 -0.19301710915E+02  0.40643534688E+02  0.92695751787E+03  0.93642980024E+03  0.12500431149E+03 0.  0.
          5    1    3    3  501    0 -0.51896250910E-01 -0.54566981750E+02  0.52555293109E+03  0.52839902684E+03  0.47000000000E+01 0.  1.
         -5    1    3    3    0  501  0.19353607166E+02  0.13923447062E+02  0.15722474890E+02  0.28943232457E+02  0.47000000000E+01 0.  1.
          5    1    4    4  502    0 -0.56228070875E+02  0.61844416062E+02  0.73488998564E+03  0.73964296032E+03  0.47000000000E+01 0. -1.
         -5    1    4    4    0  502  0.36926359960E+02 -0.21200881374E+02  0.19206753223E+03  0.19678683993E+03  0.47000000000E+01 0. -1.
<mgrwt>
<rscale>  0 0.27504008E+03</rscale>
<asrwt>0</asrwt>
<pdfrwt beam="1">  1       21 0.22784640E+00 0.27504008E+03</pdfrwt>
<pdfrwt beam="2">  1       21 0.19645501E-02 0.27504008E+03</pdfrwt>
<totfact> 0.10916629E+05</totfact>
</mgrwt>
</event>
<event>
 8    1  0.9529436E-006  0.3202402E+03  0.7546771E-02  0.1075539E+00
         21   -1    0    0  504  503  0.00000000000E+00  0.00000000000E+00  0.92908928831E+03  0.92908928831E+03  0.00000000000E+00 0.  1.
         21   -1    0    0  503  504 -0.00000000000E+00 -0.00000000000E+00 -0.27595244039E+02  0.27595244039E+02  0.00000000000E+00 0.  1.
         25    2    1    2    0    0  0.24595349456E+02 -0.91524689524E+02  0.54669304113E+03  0.56875356657E+03  0.12500255300E+03 0.  0.
         25    2    1    2    0    0 -0.24595349456E+02  0.91524689524E+02  0.35480100314E+03  0.38793096578E+03  0.12499992950E+03 0.  0.
          5    1    3    3  501    0 -0.29910571129E+01 -0.10318941512E+03  0.25001150221E+03  0.27052697287E+03  0.47000000000E+01 0.  1.
         -5    1    3    3    0  501  0.27586406569E+02  0.11664725591E+02  0.29668153892E+03  0.29822659369E+03  0.47000000000E+01 0.  1.
          5    1    4    4  502    0  0.29983611359E+02 -0.17356586755E+02  0.76704520871E+02  0.84296747126E+02  0.47000000000E+01 0. -1.
         -5    1    4    4    0  502 -0.54578960814E+02  0.10888127628E+03  0.27809648227E+03  0.30363421866E+03  0.47000000000E+01 0. -1.
<mgrwt>
<rscale>  0 0.32024020E+03</rscale>
<asrwt>0</asrwt>
<pdfrwt beam="1">  1       21 0.14293679E+00 0.32024020E+03</pdfrwt>
<pdfrwt beam="2">  1       21 0.42454229E-02 0.32024020E+03</pdfrwt>
<totfact> 0.11461244E+05</totfact>
</mgrwt>
</event>
<event>
 8    1  0.9529436E-006  0.3670534E+03  0.7546771E-02  0.1055825E+00
         21   -1    0    0  504  503  0.00000000000E+00  0.00000000000E+00  0.55526837508E+02  0.55526837508E+02  0.00000000000E+00 0.  1.
         21   -1    0    0  503  504 -0.00000000000E+00 -0.00000000000E+00 -0.60659056750E+03  0.60659056750E+03  0.00000000000E+00 0.  1.
         25    2    1    2    0    0 -0.34254462300E+02 -0.61799024495E+02 -0.69339464048E+02  0.15944904451E+03  0.12499419548E+03 0.  0.
         25    2    1    2    0    0  0.34254462300E+02  0.61799024495E+02 -0.48172426594E+03  0.50266836050E+03  0.12499889852E+03 0.  0.
          5    1    3    3  501    0  0.32376800041E+02 -0.65464305484E+02 -0.18668601051E+02  0.75527737545E+02  0.47000000000E+01 0. -1.
         -5    1    3    3    0  501 -0.66631262341E+02  0.36652809893E+01 -0.50670862997E+02  0.83921306965E+02  0.47000000000E+01 0. -1.
          5    1    4    4  502    0 -0.68400674430E+01 -0.23762285064E+02 -0.22650420645E+02  0.33860954941E+02  0.47000000000E+01 0.  1.
         -5    1    4    4    0  502  0.41094529743E+02  0.85561309559E+02 -0.45907384530E+03  0.46880740556E+03  0.47000000000E+01 0.  1.
<mgrwt>
<rscale>  0 0.36705343E+03</rscale>
<asrwt>0</asrwt>
<pdfrwt beam="1">  1       21 0.85425904E-02 0.36705343E+03</pdfrwt>
<pdfrwt beam="2">  1       21 0.93321626E-01 0.36705343E+03</pdfrwt>
<totfact> 0.97721158E+04</totfact>
</mgrwt>
</event>
<event>
 8    1  0.9529436E-006  0.2691463E+03  0.7546771E-02  0.1101769E+00
         21   -1    0    0  504  503  0.00000000000E+00  0.00000000000E+00  0.10387945749E+04  0.10387945749E+04  0.00000000000E+00 0.  1.
         21   -1    0    0  503  504 -0.00000000000E+00 -0.00000000000E+00 -0.17433603639E+02  0.17433603639E+02  0.00000000000E+00 0.  1.
         25    2    1    2    0    0 -0.17366850794E+02  0.70548945692E+01  0.32946772734E+03  0.35288464084E+03  0.12500882902E+03 0.  0.
         25    2    1    2    0    0  0.17366850794E+02 -0.70548945692E+01  0.69189324392E+03  0.70334353770E+03  0.12499796800E+03 0.  0.
          5    1    3    3  501    0 -0.43313809392E+02  0.99310535929E+01  0.33798729395E+02  0.56028171648E+02  0.47000000000E+01 0. -1.
         -5    1    3    3    0  501  0.25946958598E+02 -0.28761590236E+01  0.29566899795E+03  0.29685646919E+03  0.47000000000E+01 0. -1.
          5    1    4    4  502    0 -0.26475348993E+02 -0.42610425594E+02  0.14459914539E+03  0.15312607655E+03  0.47000000000E+01 0. -1.
         -5    1    4    4    0  502  0.43842199787E+02  0.35555531025E+02  0.54729409853E+03  0.55021746115E+03  0.47000000000E+01 0. -1.
<mgrwt>
<rscale>  0 0.26914630E+03</rscale>
<asrwt>0</asrwt>
<pdfrwt beam="1">  1       21 0.15981450E+00 0.26914630E+03</pdfrwt>
<pdfrwt beam="2">  1       21 0.26820937E-02 0.26914630E+03</pdfrwt>
<totfact> 0.18657775E+05</totfact>
</mgrwt>
</event>
<event>
 8    1  0.9529436E-006  0.2767970E+03  0.7546771E-02  0.1097451E+00
         21   -1    0    0  504  503  0.00000000000E+00  0.00000000000E+00  0.17520495937E+03  0.17520495937E+03  0.00000000000E+00 0. -1.
         21   -1    0    0  503  504 -0.00000000000E+00 -0.00000000000E+00 -0.10932418996E+03  0.10932418996E+03  0.00000000000E+00 0. -1.
         25    2    1    2    0    0  0.16102504242E+02  0.29438253472E+02  0.83324145982E+02  0.15393013886E+03  0.12500269171E+03 0.  0.
         25    2    1    2    0    0 -0.16102504242E+02 -0.29438253472E+02 -0.17443376580E+02  0.13059901047E+03  0.12500371491E+03 0.  0.
          5    1    3    3  501    0 -0.22784831942E+02  0.23612606864E+02  0.10407165443E+03  0.10922317989E+03  0.47000000000E+01 0.  1.
         -5    1    3    3    0  501  0.38887336184E+02  0.58256466076E+01 -0.20747508443E+02  0.44706958971E+02  0.47000000000E+01 0.  1.
          5    1    4    4  502    0 -0.45178658098E+02 -0.26347942343E+02 -0.59374650908E+02  0.79263890793E+02  0.47000000000E+01 0.  1.
         -5    1    4    4    0  502  0.29076153856E+02 -0.30903111292E+01  0.41931274328E+02  0.51335119681E+02  0.47000000000E+01 0.  1.
<mgrwt>
<rscale>  0 0.27679697E+03</rscale>
<asrwt>0</asrwt>
<pdfrwt beam="1">  1       21 0.26954609E-01 0.27679697E+03</pdfrwt>
<pdfrwt beam="2">  1       21 0.16819106E-01 0.27679697E+03</pdfrwt>
<totfact> 0.40996118E+05</totfact>
</mgrwt>
</event>
<event>
 8    1  0.9529436E-006  0.3372220E+03  0.7546771E-02  0.1067985E+00
         21   -1    0    0  504  503  0.00000000000E+00  0.00000000000E+00  0.14753845603E+03  0.14753845603E+03  0.00000000000E+00 0. -1.
         21   -1    0    0  503  504 -0.00000000000E+00 -0.00000000000E+00 -0.19269327229E+03  0.19269327229E+03  0.00000000000E+00 0. -1.
         25    2    1    2    0    0  0.95563539962E+02 -0.60351733580E+02 -0.17002554183E+02  0.16937563921E+03  0.12499719354E+03 0.  0.
         25    2    1    2    0    0 -0.95563539962E+02  0.60351733580E+02 -0.28152262073E+02  0.17085608911E+03  0.12499812562E+03 0.  0.
          5    1    3    3  501    0  0.28035255871E+02  0.14505975827E+02  0.41784378865E+02  0.52577782604E+02  0.47000000000E+01 0.  1.
         -5    1    3    3    0  501  0.67528284091E+02 -0.74857709407E+02 -0.58786933048E+02  0.11679785660E+03  0.47000000000E+01 0.  1.
          5    1    4    4  502    0 -0.35607366362E+02 -0.25379780037E+02  0.27894742482E+02  0.52079021036E+02  0.47000000000E+01 0.  1.
         -5    1    4    4    0  502 -0.59956173600E+02  0.85731513617E+02 -0.56047004555E+02  0.11877706807E+03  0.47000000000E+01 0.  1.
<mgrwt>
<rscale>  0 0.33722199E+03</rscale>
<asrwt>0</asrwt>
<pdfrwt beam="1">  1       21 0.22698224E-01 0.33722199E+03</pdfrwt>
<pdfrwt beam="2">  1       21 0.29645119E-01 0.33722199E+03</pdfrwt>
<totfact> 0.19123552E+05</totfact>
</mgrwt>
</event>
<event>
 8    1  0.9529436E-006  0.5566344E+03  0.7546771E-02  0.9999699E-01
         21   -1    0    0  504  503  0.00000000000E+00  0.00000000000E+00  0.38032800728E+03  0.38032800728E+03  0.00000000000E+00 0.  1.
         21   -1    0    0  503  504 -0.00000000000E+00 -0.00000000000E+00 -0.20366750036E+03  0.20366750036E+03  0.00000000000E+00 0.  1.
         25    2    1    2    0    0 -0.14033786181E+02 -0.84455892919E+02  0.33326610695E+03  0.36609130216E+03  0.12500719368E+03 0.  0.
         25    2    1    2    0    0  0.14033786181E+02  0.84455892919E+02 -0.15660560003E+03  0.21790420549E+03  0.12500873492E+03 0.  0.
          5    1    3    3  501    0  0.10127260581E+02 -0.72913395144E+01  0.24847294691E+03  0.24883050533E+03  0.47000000000E+01 0.  1.
         -5    1    3    3    0  501 -0.24161046762E+02 -0.77164553405E+02  0.84793160042E+02  0.11726079683E+03  0.47000000000E+01 0.  1.
          5    1    4    4  502    0 -0.18021313864E+02  0.87530187331E+02 -0.16184830315E+03  0.18494124657E+03  0.47000000000E+01 0.  1.
         -5    1    4    4    0  502  0.32055100045E+02 -0.30742944124E+01  0.52427031251E+01  0.32962958925E+02  0.47000000000E+01 0.  1.
<mgrwt>
<rscale>  0 0.55663437E+03</rscale>
<asrwt>0</asrwt>
<pdfrwt beam="1">  1       21 0.58512001E-01 0.55663437E+03</pdfrwt>
<pdfrwt beam="2">  1       21 0.31333462E-01 0.55663437E+03</pdfrwt>
<totfact> 0.23727401E+04</totfact>
</mgrwt>
</event>
<event>
 8    1  0.9529436E-006  0.4393010E+03  0.7546771E-02  0.1030961E+00
         21   -1    0    0  504  503  0.00000000000E+00  0.00000000000E+00  0.65724350688E+02  0.65724350688E+02  0.00000000000E+00 0.  1.
         21   -1    0    0  503  504 -0.00000000000E+00 -0.00000000000E+00 -0.73407106447E+03  0.73407106447E+03  0.00000000000E+00 0.  1.
         25    2    1    2    0    0 -0.12838968655E+03 -0.12652200896E+03 -0.35482338727E+03  0.41715328097E+03  0.12500197320E+03 0.  0.
         25    2    1    2    0    0  0.12838968655E+03  0.12652200896E+03 -0.31352332651E+03  0.38264213419E+03  0.12500558479E+03 0.  0.
          5    1    3    3  501    0 -0.94353744926E+02 -0.46407464301E+02 -0.90449096562E+02  0.13877827998E+03  0.47000000000E+01 0. -1.
         -5    1    3    3    0  501 -0.34035941623E+02 -0.80114544660E+02 -0.26437429071E+03  0.27837500099E+03  0.47000000000E+01 0. -1.
          5    1    4    4  502    0  0.63588094866E+02  0.11110702806E+03 -0.11137008586E+03  0.16974570250E+03  0.47000000000E+01 0.  1.
         -5    1    4    4    0  502  0.64801591684E+02  0.15414980901E+02 -0.20215324065E+03  0.21289643169E+03  0.47000000000E+01 0.  1.
<mgrwt>
<rscale>  0 0.43930101E+03</rscale>
<asrwt>0</asrwt>
<pdfrwt beam="1">  1       21 0.10111437E-01 0.43930101E+03</pdfrwt>
<pdfrwt beam="2">  1       21 0.11293402E+00 0.43930101E+03</pdfrwt>
<totfact> 0.44638611E+04</totfact>
</mgrwt>
</event>
<event>
 8    1  0.9529436E-006  0.3923255E+03  0.7546771E-02  0.1046470E+00
         21   -1    0    0  504  503  0.00000000000E+00  0.00000000000E+00  0.90943345795E+02  0.90943345795E+02  0.00000000000E+00 0.  1.
         21   -1    0    0  503  504 -0.00000000000E+00 -0.00000000000E+00 -0.42311860907E+03  0.42311860907E+03  0.00000000000E+00 0.  1.
         25    2    1    2    0    0 -0.14994431503E+02  0.11555508128E+03 -0.29228559510E+03  0.33857862627E+03  0.12500722890E+03 0.  0.
         25    2    1    2    0    0  0.14994431503E+02 -0.11555508128E+03 -0.39889668174E+02  0.17548332860E+03  0.12500161280E+03 0.  0.
          5    1    3    3  501    0 -0.39237303539E+02  0.12230253681E+03 -0.16715493428E+03  0.21085620350E+03  0.47000000000E+01 0. -1.
         -5    1    3    3    0  501  0.24242872036E+02 -0.67474555290E+01 -0.12513066083E+03  0.12772242278E+03  0.47000000000E+01 0. -1.
          5    1    4    4  502    0 -0.32359412433E+02  0.59740329429E+01 -0.29694504368E+02  0.44572123937E+02  0.47000000000E+01 0. -1.
         -5    1    4    4    0  502  0.47353843936E+02 -0.12152911423E+03 -0.10195163806E+02  0.13091120466E+03  0.47000000000E+01 0. -1.
<mgrwt>
<rscale>  0 0.39232549E+03</rscale>
<asrwt>0</asrwt>
<pdfrwt beam="1">  1       21 0.13991284E-01 0.39232549E+03</pdfrwt>
<pdfrwt beam="2">  1       21 0.65095172E-01 0.39232549E+03</pdfrwt>
<totfact> 0.91031435E+04</totfact>
</mgrwt>
</event>
<event>
 8    1  0.9529436E-006  0.3741917E+03  0.7546771E-02  0.1053102E+00
         21   -1    0    0  504  503  0.00000000000E+00  0.00000000000E+00  0.20591046476E+03  0.20591046476E+03  0.00000000000E+00 0. -1.
         21   -1    0    0  503  504 -0.00000000000E+00 -0.00000000000E+00 -0.17000042320E+03  0.17000042320E+03  0.00000000000E+00 0. -1.
         25    2    1    2    0    0  0.13503101096E+03  0.25845503080E+02  0.39958970985E+02  0.19005643282E+03  0.12499345720E+03 0.  0.
         25    2    1    2    0    0 -0.13503101096E+03 -0.25845503080E+02 -0.40489294173E+01  0.18585445514E+03  0.12499648282E+03 0.  0.
          5    1    3    3  501    0  0.37924255492E+02 -0.47850673349E+02  0.28436469445E+02  0.67517841265E+02  0.47000000000E+01 0. -1.
         -5    1    3    3    0  501  0.97106755467E+02  0.73696176429E+02  0.11522501540E+02  0.12253859155E+03  0.47000000000E+01 0. -1.
          5    1    4    4  502    0 -0.38838556848E+02  0.43868749019E+02  0.24342166864E+02  0.63620214761E+02  0.47000000000E+01 0.  1.
         -5    1    4    4    0  502 -0.96192454111E+02 -0.69714252099E+02 -0.28391096282E+02  0.12223424038E+03  0.47000000000E+01 0.  1.
<mgrwt>
<rscale>  0 0.37419175E+03</rscale>
<asrwt>0</asrwt>
<pdfrwt beam="1">  1       21 0.31678533E-01 0.37419175E+03</pdfrwt>
<pdfrwt beam="2">  1       21 0.26153911E-01 0.37419175E+03</pdfrwt>
<totfact> 0.12657025E+05</totfact>
</mgrwt>
</event>
<event>
 8    1  0.9529436E-006  0.3806392E+03  0.7546771E-02  0.1050698E+00
         21   -1    0    0  504  503  0.00000000000E+00  0.00000000000E+00  0.69698605059E+02  0.69698605059E+02  0.00000000000E+00 0.  1.
         21   -1    0    0  503  504 -0.00000000000E+00 -0.00000000000E+00 -0.51968833315E+03  0.51968833315E+03  0.00000000000E+00 0.  1.
         25    2    1    2    0    0 -0.12313249174E+03 -0.61917457850E+01 -0.33875289321E+03  0.38154655315E+03  0.12499720526E+03 0.  0.
         25    2    1    2    0    0  0.12313249174E+03  0.61917457850E+01 -0.11123683488E+03  0.20784038506E+03  0.12499617591E+03 0.  0.
          5    1    3    3  501    0 -0.86703513167E+02  0.16911291380E+01 -0.73873603006E+02  0.11401648273E+03  0.47000000000E+01 0. -1.
         -5    1    3    3    0  501 -0.36428978569E+02 -0.78828749230E+01 -0.26487929021E+03  0.26753007042E+03  0.47000000000E+01 0. -1.
          5    1    4    4  502    0  0.58641536174E+02  0.55908287068E+02 -0.94515589467E+02  0.12457870195E+03  0.47000000000E+01 0.  1.
         -5    1    4    4    0  502  0.64490955562E+02 -0.49716541283E+02 -0.16721245414E+02  0.83261683112E+02  0.47000000000E+01 0.  1.
<mgrwt>
<rscale>  0 0.38063921E+03</rscale>
<asrwt>0</asrwt>
<pdfrwt beam="1">  1       21 0.10722863E-01 0.38063921E+03</pdfrwt>
<pdfrwt beam="2">  1       21 0.79952048E-01 0.38063921E+03</pdfrwt>
<totfact> 0.93135823E+04</totfact>
</mgrwt>
</event>
<event>
 8    1  0.9529436E-006  0.4906177E+03  0.7546771E-02  0.1016257E+00
         21   -1    0    0  504  503  0.00000000000E+00  0.00000000000E+00  0.11369046323E+03  0.11369046323E+03  0.00000000000E+00 0. -1.
         21   -1    0    0  503  504 -0.00000000000E+00 -0.00000000000E+00 -0.52930060408E+03  0.52930060408E+03  0.00000000000E+00 0. -1.
         25    2    1    2    0    0 -0.39640029878E+02  0.13932326926E+03 -0.66099021444E+01  0.19144576851E+03  0.12500194458E+03 0.  0.
         25    2    1    2    0    0  0.39640029878E+02 -0.13932326926E+03 -0.40900023870E+03  0.45154529881E+03  0.12501862378E+03 0.  0.
          5    1    3    3  501    0  0.39283554430E+02  0.88667036145E+02 -0.90542846888E+01  0.97514670786E+02  0.47000000000E+01 0. -1.
         -5    1    3    3    0  501 -0.78923584308E+02  0.50656233112E+02  0.24443825444E+01  0.93931097721E+02  0.47000000000E+01 0. -1.
          5    1    4    4  502    0 -0.29093125108E+02 -0.69206077157E+02 -0.87672828989E+02  0.11551842272E+03  0.47000000000E+01 0. -1.
         -5    1    4    4    0  502  0.68733154985E+02 -0.70117192100E+02 -0.32132740971E+03  0.33602687609E+03  0.47000000000E+01 0. -1.
<mgrwt>
<rscale>  0 0.49061770E+03</rscale>
<asrwt>0</asrwt>
<pdfrwt beam="1">  1       21 0.17490841E-01 0.49061770E+03</pdfrwt>
<pdfrwt beam="2">  1       21 0.81430862E-01 0.49061770E+03</pdfrwt>
<totfact> 0.35389888E+04</totfact>
</mgrwt>
</event>
<event>
 8    1  0.9529436E-006  0.3395466E+03  0.7546771E-02  0.1066989E+00
         21   -1    0    0  504  503  0.00000000000E+00  0.00000000000E+00  0.12700026820E+03  0.12700026820E+03  0.00000000000E+00 0.  1.
         21   -1    0    0  503  504 -0.00000000000E+00 -0.00000000000E+00 -0.22695202144E+03  0.22695202144E+03  0.00000000000E+00 0.  1.
         25    2    1    2    0    0  0.11043556813E+03 -0.12606412647E+02 -0.80215428514E+02  0.18551596984E+03  0.12500689479E+03 0.  0.
         25    2    1    2    0    0 -0.11043556813E+03  0.12606412647E+02 -0.19736324734E+02  0.16843631980E+03  0.12500533975E+03 0.  0.
          5    1    3    3  501    0 -0.27575872084E+00  0.42713964865E+02 -0.14802331648E+02  0.45450609012E+02  0.47000000000E+01 0.  1.
         -5    1    3    3    0  501  0.11071132685E+03 -0.55320377512E+02 -0.65413096866E+02  0.14006536082E+03  0.47000000000E+01 0.  1.
          5    1    4    4  502    0 -0.10259864308E+02 -0.44627320066E+02  0.14046282531E+02  0.48127440871E+02  0.47000000000E+01 0.  1.
         -5    1    4    4    0  502 -0.10017570382E+03  0.57233732713E+02 -0.33782607265E+02  0.12030887893E+03  0.47000000000E+01 0.  1.
<mgrwt>
<rscale>  0 0.33954657E+03</rscale>
<asrwt>0</asrwt>
<pdfrwt beam="1">  1       21 0.19538503E-01 0.33954657E+03</pdfrwt>
<pdfrwt beam="2">  1       21 0.34915695E-01 0.33954657E+03</pdfrwt>
<totfact> 0.18350619E+05</totfact>
</mgrwt>
</event>
<event>
 8    1  0.9529436E-006  0.3006133E+03  0.7546771E-02  0.1084934E+00
         21   -1    0    0  504  503  0.00000000000E+00  0.00000000000E+00  0.28274481764E+03  0.28274481764E+03  0.00000000000E+00 0.  1.
         21   -1    0    0  503  504 -0.00000000000E+00 -0.00000000000E+00 -0.79902746177E+02  0.79902746177E+02  0.00000000000E+00 0.  1.
         25    2    1    2    0    0  0.27041610600E+02 -0.38979227197E+01  0.63091709528E+01  0.12813337727E+03  0.12502765385E+03 0.  0.
         25    2    1    2    0    0 -0.27041610600E+02  0.38979227197E+01  0.19653290051E+03  0.23451418654E+03  0.12500112080E+03 0.  0.
          5    1    3    3  501    0 -0.30486189280E+02 -0.23000593453E+02 -0.37082965893E+02  0.53438482346E+02  0.47000000000E+01 0. -1.
         -5    1    3    3    0  501  0.57527799880E+02  0.19102670734E+02  0.43392136845E+02  0.74694894927E+02  0.47000000000E+01 0. -1.
          5    1    4    4  502    0 -0.47679655690E+02 -0.29771545358E+02  0.18455031599E+03  0.19297824647E+03  0.47000000000E+01 0.  1.
         -5    1    4    4    0  502  0.20638045091E+02  0.33669468078E+02  0.11982584521E+02  0.41535940071E+02  0.47000000000E+01 0.  1.
<mgrwt>
<rscale>  0 0.30061329E+03</rscale>
<asrwt>0</asrwt>
<pdfrwt beam="1">  1       21 0.43499202E-01 0.30061329E+03</pdfrwt>
<pdfrwt beam="2">  1       21 0.12292730E-01 0.30061329E+03</pdfrwt>
<totfact> 0.27819487E+05</totfact>
</mgrwt>
</event>
<event>
 8    1  0.9529436E-006  0.2678143E+03  0.7546771E-02  0.1102537E+00
         21   -1    0    0  504  503  0.00000000000E+00  0.00000000000E+00  0.30104169529E+03  0.30104169529E+03  0.00000000000E+00 0.  1.
         21   -1    0    0  503  504 -0.00000000000E+00 -0.00000000000E+00 -0.59563599384E+02  0.59563599384E+02  0.00000000000E+00 0.  1.
         25    2    1    2    0    0 -0.56686627309E+01  0.45936029319E+02  0.10348590167E+03  0.16874999693E+03  0.12499990837E+03 0.  0.
         25    2    1    2    0    0  0.56686627309E+01 -0.45936029319E+02  0.13799219424E+03  0.19185529775E+03  0.12499742828E+03 0.  0.
          5    1    3    3  501    0 -0.45946579641E+02  0.42295536658E+02  0.11090462150E+03  0.12736532366E+03  0.47000000000E+01 0.  1.
         -5    1    3    3    0  501  0.40277916910E+02  0.36404926614E+01 -0.74187198300E+01  0.41384673267E+02  0.47000000000E+01 0.  1.
          5    1    4    4  502    0  0.11609642709E+02 -0.15909252505E+01 -0.22160079217E+02  0.25504390953E+02  0.47000000000E+01 0.  1.
         -5    1    4    4    0  502 -0.59409799780E+01 -0.44345104069E+02  0.16015227346E+03  0.16635090680E+03  0.47000000000E+01 0.  1.
<mgrwt>
<rscale>  0 0.26781432E+03</rscale>
<asrwt>0</asrwt>
<pdfrwt beam="1">  1       21 0.46314106E-01 0.26781432E+03</pdfrwt>
<pdfrwt beam="2">  1       21 0.91636309E-02 0.26781432E+03</pdfrwt>
<totfact> 0.41590843E+05</totfact>
</mgrwt>
</event>
<event>
 8    1  0.9529436E-006  0.2667974E+03  0.7546771E-02  0.1103127E+00
         21   -1    0    0  504  503  0.00000000000E+00  0.00000000000E+00  0.23620793930E+02  0.23620793930E+02  0.00000000000E+00 0. -1.
         21   -1    0    0  503  504 -0.00000000000E+00 -0.00000000000E+00 -0.75337089400E+03  0.75337089400E+03  0.00000000000E+00 0. -1.
         25    2    1    2    0    0  0.45755965430E+02 -0.84052644704E+01 -0.37118962903E+03  0.39442490684E+03  0.12500003837E+03 0.  0.
         25    2    1    2    0    0 -0.45755965430E+02  0.84052644704E+01 -0.35856047104E+03  0.38256678109E+03  0.12500989464E+03 0.  0.
          5    1    3    3  501    0  0.10794142398E+02 -0.57843414967E+02 -0.27025895116E+03  0.27663037585E+03  0.47000000000E+01 0. -1.
         -5    1    3    3    0  501  0.34961823032E+02  0.49438150496E+02 -0.10093067788E+03  0.11779453099E+03  0.47000000000E+01 0. -1.
          5    1    4    4  502    0 -0.29953669954E+02  0.42688054059E+02 -0.33216193606E+03  0.33626348906E+03  0.47000000000E+01 0. -1.
         -5    1    4    4    0  502 -0.15802295477E+02 -0.34282789589E+02 -0.26398534977E+02  0.46303292035E+02  0.47000000000E+01 0. -1.
<mgrwt>
<rscale>  0 0.26679744E+03</rscale>
<asrwt>0</asrwt>
<pdfrwt beam="1">  1       21 0.36339686E-02 0.26679744E+03</pdfrwt>
<pdfrwt beam="2">  1       21 0.11590320E+00 0.26679744E+03</pdfrwt>
<totfact> 0.25867152E+05</totfact>
</mgrwt>
</event>
<event>
 8    1  0.9529436E-006  0.3709103E+03  0.7546771E-02  0.1054345E+00
         21   -1    0    0  504  503  0.00000000000E+00  0.00000000000E+00  0.68711805518E+02  0.68711805518E+02  0.00000000000E+00 0. -1.
         21   -1    0    0  503  504 -0.00000000000E+00 -0.00000000000E+00 -0.50054884055E+03  0.50054884055E+03  0.00000000000E+00 0. -1.
         25    2    1    2    0    0  0.59768903625E+02 -0.37410994842E+02 -0.35670937062E+02  0.14791971689E+03  0.12504368244E+03 0.  0.
         25    2    1    2    0    0 -0.59768903625E+02  0.37410994842E+02 -0.39616609797E+03  0.42134092917E+03  0.12493477115E+03 0.  0.
          5    1    3    3  501    0  0.79842472700E+02 -0.47704597707E+02  0.13037809725E+02  0.94035225164E+02  0.47000000000E+01 0. -1.
         -5    1    3    3    0  501 -0.20073569075E+02  0.10293602865E+02 -0.48708746787E+02  0.53884491729E+02  0.47000000000E+01 0. -1.
          5    1    4    4  502    0 -0.20016807283E+02  0.75370009309E+02 -0.15063397276E+03  0.16968793306E+03  0.47000000000E+01 0.  1.
         -5    1    4    4    0  502 -0.39752096341E+02 -0.37959014467E+02 -0.24553212521E+03  0.25165299611E+03  0.47000000000E+01 0.  1.
<mgrwt>
<rscale>  0 0.37091031E+03</rscale>
<asrwt>0</asrwt>
<pdfrwt beam="1">  1       21 0.10571047E-01 0.37091031E+03</pdfrwt>
<pdfrwt beam="2">  1       21 0.77007514E-01 0.37091031E+03</pdfrwt>
<totfact> 0.10436920E+05</totfact>
</mgrwt>
</event>
<event>
 8    1  0.9529436E-006  0.3602349E+03  0.7546771E-02  0.1058491E+00
         21   -1    0    0  504  503  0.00000000000E+00  0.00000000000E+00  0.19822506029E+03  0.19822506029E+03  0.00000000000E+00 0.  1.
         21   -1    0    0  503  504 -0.00000000000E+00 -0.00000000000E+00 -0.16366395310E+03  0.16366395310E+03  0.00000000000E+00 0.  1.
         25    2    1    2    0    0 -0.47543306619E+01 -0.12250610644E+03  0.59749100020E+02  0.18500252730E+03  0.12500252148E+03 0.  0.
         25    2    1    2    0    0  0.47543306619E+01  0.12250610644E+03 -0.25187992832E+02  0.17688648608E+03  0.12499617674E+03 0.  0.
          5    1    3    3  501    0 -0.23992056900E+02  0.75858624665E+01 -0.18791808999E+02  0.31755097057E+02  0.47000000000E+01 0. -1.
         -5    1    3    3    0  501  0.19237726238E+02 -0.13009196891E+03  0.78540909019E+02  0.15324743024E+03  0.47000000000E+01 0. -1.
          5    1    4    4  502    0  0.54129569663E+02  0.11181393544E+03 -0.19375816135E+02  0.12581684593E+03  0.47000000000E+01 0.  1.
         -5    1    4    4    0  502 -0.49375239001E+02  0.10692171008E+02 -0.58121766966E+01  0.51069640151E+02  0.47000000000E+01 0.  1.
<mgrwt>
<rscale>  0 0.36023491E+03</rscale>
<asrwt>0</asrwt>
<pdfrwt beam="1">  1       21 0.30496163E-01 0.36023491E+03</pdfrwt>
<pdfrwt beam="2">  1       21 0.25179070E-01 0.36023491E+03</pdfrwt>
<totfact> 0.14738279E+05</totfact>
</mgrwt>
</event>
<event>
 8    1  0.9529436E-006  0.2651835E+03  0.7546771E-02  0.1104068E+00
         21   -1    0    0  504  503  0.00000000000E+00  0.00000000000E+00  0.25988466019E+03  0.25988466019E+03  0.00000000000E+00 0. -1.
         21   -1    0    0  503  504 -0.00000000000E+00 -0.00000000000E+00 -0.67647606620E+02  0.67647606620E+02  0.00000000000E+00 0. -1.
         25    2    1    2    0    0 -0.30777341957E+02  0.12726498419E+02  0.60191242306E+02  0.14267898644E+03  0.12500039593E+03 0.  0.
         25    2    1    2    0    0  0.30777341957E+02 -0.12726498419E+02  0.13204581126E+03  0.18485328037E+03  0.12500172179E+03 0.  0.
          5    1    3    3  501    0  0.20277275711E+02 -0.27786352937E+02 -0.19343792819E+02  0.39743196152E+02  0.47000000000E+01 0.  1.
         -5    1    3    3    0  501 -0.51054617668E+02  0.40512851355E+02  0.79535035124E+02  0.10293579029E+03  0.47000000000E+01 0.  1.
          5    1    4    4  502    0  0.54665820770E+02  0.40822976476E+02  0.54088503465E+02  0.87192451370E+02  0.47000000000E+01 0.  1.
         -5    1    4    4    0  502 -0.23888478813E+02 -0.53549474895E+02  0.77957307798E+02  0.97660828998E+02  0.47000000000E+01 0.  1.
<mgrwt>
<rscale>  0 0.26518352E+03</rscale>
<asrwt>0</asrwt>
<pdfrwt beam="1">  1       21 0.39982255E-01 0.26518352E+03</pdfrwt>
<pdfrwt beam="2">  1       21 0.10407324E-01 0.26518352E+03</pdfrwt>
<totfact> 0.44910572E+05</totfact>
</mgrwt>
</event>
<event>
 8    1  0.9529436E-006  0.2694091E+03  0.7546771E-02  0.1101618E+00
         21   -1    0    0  504  503  0.00000000000E+00  0.00000000000E+00  0.84527881620E+02  0.84527881620E+02  0.00000000000E+00 0. -1.
         21   -1    0    0  503  504 -0.00000000000E+00 -0.00000000000E+00 -0.21466665034E+03  0.21466665034E+03  0.00000000000E+00 0. -1.
         25    2    1    2    0    0  0.24301125546E+02 -0.29791323639E+02 -0.29202069831E+02  0.13400567807E+03  0.12500677264E+03 0.  0.
         25    2    1    2    0    0 -0.24301125546E+02  0.29791323639E+02 -0.10093669888E+03  0.16518885388E+03  0.12498428941E+03 0.  0.
          5    1    3    3  501    0  0.41277718838E+02 -0.25159232963E+02  0.39704459021E+02  0.62732536549E+02  0.47000000000E+01 0.  1.
         -5    1    3    3    0  501 -0.16976593292E+02 -0.46320906754E+01 -0.68906528852E+02  0.71273141521E+02  0.47000000000E+01 0.  1.
          5    1    4    4  502    0 -0.47308368361E+02  0.38948618040E+02 -0.11916725093E+03  0.13408206539E+03  0.47000000000E+01 0. -1.
         -5    1    4    4    0  502  0.23007242815E+02 -0.91572944016E+01  0.18230552046E+02  0.31106788497E+02  0.47000000000E+01 0. -1.
<mgrwt>
<rscale>  0 0.26940911E+03</rscale>
<asrwt>0</asrwt>
<pdfrwt beam="1">  1       21 0.13004290E-01 0.26940911E+03</pdfrwt>
<pdfrwt beam="2">  1       21 0.33025638E-01 0.26940911E+03</pdfrwt>
<totfact> 0.44146170E+05</totfact>
</mgrwt>
</event>
<event>
 8    1  0.9529436E-006  0.2642876E+03  0.7546771E-02  0.1104594E+00
         21   -1    0    0  504  503  0.00000000000E+00  0.00000000000E+00  0.62785619199E+02  0.62785619199E+02  0.00000000000E+00 0. -1.
         21   -1    0    0  503  504 -0.00000000000E+00 -0.00000000000E+00 -0.27812085033E+03  0.27812085033E+03  0.00000000000E+00 0. -1.
         25    2    1    2    0    0  0.61425852972E+01  0.27833777165E+02 -0.66405686389E+02  0.14439219636E+03  0.12500776248E+03 0.  0.
         25    2    1    2    0    0 -0.61425852972E+01 -0.27833777165E+02 -0.14892954474E+03  0.19651427316E+03  0.12500159901E+03 0.  0.
          5    1    3    3  501    0  0.34007642428E+02 -0.35718067135E+02 -0.19714361750E+01  0.49581010719E+02  0.47000000000E+01 0.  1.
         -5    1    3    3    0  501 -0.27865057131E+02  0.63551844300E+02 -0.64434250214E+02  0.94811185645E+02  0.47000000000E+01 0.  1.
          5    1    4    4  502    0 -0.25650623753E+02  0.37886755837E+02 -0.19464110309E+02  0.49942991068E+02  0.47000000000E+01 0.  1.
         -5    1    4    4    0  502  0.19508038455E+02 -0.65720533001E+02 -0.12946543443E+03  0.14657128209E+03  0.47000000000E+01 0.  1.
<mgrwt>
<rscale>  0 0.26428764E+03</rscale>
<asrwt>0</asrwt>
<pdfrwt beam="1">  1       21 0.96593261E-02 0.26428764E+03</pdfrwt>
<pdfrwt beam="2">  1       21 0.42787823E-01 0.26428764E+03</pdfrwt>
<totfact> 0.44649600E+05</totfact>
</mgrwt>
</event>
<event>
 8    1  0.9529436E-006  0.3256513E+03  0.7546771E-02  0.1073077E+00
         21   -1    0    0  504  503  0.00000000000E+00  0.00000000000E+00  0.44079362896E+02  0.44079362896E+02  0.00000000000E+00 0.  1.
         21   -1    0    0  503  504 -0.00000000000E+00 -0.00000000000E+00 -0.60146479492E+03  0.60146479492E+03  0.00000000000E+00 0.  1.
         25    2    1    2    0    0  0.50175069971E+02 -0.72337665422E+02 -0.16756746107E+03  0.22681986952E+03  0.12497249183E+03 0.  0.
         25    2    1    2    0    0 -0.50175069971E+02  0.72337665422E+02 -0.38981797096E+03  0.41872428830E+03  0.12498681389E+03 0.  0.
          5    1    3    3  501    0 -0.31752203833E+02 -0.21722948052E+02 -0.10489109172E+03  0.11182271702E+03  0.47000000000E+01 0. -1.
         -5    1    3    3    0  501  0.81927273804E+02 -0.50614717370E+02 -0.62676369352E+02  0.11499715250E+03  0.47000000000E+01 0. -1.
          5    1    4    4  502    0 -0.12533157841E+02 -0.43499445944E+01  0.48518789555E+01  0.14887336660E+02  0.47000000000E+01 0. -1.
         -5    1    4    4    0  502 -0.37641912130E+02  0.76687610016E+02 -0.39466984992E+03  0.40383695164E+03  0.47000000000E+01 0. -1.
<mgrwt>
<rscale>  0 0.32565125E+03</rscale>
<asrwt>0</asrwt>
<pdfrwt beam="1">  1       21 0.67814411E-02 0.32565125E+03</pdfrwt>
<pdfrwt beam="2">  1       21 0.92533036E-01 0.32565125E+03</pdfrwt>
<totfact> 0.15111790E+05</totfact>
</mgrwt>
</event>
<event>
 8    1  0.9529436E-006  0.2587070E+03  0.7546771E-02  0.1107923E+00
         21   -1    0    0  504  503  0.00000000000E+00  0.00000000000E+00  0.20702525565E+03  0.20702525565E+03  0.00000000000E+00 0. -1.
         21   -1    0    0  503  504 -0.00000000000E+00 -0.00000000000E+00 -0.80822671061E+02  0.80822671061E+02  0.00000000000E+00 0. -1.
         25    2    1    2    0    0 -0.28330078218E+02  0.69648318868E+01  0.45292715563E+02  0.13611703157E+03  0.12500125594E+03 0.  0.
         25    2    1    2    0    0  0.28330078218E+02 -0.69648318868E+01  0.80909869026E+02  0.15173089514E+03  0.12499902167E+03 0.  0.
          5    1    3    3  501    0 -0.90114433471E+01 -0.47171294883E+02 -0.17061589656E+02  0.51181295546E+02  0.47000000000E+01 0.  1.
         -5    1    3    3    0  501 -0.19318634870E+02  0.54136126770E+02  0.62354305219E+02  0.84935736026E+02  0.47000000000E+01 0.  1.
          5    1    4    4  502    0  0.31739739148E+02  0.52964505070E+02  0.64302935664E+02  0.89272657480E+02  0.47000000000E+01 0. -1.
         -5    1    4    4    0  502 -0.34096609301E+01 -0.59929336957E+02  0.16606933362E+02  0.62458237659E+02  0.47000000000E+01 0. -1.
<mgrwt>
<rscale>  0 0.25870705E+03</rscale>
<asrwt>0</asrwt>
<pdfrwt beam="1">  1       21 0.31850039E-01 0.25870705E+03</pdfrwt>
<pdfrwt beam="2">  1       21 0.12434257E-01 0.25870705E+03</pdfrwt>
<totfact> 0.51538611E+05</totfact>
</mgrwt>
</event>
<event>
 8    1  0.9529436E-006  0.2765372E+03  0.7546771E-02  0.1097595E+00
         21   -1    0    0  504  503  0.00000000000E+00  0.00000000000E+00  0.76826888983E+03  0.76826888983E+03  0.00000000000E+00 0. -1.
         21   -1    0    0  503  504 -0.00000000000E+00 -0.00000000000E+00 -0.24884786366E+02  0.24884786366E+02  0.00000000000E+00 0. -1.
         25    2    1    2    0    0 -0.31925356585E+02 -0.18894784273E+02  0.50366427024E+03  0.52026749494E+03  0.12499731159E+03 0.  0.
         25    2    1    2    0    0  0.31925356585E+02  0.18894784273E+02  0.23971983323E+03  0.27288618126E+03  0.12500011286E+03 0.  0.
          5    1    3    3  501    0 -0.74629856224E+01 -0.50939218867E+02  0.45011840923E+03  0.45307744647E+03  0.47000000000E+01 0. -1.
         -5    1    3    3    0  501 -0.24462370962E+02  0.32044434595E+02  0.53545861014E+02  0.67190048469E+02  0.47000000000E+01 0. -1.
          5    1    4    4  502    0 -0.12244847351E+02  0.42366599290E+02  0.22117365995E+02  0.49559387614E+02  0.47000000000E+01 0. -1.
         -5    1    4    4    0  502  0.44170203935E+02 -0.23471815018E+02  0.21760246723E+03  0.22332679365E+03  0.47000000000E+01 0. -1.
<mgrwt>
<rscale>  0 0.27653721E+03</rscale>
<asrwt>0</asrwt>
<pdfrwt beam="1">  1       21 0.11819520E+00 0.27653721E+03</pdfrwt>
<pdfrwt beam="2">  1       21 0.38284293E-02 0.27653721E+03</pdfrwt>
<totfact> 0.22514496E+05</totfact>
</mgrwt>
</event>
<event>
 8    1  0.9529436E-006  0.2862944E+03  0.7546771E-02  0.1092300E+00
         21   -1    0    0  504  503  0.00000000000E+00  0.00000000000E+00  0.90431015828E+02  0.90431015828E+02  0.00000000000E+00 0.  1.
         21   -1    0    0  503  504 -0.00000000000E+00 -0.00000000000E+00 -0.22659395575E+03  0.22659395575E+03  0.00000000000E+00 0.  1.
         25    2    1    2    0    0 -0.60143212694E+02 -0.33866540199E+02 -0.79311983545E+02  0.16333799521E+03  0.12499904546E+03 0.  0.
         25    2    1    2    0    0  0.60143212694E+02  0.33866540199E+02 -0.56850956378E+02  0.15368697637E+03  0.12499402741E+03 0.  0.
          5    1    3    3  501    0 -0.84517236204E+02  0.13109048266E+02 -0.67131121086E+02  0.10882870844E+03  0.47000000000E+01 0. -1.
         -5    1    3    3    0  501  0.24374023510E+02 -0.46975588465E+02 -0.12180862459E+02  0.54509286768E+02  0.47000000000E+01 0. -1.
          5    1    4    4  502    0 -0.23423924986E+02  0.27586460774E+01 -0.59685835325E+02  0.64348887546E+02  0.47000000000E+01 0. -1.
         -5    1    4    4    0  502  0.83567137680E+02  0.31107894121E+02  0.28348789472E+01  0.89338088827E+02  0.47000000000E+01 0. -1.
<mgrwt>
<rscale>  0 0.28629441E+03</rscale>
<asrwt>0</asrwt>
<pdfrwt beam="1">  1       21 0.13912464E-01 0.28629441E+03</pdfrwt>
<pdfrwt beam="2">  1       21 0.34860609E-01 0.28629441E+03</pdfrwt>
<totfact> 0.34940060E+05</totfact>
</mgrwt>
</event>
<event>
 8    1  0.9529436E-006  0.2811917E+03  0.7546771E-02  0.1095040E+00
         21   -1    0    0  504  503  0.00000000000E+00  0.00000000000E+00  0.32609750148E+02  0.32609750148E+02  0.00000000000E+00 0. -1.
         21   -1    0    0  503  504 -0.00000000000E+00 -0.00000000000E+00 -0.60617420973E+03  0.60617420973E+03  0.00000000000E+00 0. -1.
         25    2    1    2    0    0 -0.60444598660E+02  0.13259763765E+02 -0.32682177964E+03  0.35534050377E+03  0.12500010853E+03 0.  0.
         25    2    1    2    0    0  0.60444598660E+02 -0.13259763765E+02 -0.24674267994E+03  0.28344345610E+03  0.12501548648E+03 0.  0.
          5    1    3    3  501    0 -0.15655305906E+02 -0.43742992253E+02 -0.47045934503E+02  0.66286860897E+02  0.47000000000E+01 0. -1.
         -5    1    3    3    0  501 -0.44789292754E+02  0.57002756018E+02 -0.27977584514E+03  0.28905364288E+03  0.47000000000E+01 0. -1.
          5    1    4    4  502    0  0.72340970852E+02 -0.40690122589E+02 -0.23775679179E+03  0.25187156287E+03  0.47000000000E+01 0. -1.
         -5    1    4    4    0  502 -0.11896372192E+02  0.27430358825E+02 -0.89858881549E+01  0.31571893236E+02  0.47000000000E+01 0. -1.
<mgrwt>
<rscale>  0 0.28119168E+03</rscale>
<asrwt>0</asrwt>
<pdfrwt beam="1">  1       21 0.50168854E-02 0.28119168E+03</pdfrwt>
<pdfrwt beam="2">  1       21 0.93257557E-01 0.28119168E+03</pdfrwt>
<totfact> 0.25231010E+05</totfact>
</mgrwt>
</event>
<event>
 8    1  0.9529436E-006  0.2812738E+03  0.7546771E-02  0.1094995E+00
         21   -1    0    0  504  503  0.00000000000E+00  0.00000000000E+00  0.13228082652E+03  0.13228082652E+03  0.00000000000E+00 0. -1.
         21   -1    0    0  503  504 -0.00000000000E+00 -0.00000000000E+00 -0.14952083517E+03  0.14952083517E+03  0.00000000000E+00 0. -1.
         25    2    1    2    0    0  0.62242315018E+01 -0.20189100126E+02 -0.69663406368E+02  0.14462162311E+03  0.12496432636E+03 0.  0.
         25    2    1    2    0    0 -0.62242315018E+01  0.20189100126E+02  0.52423397713E+02  0.13718003858E+03  0.12499523805E+03 0.  0.
          5    1    3    3  501    0 -0.85065147507E+01 -0.71892215824E+02 -0.35661385380E+02  0.80837342216E+02  0.47000000000E+01 0. -1.
         -5    1    3    3    0  501  0.14730746252E+02  0.51703115698E+02 -0.34002020989E+02  0.63784280895E+02  0.47000000000E+01 0. -1.
          5    1    4    4  502    0  0.36070688490E+01 -0.33286436118E+02  0.71723925120E+02  0.79293185140E+02  0.47000000000E+01 0.  1.
         -5    1    4    4    0  502 -0.98313003508E+01  0.53475536244E+02 -0.19300527407E+02  0.57886853442E+02  0.47000000000E+01 0.  1.
<mgrwt>
<rscale>  0 0.28127381E+03</rscale>
<asrwt>0</asrwt>
<pdfrwt beam="1">  1       21 0.20350896E-01 0.28127381E+03</pdfrwt>
<pdfrwt beam="2">  1       21 0.23003206E-01 0.28127381E+03</pdfrwt>
<totfact> 0.38915458E+05</totfact>
</mgrwt>
</event>
<event>
 8    1  0.9529436E-006  0.2835086E+03  0.7546771E-02  0.1093788E+00
         21   -1    0    0  504  503  0.00000000000E+00  0.00000000000E+00  0.49462317032E+03  0.49462317032E+03  0.00000000000E+00 0. -1.
         21   -1    0    0  503  504 -0.00000000000E+00 -0.00000000000E+00 -0.40625431666E+02  0.40625431666E+02  0.00000000000E+00 0. -1.
         25    2    1    2    0    0 -0.47830514508E+02 -0.29671807737E+02  0.29511102699E+03  0.32539666360E+03  0.12499718454E+03 0.  0.
         25    2    1    2    0    0  0.47830514508E+02  0.29671807737E+02  0.15888671167E+03  0.20985193839E+03  0.12499869842E+03 0.  0.
          5    1    3    3  501    0  0.24648809521E+02 -0.27429517446E+02  0.22921132234E+02  0.43673911446E+02  0.47000000000E+01 0. -1.
         -5    1    3    3    0  501 -0.72479324030E+02 -0.22422902917E+01  0.27218989475E+03  0.28172275216E+03  0.47000000000E+01 0. -1.
          5    1    4    4  502    0 -0.31429002128E+02 -0.24484772177E+02  0.57910691604E+02  0.70448736293E+02  0.47000000000E+01 0. -1.
         -5    1    4    4    0  502  0.79259516636E+02  0.54156579914E+02  0.10097602007E+03  0.13940320210E+03  0.47000000000E+01 0. -1.
<mgrwt>
<rscale>  0 0.28350859E+03</rscale>
<asrwt>0</asrwt>
<pdfrwt beam="1">  1       21 0.76095868E-01 0.28350859E+03</pdfrwt>
<pdfrwt beam="2">  1       21 0.62500668E-02 0.28350859E+03</pdfrwt>
<totfact> 0.27632954E+05</totfact>
</mgrwt>
</event>
<event>
 8    1  0.9529436E-006  0.2690831E+03  0.7546771E-02  0.1101806E+00
         21   -1    0    0  504  503  0.00000000000E+00  0.00000000000E+00  0.52660612233E+03  0.52660612233E+03  0.00000000000E+00 0.  1.
         21   -1    0    0  503  504 -0.00000000000E+00 -0.00000000000E+00 -0.34373750271E+02  0.34373750271E+02  0.00000000000E+00 0.  1.
         25    2    1    2    0    0  0.83726788780E+01 -0.48732677421E+02  0.25778430921E+03  0.29072769426E+03  0.12499946614E+03 0.  0.
         25    2    1    2    0    0 -0.83726788780E+01  0.48732677421E+02  0.23444806284E+03  0.27025217833E+03  0.12500148048E+03 0.  0.
          5    1    3    3  501    0  0.11511247876E+02 -0.27833878187E+02  0.26587413316E+03  0.26761610244E+03  0.47000000000E+01 0.  1.
         -5    1    3    3    0  501 -0.31385689979E+01 -0.20898799234E+02 -0.80898239528E+01  0.23111591818E+02  0.47000000000E+01 0.  1.
          5    1    4    4  502    0 -0.37982336566E+02 -0.16225011383E+02  0.24053797766E+02  0.48026909877E+02  0.47000000000E+01 0.  1.
         -5    1    4    4    0  502  0.29609657688E+02  0.64957688804E+02  0.21039426508E+03  0.22222526846E+03  0.47000000000E+01 0.  1.
<mgrwt>
<rscale>  0 0.26908309E+03</rscale>
<asrwt>0</asrwt>
<pdfrwt beam="1">  1       21 0.81016320E-01 0.26908309E+03</pdfrwt>
<pdfrwt beam="2">  1       21 0.52882697E-02 0.26908309E+03</pdfrwt>
<totfact> 0.32053067E+05</totfact>
</mgrwt>
</event>
<event>
 8    1  0.9529436E-006  0.3433463E+03  0.7546771E-02  0.1065380E+00
         21   -1    0    0  504  503  0.00000000000E+00  0.00000000000E+00  0.56651027455E+03  0.56651027455E+03  0.00000000000E+00 0.  1.
         21   -1    0    0  503  504 -0.00000000000E+00 -0.00000000000E+00 -0.52023189649E+02  0.52023189649E+02  0.00000000000E+00 0.  1.
         25    2    1    2    0    0 -0.73484641103E+02 -0.22049592757E+02  0.96601235238E+02  0.17565759204E+03  0.12505044572E+03 0.  0.
         25    2    1    2    0    0  0.73484641103E+02  0.22049592757E+02  0.41788584966E+03  0.44287587215E+03  0.12499711104E+03 0.  0.
          5    1    3    3  501    0 -0.46107477380E+02 -0.34048055868E+02  0.12282200848E+03  0.13561897119E+03  0.47000000000E+01 0. -1.
         -5    1    3    3    0  501 -0.27377163722E+02  0.11998463111E+02 -0.26220773244E+02  0.40038620855E+02  0.47000000000E+01 0. -1.
          5    1    4    4  502    0  0.92664342090E+02  0.55067460934E+02  0.29522323283E+03  0.31432141631E+03  0.47000000000E+01 0. -1.
         -5    1    4    4    0  502 -0.19179700988E+02 -0.33017868177E+02  0.12266261683E+03  0.12855445584E+03  0.47000000000E+01 0. -1.
<mgrwt>
<rscale>  0 0.34334631E+03</rscale>
<asrwt>0</asrwt>
<pdfrwt beam="1">  1       21 0.87155423E-01 0.34334631E+03</pdfrwt>
<pdfrwt beam="2">  1       21 0.80035680E-02 0.34334631E+03</pdfrwt>
<totfact> 0.12953651E+05</totfact>
</mgrwt>
</event>
<event>
 8    1  0.9529436E-006  0.2552119E+03  0.7546771E-02  0.1110055E+00
         21   -1    0    0  504  503  0.00000000000E+00  0.00000000000E+00  0.10236703758E+04  0.10236703758E+04  0.00000000000E+00 0.  1.
         21   -1    0    0  503  504 -0.00000000000E+00 -0.00000000000E+00 -0.15906757466E+02  0.15906757466E+02  0.00000000000E+00 0.  1.
         25    2    1    2    0    0 -0.20364583887E+02  0.12154223905E+02  0.46385547412E+03  0.48098652194E+03  0.12499476781E+03 0.  0.
         25    2    1    2    0    0  0.20364583887E+02 -0.12154223905E+02  0.54390814419E+03  0.55859061130E+03  0.12499984113E+03 0.  0.
          5    1    3    3  501    0 -0.38662212297E+02  0.35101131952E+02  0.43934102895E+03  0.44245845663E+03  0.47000000000E+01 0. -1.
         -5    1    3    3    0  501  0.18297628410E+02 -0.22946908047E+02  0.24514445163E+02  0.38528065303E+02  0.47000000000E+01 0. -1.
          5    1    4    4  502    0  0.50334010547E+02 -0.38974855094E+02  0.15570760986E+03  0.16828399126E+03  0.47000000000E+01 0. -1.
         -5    1    4    4    0  502 -0.29969426660E+02  0.26820631189E+02  0.38820053433E+03  0.39030662003E+03  0.47000000000E+01 0. -1.
<mgrwt>
<rscale>  0 0.25521188E+03</rscale>
<asrwt>0</asrwt>
<pdfrwt beam="1">  1       21 0.15748770E+00 0.25521188E+03</pdfrwt>
<pdfrwt beam="2">  1       21 0.24471943E-02 0.25521188E+03</pdfrwt>
<totfact> 0.22703792E+05</totfact>
</mgrwt>
</event>
<event>
 8    1  0.9529436E-006  0.3599492E+03  0.7546771E-02  0.1058604E+00
         21   -1    0    0  504  503  0.00000000000E+00  0.00000000000E+00  0.44385607084E+03  0.44385607084E+03  0.00000000000E+00 0.  1.
         21   -1    0    0  503  504 -0.00000000000E+00 -0.00000000000E+00 -0.72976040222E+02  0.72976040222E+02  0.00000000000E+00 0.  1.
         25    2    1    2    0    0  0.54867509188E+02  0.11716217991E+03  0.19337649575E+03  0.26411026240E+03  0.12498936607E+03 0.  0.
         25    2    1    2    0    0 -0.54867509188E+02 -0.11716217991E+03  0.17750353487E+03  0.25272184866E+03  0.12499363157E+03 0.  0.
          5    1    3    3  501    0  0.90147375490E+02  0.92185121206E+02  0.17372186361E+03  0.21639321102E+03  0.47000000000E+01 0. -1.
         -5    1    3    3    0  501 -0.35279866302E+02  0.24977058707E+02  0.19654632134E+02  0.47717051378E+02  0.47000000000E+01 0. -1.
          5    1    4    4  502    0 -0.34460560167E+02 -0.85554644762E+02  0.19125830443E+03  0.21238869193E+03  0.47000000000E+01 0.  1.
         -5    1    4    4    0  502 -0.20406949021E+02 -0.31607535151E+02 -0.13754769553E+02  0.40333156734E+02  0.47000000000E+01 0.  1.
<mgrwt>
<rscale>  0 0.35994921E+03</rscale>
<asrwt>0</asrwt>
<pdfrwt beam="1">  1       21 0.68285548E-01 0.35994921E+03</pdfrwt>
<pdfrwt beam="2">  1       21 0.11227083E-01 0.35994921E+03</pdfrwt>
<totfact> 0.12310599E+05</totfact>
</mgrwt>
</event>
<event>
 8    1  0.9529436E-006  0.2639353E+03  0.7546771E-02  0.1104802E+00
         21   -1    0    0  504  503  0.00000000000E+00  0.00000000000E+00  0.22348980490E+02  0.22348980490E+02  0.00000000000E+00 0. -1.
         21   -1    0    0  503  504 -0.00000000000E+00 -0.00000000000E+00 -0.77925060604E+03  0.77925060604E+03  0.00000000000E+00 0. -1.
         25    2    1    2    0    0 -0.22852410220E+01 -0.81774467106E+00 -0.50673371685E+03  0.52193165039E+03  0.12501078693E+03 0.  0.
         25    2    1    2    0    0  0.22852410220E+01  0.81774467106E+00 -0.25016790870E+03  0.27966793615E+03  0.12499712369E+03 0.  0.
          5    1    3    3  501    0 -0.25224232807E+02 -0.51060845820E+02 -0.37003760688E+03  0.37442408095E+03  0.47000000000E+01 0.  1.
         -5    1    3    3    0  501  0.22938991785E+02  0.50243101149E+02 -0.13669610998E+03  0.14750756943E+03  0.47000000000E+01 0.  1.
          5    1    4    4  502    0  0.54496900995E+02 -0.31806236873E+02 -0.12601252447E+03  0.14100636598E+03  0.47000000000E+01 0.  1.
         -5    1    4    4    0  502 -0.52211659973E+02  0.32623981544E+02 -0.12415538423E+03  0.13866157017E+03  0.47000000000E+01 0.  1.
<mgrwt>
<rscale>  0 0.26393527E+03</rscale>
<asrwt>0</asrwt>
<pdfrwt beam="1">  1       21 0.34383047E-02 0.26393527E+03</pdfrwt>
<pdfrwt beam="2">  1       21 0.11988471E+00 0.26393527E+03</pdfrwt>
<totfact> 0.26122330E+05</totfact>
</mgrwt>
</event>
<event>
 8    1  0.9529436E-006  0.3958809E+03  0.7546771E-02  0.1045215E+00
         21   -1    0    0  504  503  0.00000000000E+00  0.00000000000E+00  0.33901486985E+03  0.33901486985E+03  0.00000000000E+00 0. -1.
         21   -1    0    0  503  504 -0.00000000000E+00 -0.00000000000E+00 -0.11557140871E+03  0.11557140871E+03  0.00000000000E+00 0. -1.
         25    2    1    2    0    0  0.25388579845E+02 -0.15132216119E+03  0.10766197040E+03  0.22529813751E+03  0.12500069777E+03 0.  0.
         25    2    1    2    0    0 -0.25388579845E+02  0.15132216119E+03  0.11578149075E+03  0.22928814105E+03  0.12499888629E+03 0.  0.
          5    1    3    3  501    0 -0.97860020537E+01 -0.30051653481E+01 -0.22265268989E+02  0.24952536106E+02  0.47000000000E+01 0. -1.
         -5    1    3    3    0  501  0.35174581899E+02 -0.14831699584E+03  0.12992723939E+03  0.20034560140E+03  0.47000000000E+01 0. -1.
          5    1    4    4  502    0  0.46582462400E+02  0.43229015390E+02  0.61172153904E+02  0.88333436410E+02  0.47000000000E+01 0. -1.
         -5    1    4    4    0  502 -0.71971042245E+02  0.10809314580E+03  0.54609336845E+02  0.14095470464E+03  0.47000000000E+01 0. -1.
<mgrwt>
<rscale>  0 0.39588092E+03</rscale>
<asrwt>0</asrwt>
<pdfrwt beam="1">  1       21 0.52156134E-01 0.39588092E+03</pdfrwt>
<pdfrwt beam="2">  1       21 0.17780217E-01 0.39588092E+03</pdfrwt>
<totfact> 0.94352590E+04</totfact>
</mgrwt>
</event>
<event>
 8    1  0.9529436E-006  0.3513277E+03  0.7546771E-02  0.1062071E+00
         21   -1    0    0  504  503  0.00000000000E+00  0.00000000000E+00  0.27534549366E+03  0.27534549366E+03  0.00000000000E+00 0.  1.
         21   -1    0    0  503  504 -0.00000000000E+00 -0.00000000000E+00 -0.11206932469E+03  0.11206932469E+03  0.00000000000E+00 0.  1.
         25    2    1    2    0    0  0.22455918382E+02 -0.88427417438E+02  0.17330046414E+03  0.23234069195E+03  0.12500187934E+03 0.  0.
         25    2    1    2    0    0 -0.22455918382E+02  0.88427417438E+02 -0.10024295168E+02  0.15507412640E+03  0.12499528695E+03 0.  0.
          5    1    3    3  501    0 -0.24467964895E+02  0.21837344371E+02  0.52795365080E+02  0.62329699896E+02  0.47000000000E+01 0.  1.
         -5    1    3    3    0  501  0.46923883277E+02 -0.11026476181E+03  0.12050509906E+03  0.17001099205E+03  0.47000000000E+01 0.  1.
          5    1    4    4  502    0  0.25707457118E+02  0.61053135275E+01  0.39305077309E+02  0.47593353601E+02  0.47000000000E+01 0. -1.
         -5    1    4    4    0  502 -0.48163375500E+02  0.82322103911E+02 -0.49329372477E+02  0.10748077280E+03  0.47000000000E+01 0. -1.
<mgrwt>
<rscale>  0 0.35132767E+03</rscale>
<asrwt>0</asrwt>
<pdfrwt beam="1">  1       21 0.42360845E-01 0.35132767E+03</pdfrwt>
<pdfrwt beam="2">  1       21 0.17241435E-01 0.35132767E+03</pdfrwt>
<totfact> 0.15614781E+05</totfact>
</mgrwt>
</event>
<event>
 8    1  0.9529436E-006  0.2649367E+03  0.7546771E-02  0.1104213E+00
         21   -1    0    0  504  503  0.00000000000E+00  0.00000000000E+00  0.66009421012E+01  0.66009421012E+01  0.00000000000E+00 0.  1.
         21   -1    0    0  503  504 -0.00000000000E+00 -0.00000000000E+00 -0.26583867718E+04  0.26583867718E+04  0.00000000000E+00 0.  1.
         25    2    1    2    0    0  0.21328009554E+02  0.61671204870E+01 -0.17067777656E+04  0.17114935111E+04  0.12500712110E+03 0.  0.
         25    2    1    2    0    0 -0.21328009554E+02 -0.61671204870E+01 -0.94500806413E+03  0.95349420274E+03  0.12497214101E+03 0.  0.
          5    1    3    3  501    0 -0.21826046389E+02 -0.29158363204E+02 -0.13370126621E+04  0.13375169289E+04  0.47000000000E+01 0. -1.
         -5    1    3    3    0  501  0.43154055943E+02  0.35325483691E+02 -0.36976510344E+03  0.37397658224E+03  0.47000000000E+01 0. -1.
          5    1    4    4  502    0 -0.10262829246E+02  0.58713182660E+02 -0.38553306262E+03  0.39014150748E+03  0.47000000000E+01 0. -1.
         -5    1    4    4    0  502 -0.11065180307E+02 -0.64880303147E+02 -0.55947500151E+03  0.56335269526E+03  0.47000000000E+01 0. -1.
<mgrwt>
<rscale>  0 0.26493665E+03</rscale>
<asrwt>0</asrwt>
<pdfrwt beam="1">  1       21 0.10155272E-02 0.26493665E+03</pdfrwt>
<pdfrwt beam="2">  1       21 0.40898353E+00 0.26493665E+03</pdfrwt>
<totfact> 0.26043715E+04</totfact>
</mgrwt>
</event>
<event>
 8    1  0.9529436E-006  0.2780228E+03  0.7546771E-02  0.1096774E+00
         21   -1    0    0  504  503  0.00000000000E+00  0.00000000000E+00  0.11782340881E+03  0.11782340881E+03  0.00000000000E+00 0. -1.
         21   -1    0    0  503  504 -0.00000000000E+00 -0.00000000000E+00 -0.16400957339E+03  0.16400957339E+03  0.00000000000E+00 0. -1.
         25    2    1    2    0    0 -0.55376670505E+02 -0.16948234621E+02 -0.42958753623E+01  0.13783110181E+03  0.12500055916E+03 0.  0.
         25    2    1    2    0    0  0.55376670505E+02  0.16948234621E+02 -0.41890289213E+02  0.14400188039E+03  0.12501170718E+03 0.  0.
          5    1    3    3  501    0 -0.80548793400E+02  0.10852482152E+01  0.34680651223E+02  0.87830082836E+02  0.47000000000E+01 0.  1.
         -5    1    3    3    0  501  0.25172122894E+02 -0.18033482836E+02 -0.38976526585E+02  0.50001018978E+02  0.47000000000E+01 0.  1.
          5    1    4    4  502    0  0.18485005113E+02  0.45180861065E+02 -0.72964825120E+02  0.87914511461E+02  0.47000000000E+01 0. -1.
         -5    1    4    4    0  502  0.36891665392E+02 -0.28232626445E+02  0.31074535907E+02  0.56087368927E+02  0.47000000000E+01 0. -1.
<mgrwt>
<rscale>  0 0.27802278E+03</rscale>
<asrwt>0</asrwt>
<pdfrwt beam="1">  1       21 0.18126678E-01 0.27802278E+03</pdfrwt>
<pdfrwt beam="2">  1       21 0.25232242E-01 0.27802278E+03</pdfrwt>
<totfact> 0.40517881E+05</totfact>
</mgrwt>
</event>
<event>
 8    1  0.9529436E-006  0.2959207E+03  0.7546771E-02  0.1087298E+00
         21   -1    0    0  504  503  0.00000000000E+00  0.00000000000E+00  0.12075841416E+03  0.12075841416E+03  0.00000000000E+00 0. -1.
         21   -1    0    0  503  504 -0.00000000000E+00 -0.00000000000E+00 -0.18128978438E+03  0.18128978438E+03  0.00000000000E+00 0. -1.
         25    2    1    2    0    0  0.31578114350E+02  0.40612077205E+02 -0.91696352159E+02  0.16333832056E+03  0.12499867137E+03 0.  0.
         25    2    1    2    0    0 -0.31578114350E+02 -0.40612077205E+02  0.31164981944E+02  0.13870987798E+03  0.12499062376E+03 0.  0.
          5    1    3    3  501    0  0.73663913384E+02  0.48403489585E+02 -0.78971308311E+02  0.11843912983E+03  0.47000000000E+01 0.  1.
         -5    1    3    3    0  501 -0.42085799034E+02 -0.77914123805E+01 -0.12725043848E+02  0.44899190729E+02  0.47000000000E+01 0.  1.
          5    1    4    4  502    0 -0.24785250334E+02  0.18680902807E+02  0.63379391808E+02  0.70727095725E+02  0.47000000000E+01 0.  1.
         -5    1    4    4    0  502 -0.67928640162E+01 -0.59292980012E+02 -0.32214409863E+02  0.67982782255E+02  0.47000000000E+01 0.  1.
<mgrwt>
<rscale>  0 0.29592071E+03</rscale>
<asrwt>0</asrwt>
<pdfrwt beam="1">  1       21 0.18578218E-01 0.29592071E+03</pdfrwt>
<pdfrwt beam="2">  1       21 0.27890736E-01 0.29592071E+03</pdfrwt>
<totfact> 0.31757397E+05</totfact>
</mgrwt>
</event>
<event>
 8    1  0.9529436E-006  0.3950504E+03  0.7546771E-02  0.1045507E+00
         21   -1    0    0  504  503  0.00000000000E+00  0.00000000000E+00  0.10287312835E+03  0.10287312835E+03  0.00000000000E+00 0.  1.
         21   -1    0    0  503  504 -0.00000000000E+00 -0.00000000000E+00 -0.37926536260E+03  0.37926536260E+03  0.00000000000E+00 0.  1.
         25    2    1    2    0    0 -0.89611003371E+02  0.91092135649E+02 -0.35625794442E+02  0.18226953000E+03  0.12500030094E+03 0.  0.
         25    2    1    2    0    0  0.89611003371E+02 -0.91092135649E+02 -0.24076643981E+03  0.29986896095E+03  0.12500002440E+03 0.  0.
          5    1    3    3  501    0 -0.11954833501E+03  0.63259052875E+02 -0.39391316774E+02  0.14095133206E+03  0.47000000000E+01 0. -1.
         -5    1    3    3    0  501  0.29937331636E+02  0.27833082775E+02  0.37655223317E+01  0.41318197936E+02  0.47000000000E+01 0. -1.
          5    1    4    4  502    0  0.32727890355E+02 -0.10897447134E+03 -0.12199798122E+03  0.16688962710E+03  0.47000000000E+01 0. -1.
         -5    1    4    4    0  502  0.56883113016E+02  0.17882335688E+02 -0.11876845859E+03  0.13297933386E+03  0.47000000000E+01 0. -1.
<mgrwt>
<rscale>  0 0.39505045E+03</rscale>
<asrwt>0</asrwt>
<pdfrwt beam="1">  1       21 0.15826635E-01 0.39505045E+03</pdfrwt>
<pdfrwt beam="2">  1       21 0.58348518E-01 0.39505045E+03</pdfrwt>
<totfact> 0.92103280E+04</totfact>
</mgrwt>
</event>
<event>
 8    1  0.9529436E-006  0.3744994E+03  0.7546771E-02  0.1052986E+00
         21   -1    0    0  504  503  0.00000000000E+00  0.00000000000E+00  0.51334009679E+03  0.51334009679E+03  0.00000000000E+00 0. -1.
         21   -1    0    0  503  504 -0.00000000000E+00 -0.00000000000E+00 -0.68302568423E+02  0.68302568423E+02  0.00000000000E+00 0. -1.
         25    2    1    2    0    0 -0.25318899942E+02 -0.12874341629E+03  0.29572923440E+03  0.34683799753E+03  0.12499961008E+03 0.  0.
         25    2    1    2    0    0  0.25318899942E+02  0.12874341629E+03  0.14930829396E+03  0.23480466768E+03  0.12499740551E+03 0.  0.
          5    1    3    3  501    0 -0.18537567407E+02 -0.16631153804E+02  0.19267333233E+03  0.19433306377E+03  0.47000000000E+01 0.  1.
         -5    1    3    3    0  501 -0.67813325351E+01 -0.11211226249E+03  0.10305590207E+03  0.15250493376E+03  0.47000000000E+01 0.  1.
          5    1    4    4  502    0  0.37525579260E+02  0.46689244327E+02 -0.42215910901E+01  0.60232603015E+02  0.47000000000E+01 0.  1.
         -5    1    4    4    0  502 -0.12206679318E+02  0.82054171962E+02  0.15352988505E+03  0.17457206466E+03  0.47000000000E+01 0.  1.
<mgrwt>
<rscale>  0 0.37449938E+03</rscale>
<asrwt>0</asrwt>
<pdfrwt beam="1">  1       21 0.78975397E-01 0.37449938E+03</pdfrwt>
<pdfrwt beam="2">  1       21 0.10508088E-01 0.37449938E+03</pdfrwt>
<totfact> 0.99496616E+04</totfact>
</mgrwt>
</event>
<event>
 8    1  0.9529436E-006  0.2737134E+03  0.7546771E-02  0.1099173E+00
         21   -1    0    0  504  503  0.00000000000E+00  0.00000000000E+00  0.98757942376E+03  0.98757942376E+03  0.00000000000E+00 0. -1.
         21   -1    0    0  503  504 -0.00000000000E+00 -0.00000000000E+00 -0.18965310534E+02  0.18965310534E+02  0.00000000000E+00 0. -1.
         25    2    1    2    0    0 -0.90545008348E+01 -0.37633970329E+02  0.63173350019E+03  0.64514369977E+03  0.12499951350E+03 0.  0.
         25    2    1    2    0    0  0.90545008348E+01  0.37633970329E+02  0.33688061303E+03  0.36140103452E+03  0.12499544236E+03 0.  0.
          5    1    3    3  501    0 -0.62006736803E+02 -0.20927517034E+02  0.21755611774E+03  0.22723457207E+03  0.47000000000E+01 0. -1.
         -5    1    3    3    0  501  0.52952235968E+02 -0.16706453295E+02  0.41417738246E+03  0.41790912770E+03  0.47000000000E+01 0. -1.
          5    1    4    4  502    0  0.36321518989E+02  0.27836211584E+02  0.34254508101E+02  0.57354762158E+02  0.47000000000E+01 0.  1.
         -5    1    4    4    0  502 -0.27267018154E+02  0.97977587451E+01  0.30262610493E+03  0.30404627236E+03  0.47000000000E+01 0.  1.
<mgrwt>
<rscale>  0 0.27371336E+03</rscale>
<asrwt>0</asrwt>
<pdfrwt beam="1">  1       21 0.15193526E+00 0.27371336E+03</pdfrwt>
<pdfrwt beam="2">  1       21 0.29177408E-02 0.27371336E+03</pdfrwt>
<totfact> 0.18571311E+05</totfact>
</mgrwt>
</event>
<event>
 8    1  0.9529436E-006  0.3999065E+03  0.7546771E-02  0.1043812E+00
         21   -1    0    0  504  503  0.00000000000E+00  0.00000000000E+00  0.26783599960E+03  0.26783599960E+03  0.00000000000E+00 0. -1.
         21   -1    0    0  503  504 -0.00000000000E+00 -0.00000000000E+00 -0.14927530268E+03  0.14927530268E+03  0.00000000000E+00 0. -1.
         25    2    1    2    0    0  0.80935872232E+02 -0.92223837392E+02 -0.41305675623E+02  0.17996580468E+03  0.12500272164E+03 0.  0.
         25    2    1    2    0    0 -0.80935872232E+02  0.92223837392E+02  0.15986637254E+03  0.23714549759E+03  0.12499951345E+03 0.  0.
          5    1    3    3  501    0  0.64650040900E+02 -0.11761298795E+03 -0.76249172701E+01  0.13450900374E+03  0.47000000000E+01 0.  1.
         -5    1    3    3    0  501  0.16285831332E+02  0.25389150562E+02 -0.33680758353E+02  0.45456800940E+02  0.47000000000E+01 0.  1.
          5    1    4    4  502    0 -0.43051478216E+02  0.20430260310E+02 -0.99125224504E+01  0.48899625911E+02  0.47000000000E+01 0. -1.
         -5    1    4    4    0  502 -0.37884394016E+02  0.71793577081E+02  0.16977889500E+03  0.18824587168E+03  0.47000000000E+01 0. -1.
<mgrwt>
<rscale>  0 0.39990649E+03</rscale>
<asrwt>0</asrwt>
<pdfrwt beam="1">  1       21 0.41205538E-01 0.39990649E+03</pdfrwt>
<pdfrwt beam="2">  1       21 0.22965431E-01 0.39990649E+03</pdfrwt>
<totfact> 0.95049028E+04</totfact>
</mgrwt>
</event>
<event>
 8    1  0.9529436E-006  0.7719756E+03  0.7546771E-02  0.9601491E-01
         21   -1    0    0  504  503  0.00000000000E+00  0.00000000000E+00  0.72719776480E+03  0.72719776480E+03  0.00000000000E+00 0. -1.
         21   -1    0    0  503  504 -0.00000000000E+00 -0.00000000000E+00 -0.20487767551E+03  0.20487767551E+03  0.00000000000E+00 0. -1.
         25    2    1    2    0    0  0.16944960524E+03  0.23101316591E+03  0.53456470119E+03  0.61925014614E+03  0.12502428642E+03 0.  0.
         25    2    1    2    0    0 -0.16944960524E+03 -0.23101316591E+03 -0.12244611900E+02  0.31282529418E+03  0.12501792918E+03 0.  0.
          5    1    3    3  501    0  0.12060009228E+02  0.59950184423E+02  0.41310466983E+02  0.73946691050E+02  0.47000000000E+01 0.  1.
         -5    1    3    3    0  501  0.15738959601E+03  0.17106298149E+03  0.49325423421E+03  0.54530345509E+03  0.47000000000E+01 0.  1.
          5    1    4    4  502    0 -0.53738674391E+02 -0.17260309561E+03 -0.24744783686E+02  0.18252141808E+03  0.47000000000E+01 0. -1.
         -5    1    4    4    0  502 -0.11571093085E+03 -0.58410070300E+02  0.12500171786E+02  0.13030387609E+03  0.47000000000E+01 0. -1.
<mgrwt>
<rscale>  0 0.77197562E+03</rscale>
<asrwt>0</asrwt>
<pdfrwt beam="1">  1       21 0.11187658E+00 0.77197562E+03</pdfrwt>
<pdfrwt beam="2">  1       21 0.31519643E-01 0.77197562E+03</pdfrwt>
<totfact> 0.49152400E+03</totfact>
</mgrwt>
</event>
<event>
 8    1  0.9529436E-006  0.5595575E+03  0.7546771E-02  0.9993056E-01
         21   -1    0    0  504  503  0.00000000000E+00  0.00000000000E+00  0.57628816465E+03  0.57628816465E+03  0.00000000000E+00 0. -1.
         21   -1    0    0  503  504 -0.00000000000E+00 -0.00000000000E+00 -0.13582815693E+03  0.13582815693E+03  0.00000000000E+00 0. -1.
         25    2    1    2    0    0  0.11308842483E+03 -0.10837067022E+03 -0.28237901505E+02  0.20237550311E+03  0.12500108473E+03 0.  0.
         25    2    1    2    0    0 -0.11308842483E+03  0.10837067022E+03  0.46869790923E+03  0.50974081847E+03  0.12499911164E+03 0.  0.
          5    1    3    3  501    0  0.17161892947E+02 -0.46768048957E+02  0.44582049483E+02  0.67018132687E+02  0.47000000000E+01 0. -1.
         -5    1    3    3    0  501  0.95926531885E+02 -0.61602621262E+02 -0.72819950989E+02  0.13535737042E+03  0.47000000000E+01 0. -1.
          5    1    4    4  502    0 -0.66593404029E+02  0.26780781579E+02  0.70963473763E+02  0.10104353681E+03  0.47000000000E+01 0.  1.
         -5    1    4    4    0  502 -0.46495020804E+02  0.81589888640E+02  0.39773443546E+03  0.40869728167E+03  0.47000000000E+01 0.  1.
<mgrwt>
<rscale>  0 0.55955754E+03</rscale>
<asrwt>0</asrwt>
<pdfrwt beam="1">  1       21 0.88659716E-01 0.55955754E+03</pdfrwt>
<pdfrwt beam="2">  1       21 0.20896640E-01 0.55955754E+03</pdfrwt>
<totfact> 0.20363128E+04</totfact>
</mgrwt>
</event>
<event>
 8    1  0.9529436E-006  0.2980930E+03  0.7546771E-02  0.1086198E+00
         21   -1    0    0  504  503  0.00000000000E+00  0.00000000000E+00  0.11186013190E+03  0.11186013190E+03  0.00000000000E+00 0.  1.
         21   -1    0    0  503  504 -0.00000000000E+00 -0.00000000000E+00 -0.19859497807E+03  0.19859497807E+03  0.00000000000E+00 0.  1.
         25    2    1    2    0    0 -0.40840115294E+02 -0.69011326224E+02 -0.30242749050E+02  0.15155769642E+03  0.12499853323E+03 0.  0.
         25    2    1    2    0    0  0.40840115294E+02  0.69011326224E+02 -0.56492097117E+02  0.15889741355E+03  0.12500621117E+03 0.  0.
          5    1    3    3  501    0  0.28903295564E+02 -0.72626208735E+02 -0.19961659758E+02  0.80811660977E+02  0.47000000000E+01 0.  1.
         -5    1    3    3    0  501 -0.69743410858E+02  0.36148825108E+01 -0.10281089292E+02  0.70746035441E+02  0.47000000000E+01 0.  1.
          5    1    4    4  502    0  0.31996006726E+02  0.10451334120E+03 -0.53790322639E+02  0.12191091725E+03  0.47000000000E+01 0. -1.
         -5    1    4    4    0  502  0.88441085681E+01 -0.35502014972E+02 -0.27017744775E+01  0.36986496303E+02  0.47000000000E+01 0. -1.
<mgrwt>
<rscale>  0 0.29809301E+03</rscale>
<asrwt>0</asrwt>
<pdfrwt beam="1">  1       21 0.17209251E-01 0.29809301E+03</pdfrwt>
<pdfrwt beam="2">  1       21 0.30553073E-01 0.29809301E+03</pdfrwt>
<totfact> 0.30618261E+05</totfact>
</mgrwt>
</event>
<event>
 8    1  0.9529436E-006  0.2979631E+03  0.7546771E-02  0.1086263E+00
         21   -1    0    0  504  503  0.00000000000E+00  0.00000000000E+00  0.81882345418E+03  0.81882345418E+03  0.00000000000E+00 0.  1.
         21   -1    0    0  503  504 -0.00000000000E+00 -0.00000000000E+00 -0.27106578706E+02  0.27106578706E+02  0.00000000000E+00 0.  1.
         25    2    1    2    0    0 -0.54157501952E+02  0.40548331287E+02  0.52263054249E+03  0.54161340586E+03  0.12500078111E+03 0.  0.
         25    2    1    2    0    0  0.54157501952E+02 -0.40548331287E+02  0.26908633298E+03  0.30431662702E+03  0.12499581072E+03 0.  0.
          5    1    3    3  501    0 -0.40898114242E+02 -0.36746606373E+02  0.13045653051E+03  0.14164732677E+03  0.47000000000E+01 0. -1.
         -5    1    3    3    0  501 -0.13259387711E+02  0.77294937660E+02  0.39217401199E+03  0.39996607910E+03  0.47000000000E+01 0. -1.
          5    1    4    4  502    0 -0.40683128723E+02 -0.90735941079E+01  0.85913155669E+02  0.95606523782E+02  0.47000000000E+01 0. -1.
         -5    1    4    4    0  502  0.94840630675E+02 -0.31474737179E+02  0.18317317731E+03  0.20871010323E+03  0.47000000000E+01 0. -1.
<mgrwt>
<rscale>  0 0.29796310E+03</rscale>
<asrwt>0</asrwt>
<pdfrwt beam="1">  1       21 0.12597282E+00 0.29796310E+03</pdfrwt>
<pdfrwt beam="2">  1       21 0.41702435E-02 0.29796310E+03</pdfrwt>
<totfact> 0.16493456E+05</totfact>
</mgrwt>
</event>
<event>
 8    1  0.9529436E-006  0.5081964E+03  0.7546771E-02  0.1011661E+00
         21   -1    0    0  504  503  0.00000000000E+00  0.00000000000E+00  0.40325260991E+03  0.40325260991E+03  0.00000000000E+00 0.  1.
         21   -1    0    0  503  504 -0.00000000000E+00 -0.00000000000E+00 -0.16011274800E+03  0.16011274800E+03  0.00000000000E+00 0.  1.
         25    2    1    2    0    0 -0.11066074490E+03 -0.15276783101E+03  0.24968642720E+03  0.33697686350E+03  0.12500513572E+03 0.  0.
         25    2    1    2    0    0  0.11066074490E+03  0.15276783101E+03 -0.65465652838E+01  0.22638849441E+03  0.12500032892E+03 0.  0.
          5    1    3    3  501    0  0.97636757098E+01  0.14901311740E+02  0.32077341950E+02  0.36992219743E+02  0.47000000000E+01 0. -1.
         -5    1    3    3    0  501 -0.12042442061E+03 -0.16766914275E+03  0.21760908525E+03  0.29998464376E+03  0.47000000000E+01 0. -1.
          5    1    4    4  502    0  0.13376817411E+03  0.10606859014E+03  0.11190454744E+02  0.17114843410E+03  0.47000000000E+01 0.  1.
         -5    1    4    4    0  502 -0.23107429213E+02  0.46699240870E+02 -0.17737020028E+02  0.55240060301E+02  0.47000000000E+01 0.  1.
<mgrwt>
<rscale>  0 0.50819635E+03</rscale>
<asrwt>0</asrwt>
<pdfrwt beam="1">  1       21 0.62038863E-01 0.50819635E+03</pdfrwt>
<pdfrwt beam="2">  1       21 0.24632731E-01 0.50819635E+03</pdfrwt>
<totfact> 0.33892050E+04</totfact>
</mgrwt>
</event>
<event>
 8    1  0.9529436E-006  0.3566191E+03  0.7546771E-02  0.1059931E+00
         21   -1    0    0  504  503  0.00000000000E+00  0.00000000000E+00  0.74771694037E+03  0.74771694037E+03  0.00000000000E+00 0. -1.
         21   -1    0    0  503  504 -0.00000000000E+00 -0.00000000000E+00 -0.42521845837E+02  0.42521845837E+02  0.00000000000E+00 0. -1.
         25    2    1    2    0    0  0.61141476377E+01 -0.49519892810E+02  0.61176324513E+03  0.62639440682E+03  0.12500432882E+03 0.  0.
         25    2    1    2    0    0 -0.61141476377E+01  0.49519892810E+02  0.93431849400E+02  0.16384437938E+03  0.12500347030E+03 0.  0.
          5    1    3    3  501    0 -0.54927988502E+02  0.18887469044E+00  0.22302319902E+03  0.22973584156E+03  0.47000000000E+01 0. -1.
         -5    1    3    3    0  501  0.61042136140E+02 -0.49708767501E+02  0.38874004611E+03  0.39665856527E+03  0.47000000000E+01 0. -1.
          5    1    4    4  502    0  0.29526818691E+02  0.34339019384E+02  0.11179870000E+03  0.12071470746E+03  0.47000000000E+01 0.  1.
         -5    1    4    4    0  502 -0.35640966329E+02  0.15180873426E+02 -0.18366850605E+02  0.43129671920E+02  0.47000000000E+01 0.  1.
<mgrwt>
<rscale>  0 0.35661915E+03</rscale>
<asrwt>0</asrwt>
<pdfrwt beam="1">  1       21 0.11503337E+00 0.35661915E+03</pdfrwt>
<pdfrwt beam="2">  1       21 0.65418230E-02 0.35661915E+03</pdfrwt>
<totfact> 0.94119611E+04</totfact>
</mgrwt>
</event>
<event>
 8    1  0.9529436E-006  0.3174568E+03  0.7546771E-02  0.1076826E+00
         21   -1    0    0  504  503  0.00000000000E+00  0.00000000000E+00  0.13873811068E+02  0.13873811068E+02  0.00000000000E+00 0. -1.
         21   -1    0    0  503  504 -0.00000000000E+00 -0.00000000000E+00 -0.18159898533E+04  0.18159898533E+04  0.00000000000E+00 0. -1.
         25    2    1    2    0    0  0.43106576027E+01 -0.86668374756E+02 -0.64077038142E+03  0.65859116771E+03  0.12500262207E+03 0.  0.
         25    2    1    2    0    0 -0.43106576027E+01  0.86668374756E+02 -0.11613456608E+04  0.11712724967E+04  0.12500211437E+03 0.  0.
          5    1    3    3  501    0 -0.10220721038E+02 -0.10392845824E+03 -0.61580331484E+03  0.62461300030E+03  0.47000000000E+01 0.  1.
         -5    1    3    3    0  501  0.14531378641E+02  0.17260083481E+02 -0.24967066574E+02  0.33978167406E+02  0.47000000000E+01 0.  1.
          5    1    4    4  502    0  0.49843995053E+02  0.22641370274E+02 -0.71395821047E+03  0.71606946017E+03  0.47000000000E+01 0.  1.
         -5    1    4    4    0  502 -0.54154652656E+02  0.64027004483E+02 -0.44738745036E+03  0.45520303651E+03  0.47000000000E+01 0.  1.
<mgrwt>
<rscale>  0 0.31745677E+03</rscale>
<asrwt>0</asrwt>
<pdfrwt beam="1">  1       21 0.21344339E-02 0.31745677E+03</pdfrwt>
<pdfrwt beam="2">  1       21 0.27938287E+00 0.31745677E+03</pdfrwt>
<totfact> 0.45697499E+04</totfact>
</mgrwt>
</event>
<event>
 8    1  0.9529436E-006  0.2630957E+03  0.7546771E-02  0.1105297E+00
         21   -1    0    0  504  503  0.00000000000E+00  0.00000000000E+00  0.22730866041E+03  0.22730866041E+03  0.00000000000E+00 0.  1.
         21   -1    0    0  503  504 -0.00000000000E+00 -0.00000000000E+00 -0.76129226183E+02  0.76129226183E+02  0.00000000000E+00 0.  1.
         25    2    1    2    0    0  0.35982751809E+02 -0.19477315445E+02  0.78596871719E+02  0.15321183928E+03  0.12498910036E+03 0.  0.
         25    2    1    2    0    0 -0.35982751809E+02  0.19477315445E+02  0.72582562511E+02  0.15022604731E+03  0.12500205065E+03 0.  0.
          5    1    3    3  501    0  0.68256019362E+02  0.21565261631E+02  0.69735559666E+02  0.10004540454E+03  0.47000000000E+01 0. -1.
         -5    1    3    3    0  501 -0.32273267553E+02 -0.41042577075E+02  0.88613120528E+01  0.53166434739E+02  0.47000000000E+01 0. -1.
          5    1    4    4  502    0 -0.57797660890E+02  0.39844396327E+02  0.90859019576E+02  0.11491560800E+03  0.47000000000E+01 0. -1.
         -5    1    4    4    0  502  0.21814909080E+02 -0.20367080882E+02 -0.18276457065E+02  0.35310439316E+02  0.47000000000E+01 0. -1.
<mgrwt>
<rscale>  0 0.26309567E+03</rscale>
<asrwt>0</asrwt>
<pdfrwt beam="1">  1       21 0.34970563E-01 0.26309567E+03</pdfrwt>
<pdfrwt beam="2">  1       21 0.11712189E-01 0.26309567E+03</pdfrwt>
<totfact> 0.47635455E+05</totfact>
</mgrwt>
</event>
<event>
 8    1  0.9529436E-006  0.3123970E+03  0.7546771E-02  0.1079203E+00
         21   -1    0    0  504  503  0.00000000000E+00  0.00000000000E+00  0.13108239488E+02  0.13108239488E+02  0.00000000000E+00 0.  1.
         21   -1    0    0  503  504 -0.00000000000E+00 -0.00000000000E+00 -0.18612696409E+04  0.18612696409E+04  0.00000000000E+00 0.  1.
         25    2    1    2    0    0  0.91125134366E+02  0.16018275087E+02 -0.83637723204E+03  0.85071325254E+03  0.12500315406E+03 0.  0.
         25    2    1    2    0    0 -0.91125134366E+02 -0.16018275087E+02 -0.10117841693E+04  0.10236646278E+04  0.12498675795E+03 0.  0.
          5    1    3    3  501    0  0.10157533785E+03 -0.24563895296E+02 -0.70541875166E+03  0.71313297456E+03  0.47000000000E+01 0. -1.
         -5    1    3    3    0  501 -0.10450203484E+02  0.40582170382E+02 -0.13095848037E+03  0.13758027797E+03  0.47000000000E+01 0. -1.
          5    1    4    4  502    0  0.23423648733E+02 -0.24272393857E+02 -0.12864070996E+03  0.13307268196E+03  0.47000000000E+01 0. -1.
         -5    1    4    4    0  502 -0.11454878310E+03  0.82541187707E+01 -0.88314345936E+03  0.89059194585E+03  0.47000000000E+01 0. -1.
<mgrwt>
<rscale>  0 0.31239698E+03</rscale>
<asrwt>0</asrwt>
<pdfrwt beam="1">  1       21 0.20166521E-02 0.31239698E+03</pdfrwt>
<pdfrwt beam="2">  1       21 0.28634919E+00 0.31239698E+03</pdfrwt>
<totfact> 0.45754210E+04</totfact>
</mgrwt>
</event>
<event>
 8    1  0.9529436E-006  0.2857264E+03  0.7546771E-02  0.1092602E+00
         21   -1    0    0  504  503  0.00000000000E+00  0.00000000000E+00  0.32487961748E+03  0.32487961748E+03  0.00000000000E+00 0.  1.
         21   -1    0    0  503  504 -0.00000000000E+00 -0.00000000000E+00 -0.62822938960E+02  0.62822938960E+02  0.00000000000E+00 0.  1.
         25    2    1    2    0    0 -0.34475185793E+02  0.55450344962E+02  0.10004199258E+03  0.17290662028E+03  0.12500007946E+03 0.  0.
         25    2    1    2    0    0  0.34475185793E+02 -0.55450344962E+02  0.16201468594E+03  0.21479593616E+03  0.12500102615E+03 0.  0.
          5    1    3    3  501    0 -0.23456088602E+02  0.72533048293E+01  0.11760247753E+03  0.12022990994E+03  0.47000000000E+01 0. -1.
         -5    1    3    3    0  501 -0.11019097190E+02  0.48197040133E+02 -0.17560484949E+02  0.52676710339E+02  0.47000000000E+01 0. -1.
          5    1    4    4  502    0 -0.59615198787E+01 -0.32317980229E+02  0.16458838391E+03  0.16790300082E+03  0.47000000000E+01 0.  1.
         -5    1    4    4    0  502  0.40436705671E+02 -0.23132364734E+02 -0.25736979723E+01  0.46892935342E+02  0.47000000000E+01 0.  1.
<mgrwt>
<rscale>  0 0.28572639E+03</rscale>
<asrwt>0</asrwt>
<pdfrwt beam="1">  1       21 0.49981479E-01 0.28572639E+03</pdfrwt>
<pdfrwt beam="2">  1       21 0.96650677E-02 0.28572639E+03</pdfrwt>
<totfact> 0.32151863E+05</totfact>
</mgrwt>
</event>
<event>
 8    1  0.9529436E-006  0.3011584E+03  0.7546771E-02  0.1084663E+00
         21   -1    0    0  504  503  0.00000000000E+00  0.00000000000E+00  0.62946101727E+02  0.62946101727E+02  0.00000000000E+00 0.  1.
         21   -1    0    0  503  504 -0.00000000000E+00 -0.00000000000E+00 -0.36021451350E+03  0.36021451350E+03  0.00000000000E+00 0.  1.
         25    2    1    2    0    0 -0.51052998521E+02  0.63471563048E+02 -0.12003200464E+03  0.19149285004E+03  0.12500712582E+03 0.  0.
         25    2    1    2    0    0  0.51052998521E+02 -0.63471563048E+02 -0.17723640713E+03  0.23166776518E+03  0.12498864523E+03 0.  0.
          5    1    3    3  501    0  0.23771702665E+02  0.20380488103E+01  0.12465904527E+02  0.27326475555E+02  0.47000000000E+01 0.  1.
         -5    1    3    3    0  501 -0.74824701186E+02  0.61433514238E+02 -0.13249790916E+03  0.16416637449E+03  0.47000000000E+01 0.  1.
          5    1    4    4  502    0  0.65031302642E+02  0.15437233071E+02 -0.99238314085E+02  0.11974018319E+03  0.47000000000E+01 0.  1.
         -5    1    4    4    0  502 -0.13978304121E+02 -0.78908796120E+02 -0.77998093046E+02  0.11192758199E+03  0.47000000000E+01 0.  1.
<mgrwt>
<rscale>  0 0.30115843E+03</rscale>
<asrwt>0</asrwt>
<pdfrwt beam="1">  1       21 0.96840156E-02 0.30115843E+03</pdfrwt>
<pdfrwt beam="2">  1       21 0.55417618E-01 0.30115843E+03</pdfrwt>
<totfact> 0.25651732E+05</totfact>
</mgrwt>
</event>
<event>
 8    1  0.9529436E-006  0.2785218E+03  0.7546771E-02  0.1096499E+00
         21   -1    0    0  504  503  0.00000000000E+00  0.00000000000E+00  0.42955322050E+03  0.42955322050E+03  0.00000000000E+00 0. -1.
         21   -1    0    0  503  504 -0.00000000000E+00 -0.00000000000E+00 -0.45148294325E+02  0.45148294325E+02  0.00000000000E+00 0. -1.
         25    2    1    2    0    0  0.16246836547E+02 -0.35435435413E+02  0.11139854386E+03  0.17191638889E+03  0.12500391760E+03 0.  0.
         25    2    1    2    0    0 -0.16246836547E+02  0.35435435413E+02  0.27300638231E+03  0.30278512593E+03  0.12500687149E+03 0.  0.
          5    1    3    3  501    0  0.58343991020E+02  0.17862467599E+02  0.66446381349E+02  0.90334382331E+02  0.47000000000E+01 0. -1.
         -5    1    3    3    0  501 -0.42097154473E+02 -0.53297903012E+02  0.44952162513E+02  0.81582006563E+02  0.47000000000E+01 0. -1.
          5    1    4    4  502    0 -0.55559667980E+02  0.56760554143E+02  0.21591893384E+03  0.23011239255E+03  0.47000000000E+01 0.  1.
         -5    1    4    4    0  502  0.39312831434E+02 -0.21325118730E+02  0.57087448466E+02  0.72672733377E+02  0.47000000000E+01 0. -1.
<mgrwt>
<rscale>  0 0.27852178E+03</rscale>
<asrwt>0</asrwt>
<pdfrwt beam="1">  1       21 0.66085108E-01 0.27852178E+03</pdfrwt>
<pdfrwt beam="2">  1       21 0.69458917E-02 0.27852178E+03</pdfrwt>
<totfact> 0.31554675E+05</totfact>
</mgrwt>
</event>
<event>
 8    1  0.9529436E-006  0.3013357E+03  0.7546771E-02  0.1084575E+00
         21   -1    0    0  504  503  0.00000000000E+00  0.00000000000E+00  0.47867494077E+02  0.47867494077E+02  0.00000000000E+00 0.  1.
         21   -1    0    0  503  504 -0.00000000000E+00 -0.00000000000E+00 -0.47424240206E+03  0.47424240206E+03  0.00000000000E+00 0.  1.
         25    2    1    2    0    0  0.68079865685E+02 -0.26977618407E+02 -0.28491662426E+03  0.31962961671E+03  0.12499179608E+03 0.  0.
         25    2    1    2    0    0 -0.68079865685E+02  0.26977618407E+02 -0.14145828372E+03  0.20248027943E+03  0.12500063007E+03 0.  0.
          5    1    3    3  501    0  0.34972257626E+02 -0.76628205669E+02 -0.15165367779E+03  0.17353924252E+03  0.47000000000E+01 0.  1.
         -5    1    3    3    0  501  0.33107608058E+02  0.49650587262E+02 -0.13326294648E+03  0.14609037419E+03  0.47000000000E+01 0.  1.
          5    1    4    4  502    0 -0.78959237748E+02 -0.26782573254E+02 -0.55039381189E+02  0.10001645333E+03  0.47000000000E+01 0. -1.
         -5    1    4    4    0  502  0.10879372064E+02  0.53760191660E+02 -0.86418902529E+02  0.10246382610E+03  0.47000000000E+01 0. -1.
<mgrwt>
<rscale>  0 0.30133566E+03</rscale>
<asrwt>0</asrwt>
<pdfrwt beam="1">  1       21 0.73642298E-02 0.30133566E+03</pdfrwt>
<pdfrwt beam="2">  1       21 0.72960370E-01 0.30133566E+03</pdfrwt>
<totfact> 0.22747793E+05</totfact>
</mgrwt>
</event>
<event>
 8    1  0.9529436E-006  0.2827961E+03  0.7546771E-02  0.1094172E+00
         21   -1    0    0  504  503  0.00000000000E+00  0.00000000000E+00  0.18895755116E+03  0.18895755116E+03  0.00000000000E+00 0. -1.
         21   -1    0    0  503  504 -0.00000000000E+00 -0.00000000000E+00 -0.10580899051E+03  0.10580899051E+03  0.00000000000E+00 0. -1.
         25    2    1    2    0    0 -0.21653249560E+02  0.56697569602E+02  0.14298073691E+02  0.13968476910E+03  0.12499568870E+03 0.  0.
         25    2    1    2    0    0  0.21653249560E+02 -0.56697569602E+02  0.68850486962E+02  0.15508177257E+03  0.12500595592E+03 0.  0.
          5    1    3    3  501    0  0.14431992452E+02  0.60582045808E+00 -0.46743512853E+02  0.49149724500E+02  0.47000000000E+01 0. -1.
         -5    1    3    3    0  501 -0.36085242012E+02  0.56091749144E+02  0.61041586545E+02  0.90535044602E+02  0.47000000000E+01 0. -1.
          5    1    4    4  502    0 -0.36424484836E+02 -0.67091828330E+02  0.55243506479E+02  0.94350365830E+02  0.47000000000E+01 0.  1.
         -5    1    4    4    0  502  0.58077734397E+02  0.10394258728E+02  0.13606980483E+02  0.60731406744E+02  0.47000000000E+01 0.  1.
<mgrwt>
<rscale>  0 0.28279609E+03</rscale>
<asrwt>0</asrwt>
<pdfrwt beam="1">  1       21 0.29070392E-01 0.28279609E+03</pdfrwt>
<pdfrwt beam="2">  1       21 0.16278306E-01 0.28279609E+03</pdfrwt>
<totfact> 0.37542591E+05</totfact>
</mgrwt>
</event>
<event>
 8    1  0.9529436E-006  0.5344321E+03  0.7546771E-02  0.1005163E+00
         21   -1    0    0  504  503  0.00000000000E+00  0.00000000000E+00  0.67971164798E+02  0.67971164798E+02  0.00000000000E+00 0.  1.
         21   -1    0    0  503  504 -0.00000000000E+00 -0.00000000000E+00 -0.10505102886E+04  0.10505102886E+04  0.00000000000E+00 0.  1.
         25    2    1    2    0    0  0.51020282699E+02 -0.78162237832E+02 -0.94531812552E+03  0.95810568155E+03  0.12501093514E+03 0.  0.
         25    2    1    2    0    0 -0.51020282699E+02  0.78162237832E+02 -0.37220998298E+02  0.16037577187E+03  0.12499032290E+03 0.  0.
          5    1    3    3  501    0  0.61069485443E+02 -0.79416880236E+02 -0.39044420285E+03  0.40311944689E+03  0.47000000000E+01 0. -1.
         -5    1    3    3    0  501 -0.10049202744E+02  0.12546424033E+01 -0.55487392267E+03  0.55498623466E+03  0.47000000000E+01 0. -1.
          5    1    4    4  502    0 -0.41540670652E+02  0.11239294479E+03 -0.24789367214E+02  0.12245163978E+03  0.47000000000E+01 0.  1.
         -5    1    4    4    0  502 -0.94796120471E+01 -0.34230706959E+02 -0.12431631084E+02  0.37924132092E+02  0.47000000000E+01 0.  1.
<mgrwt>
<rscale>  0 0.53443206E+03</rscale>
<asrwt>0</asrwt>
<pdfrwt beam="1">  1       21 0.10457103E-01 0.53443206E+03</pdfrwt>
<pdfrwt beam="2">  1       21 0.16161695E+00 0.53443206E+03</pdfrwt>
<totfact> 0.15926657E+04</totfact>
</mgrwt>
</event>
<event>
 8    1  0.9529436E-006  0.3337866E+03  0.7546771E-02  0.1069474E+00
         21   -1    0    0  504  503  0.00000000000E+00  0.00000000000E+00  0.37990992350E+03  0.37990992350E+03  0.00000000000E+00 0. -1.
         21   -1    0    0  503  504 -0.00000000000E+00 -0.00000000000E+00 -0.73315736300E+02  0.73315736300E+02  0.00000000000E+00 0. -1.
         25    2    1    2    0    0 -0.22853363320E+02 -0.57107619925E+02  0.27805631669E+03  0.31100220053E+03  0.12499398791E+03 0.  0.
         25    2    1    2    0    0  0.22853363320E+02  0.57107619925E+02  0.28537870508E+02  0.14222345927E+03  0.12501818206E+03 0.  0.
          5    1    3    3  501    0 -0.61877849175E+02 -0.58699961795E+02  0.24550873116E+03  0.25994457257E+03  0.47000000000E+01 0. -1.
         -5    1    3    3    0  501  0.39024485855E+02  0.15923418706E+01  0.32547585537E+02  0.51057627963E+02  0.47000000000E+01 0. -1.
          5    1    4    4  502    0  0.20571835506E+02  0.65086121900E+02 -0.35773338654E+02  0.77208972526E+02  0.47000000000E+01 0. -1.
         -5    1    4    4    0  502  0.22815278145E+01 -0.79785019758E+01  0.64311209162E+02  0.65014486746E+02  0.47000000000E+01 0. -1.
<mgrwt>
<rscale>  0 0.33378661E+03</rscale>
<asrwt>0</asrwt>
<pdfrwt beam="1">  1       21 0.58447680E-01 0.33378661E+03</pdfrwt>
<pdfrwt beam="2">  1       21 0.11279344E-01 0.33378661E+03</pdfrwt>
<totfact> 0.17283951E+05</totfact>
</mgrwt>
</event>
<event>
 8    1  0.9529436E-006  0.4179987E+03  0.7546771E-02  0.1037720E+00
         21   -1    0    0  504  503  0.00000000000E+00  0.00000000000E+00  0.23488303605E+03  0.23488303605E+03  0.00000000000E+00 0. -1.
         21   -1    0    0  503  504 -0.00000000000E+00 -0.00000000000E+00 -0.18596801976E+03  0.18596801976E+03  0.00000000000E+00 0. -1.
         25    2    1    2    0    0 -0.12805912021E+03  0.45724626158E+02  0.12295746693E+03  0.22188566603E+03  0.12499932163E+03 0.  0.
         25    2    1    2    0    0  0.12805912021E+03 -0.45724626158E+02 -0.74042450639E+02  0.19896538979E+03  0.12496024220E+03 0.  0.
          5    1    3    3  501    0 -0.90713806832E+02  0.83940326045E+02  0.11259075703E+03  0.16725352509E+03  0.47000000000E+01 0. -1.
         -5    1    3    3    0  501 -0.37345313378E+02 -0.38215699887E+02  0.10366709906E+02  0.54632140938E+02  0.47000000000E+01 0. -1.
          5    1    4    4  502    0 -0.19522383190E+01 -0.42808030387E+02  0.97420377843E+01  0.44196560955E+02  0.47000000000E+01 0. -1.
         -5    1    4    4    0  502  0.13001135853E+03 -0.29165957714E+01 -0.83784488423E+02  0.15476882883E+03  0.47000000000E+01 0. -1.
<mgrwt>
<rscale>  0 0.41799872E+03</rscale>
<asrwt>0</asrwt>
<pdfrwt beam="1">  1       21 0.36135852E-01 0.41799872E+03</pdfrwt>
<pdfrwt beam="2">  1       21 0.28610465E-01 0.41799872E+03</pdfrwt>
<totfact> 0.80729483E+04</totfact>
</mgrwt>
</event>
<event>
 8    1  0.9529436E-006  0.2802599E+03  0.7546771E-02  0.1095547E+00
         21   -1    0    0  504  503  0.00000000000E+00  0.00000000000E+00  0.73623195891E+03  0.73623195891E+03  0.00000000000E+00 0.  1.
         21   -1    0    0  503  504 -0.00000000000E+00 -0.00000000000E+00 -0.26671487846E+02  0.26671487846E+02  0.00000000000E+00 0.  1.
         25    2    1    2    0    0  0.26190214219E+02 -0.43677770359E+02  0.45745414442E+03  0.47694751193E+03  0.12498383872E+03 0.  0.
         25    2    1    2    0    0 -0.26190214219E+02  0.43677770359E+02  0.25210632665E+03  0.28595593483E+03  0.12497808522E+03 0.  0.
          5    1    3    3  501    0  0.73648600063E+02 -0.46288206573E+02  0.28723788249E+03  0.30015730126E+03  0.47000000000E+01 0.  1.
         -5    1    3    3    0  501 -0.47458385844E+02  0.26104362146E+01  0.17021626193E+03  0.17679021067E+03  0.47000000000E+01 0.  1.
          5    1    4    4  502    0 -0.41282250530E+02  0.26967176654E+02  0.25758983942E+03  0.26230910811E+03  0.47000000000E+01 0.  1.
         -5    1    4    4    0  502  0.15092036311E+02  0.16710593705E+02 -0.54835127678E+01  0.23646826727E+02  0.47000000000E+01 0.  1.
<mgrwt>
<rscale>  0 0.28025989E+03</rscale>
<asrwt>0</asrwt>
<pdfrwt beam="1">  1       21 0.11326644E+00 0.28025989E+03</pdfrwt>
<pdfrwt beam="2">  1       21 0.41033064E-02 0.28025989E+03</pdfrwt>
<totfact> 0.22224968E+05</totfact>
</mgrwt>
</event>
<event>
 8    1  0.9529436E-006  0.3142960E+03  0.7546771E-02  0.1078305E+00
         21   -1    0    0  504  503  0.00000000000E+00  0.00000000000E+00  0.22543610319E+03  0.22543610319E+03  0.00000000000E+00 0. -1.
         21   -1    0    0  503  504 -0.00000000000E+00 -0.00000000000E+00 -0.10954545591E+03  0.10954545591E+03  0.00000000000E+00 0. -1.
         25    2    1    2    0    0 -0.41547140827E+02 -0.23103214495E+02 -0.30076178609E+02  0.13701513590E+03  0.12493457294E+03 0.  0.
         25    2    1    2    0    0  0.41547140827E+02  0.23103214495E+02  0.14596682589E+03  0.19796642321E+03  0.12499786809E+03 0.  0.
          5    1    3    3  501    0 -0.34902816070E+02 -0.66947538370E+02 -0.47294136344E+02  0.89213254598E+02  0.47000000000E+01 0.  1.
         -5    1    3    3    0  501 -0.66443247563E+01  0.43844323875E+02  0.17217957735E+02  0.47801881303E+02  0.47000000000E+01 0.  1.
          5    1    4    4  502    0  0.69376221305E+02  0.53174510230E+02  0.72269803724E+02  0.11351477063E+03  0.47000000000E+01 0.  1.
         -5    1    4    4    0  502 -0.27829080478E+02 -0.30071295735E+02  0.73697022164E+02  0.84451652579E+02  0.47000000000E+01 0.  1.
<mgrwt>
<rscale>  0 0.31429604E+03</rscale>
<asrwt>0</asrwt>
<pdfrwt beam="1">  1       21 0.34682477E-01 0.31429604E+03</pdfrwt>
<pdfrwt beam="2">  1       21 0.16853147E-01 0.31429604E+03</pdfrwt>
<totfact> 0.24658663E+05</totfact>
</mgrwt>
</event>
<event>
 8    1  0.9529436E-006  0.3459793E+03  0.7546771E-02  0.1064278E+00
         21   -1    0    0  504  503  0.00000000000E+00  0.00000000000E+00  0.94957250959E+03  0.94957250959E+03  0.00000000000E+00 0.  1.
         21   -1    0    0  503  504 -0.00000000000E+00 -0.00000000000E+00 -0.31514620103E+02  0.31514620103E+02  0.00000000000E+00 0.  1.
         25    2    1    2    0    0 -0.80228178576E+02 -0.17762866924E+02  0.70541555425E+03  0.72110215711E+03  0.12500054689E+03 0.  0.
         25    2    1    2    0    0  0.80228178576E+02  0.17762866924E+02  0.21264233524E+03  0.25998497259E+03  0.12499337245E+03 0.  0.
          5    1    3    3  501    0 -0.45144681886E+02  0.18867395970E+02  0.81963406899E+02  0.95572543148E+02  0.47000000000E+01 0. -1.
         -5    1    3    3    0  501 -0.35083496690E+02 -0.36630262894E+02  0.62345214735E+03  0.62552961396E+03  0.47000000000E+01 0. -1.
          5    1    4    4  502    0  0.34961318276E+02 -0.10024563438E+02  0.20238983590E+03  0.20568549128E+03  0.47000000000E+01 0.  1.
         -5    1    4    4    0  502  0.45266860299E+02  0.27787430362E+02  0.10252499336E+02  0.54299481306E+02  0.47000000000E+01 0.  1.
<mgrwt>
<rscale>  0 0.34597929E+03</rscale>
<asrwt>0</asrwt>
<pdfrwt beam="1">  1       21 0.14608806E+00 0.34597929E+03</pdfrwt>
<pdfrwt beam="2">  1       21 0.48484038E-02 0.34597929E+03</pdfrwt>
<totfact> 0.85559740E+04</totfact>
</mgrwt>
</event>
<event>
 8    1  0.9529436E-006  0.2836195E+03  0.7546771E-02  0.1093728E+00
         21   -1    0    0  504  503  0.00000000000E+00  0.00000000000E+00  0.13115482919E+02  0.13115482919E+02  0.00000000000E+00 0. -1.
         21   -1    0    0  503  504 -0.00000000000E+00 -0.00000000000E+00 -0.15333029223E+04  0.15333029223E+04  0.00000000000E+00 0. -1.
         25    2    1    2    0    0  0.21132890601E+01  0.54498797893E+02 -0.97193995719E+03  0.98146190327E+03  0.12500240884E+03 0.  0.
         25    2    1    2    0    0 -0.21132890601E+01 -0.54498797893E+02 -0.54824748220E+03  0.56495650197E+03  0.12500384958E+03 0.  0.
          5    1    3    3  501    0 -0.28387914808E+02  0.79300166107E+02 -0.43759459096E+03  0.44565177672E+03  0.47000000000E+01 0. -1.
         -5    1    3    3    0  501  0.30501203868E+02 -0.24801368214E+02 -0.53434536623E+03  0.53581012655E+03  0.47000000000E+01 0. -1.
          5    1    4    4  502    0 -0.46937487293E+02 -0.11140560816E+02 -0.41433078316E+03  0.41715623893E+03  0.47000000000E+01 0.  1.
         -5    1    4    4    0  502  0.44824198233E+02 -0.43358237077E+02 -0.13391669905E+03  0.14780026303E+03  0.47000000000E+01 0.  1.
<mgrwt>
<rscale>  0 0.28361952E+03</rscale>
<asrwt>0</asrwt>
<pdfrwt beam="1">  1       21 0.20177673E-02 0.28361952E+03</pdfrwt>
<pdfrwt beam="2">  1       21 0.23589268E+00 0.28361952E+03</pdfrwt>
<totfact> 0.92879060E+04</totfact>
</mgrwt>
</event>
<event>
 8    1  0.9529436E-006  0.2675739E+03  0.7546771E-02  0.1102676E+00
         21   -1    0    0  504  503  0.00000000000E+00  0.00000000000E+00  0.43942675518E+02  0.43942675518E+02  0.00000000000E+00 0.  1.
         21   -1    0    0  503  504 -0.00000000000E+00 -0.00000000000E+00 -0.40732503774E+03  0.40732503774E+03  0.00000000000E+00 0.  1.
         25    2    1    2    0    0 -0.42300843495E+02  0.19984917552E+02 -0.16619565952E+03  0.21315267164E+03  0.12499722354E+03 0.  0.
         25    2    1    2    0    0  0.42300843495E+02 -0.19984917552E+02 -0.19718670270E+03  0.23811504161E+03  0.12500967576E+03 0.  0.
          5    1    3    3  501    0 -0.20770819169E+02  0.32056557521E+02  0.61596899251E+01  0.38975397228E+02  0.47000000000E+01 0. -1.
         -5    1    3    3    0  501 -0.21530024326E+02 -0.12071639970E+02 -0.17235534945E+03  0.17417727441E+03  0.47000000000E+01 0. -1.
          5    1    4    4  502    0  0.81258101247E+02 -0.16672517691E+02 -0.17295929187E+03  0.19187980224E+03  0.47000000000E+01 0.  1.
         -5    1    4    4    0  502 -0.38957257751E+02 -0.33123998605E+01 -0.24227410824E+02  0.46235239370E+02  0.47000000000E+01 0.  1.
<mgrwt>
<rscale>  0 0.26757393E+03</rscale>
<asrwt>0</asrwt>
<pdfrwt beam="1">  1       21 0.67604117E-02 0.26757393E+03</pdfrwt>
<pdfrwt beam="2">  1       21 0.62665389E-01 0.26757393E+03</pdfrwt>
<totfact> 0.37245648E+05</totfact>
</mgrwt>
</event>
<event>
 8    1  0.9529436E-006  0.2578474E+03  0.7546771E-02  0.1108443E+00
         21   -1    0    0  504  503  0.00000000000E+00  0.00000000000E+00  0.36505739927E+02  0.36505739927E+02  0.00000000000E+00 0. -1.
         21   -1    0    0  503  504 -0.00000000000E+00 -0.00000000000E+00 -0.45530700120E+03  0.45530700120E+03  0.00000000000E+00 0. -1.
         25    2    1    2    0    0  0.31426528170E+02 -0.90853320348E+00 -0.21480659477E+03  0.25050880721E+03  0.12499734888E+03 0.  0.
         25    2    1    2    0    0 -0.31426528170E+02  0.90853320348E+00 -0.20399466650E+03  0.24130393392E+03  0.12500124982E+03 0.  0.
          5    1    3    3  501    0 -0.34868985351E+02  0.36779836241E+02 -0.67200705075E+02  0.84300814088E+02  0.47000000000E+01 0. -1.
         -5    1    3    3    0  501  0.66295513522E+02 -0.37688369445E+02 -0.14760588970E+03  0.16620799312E+03  0.47000000000E+01 0. -1.
          5    1    4    4  502    0 -0.71247079799E+00 -0.59271509599E+02 -0.76026019278E+02  0.96517693051E+02  0.47000000000E+01 0. -1.
         -5    1    4    4    0  502 -0.30714057372E+02  0.60180042802E+02 -0.12796864722E+03  0.14478624087E+03  0.47000000000E+01 0. -1.
<mgrwt>
<rscale>  0 0.25784739E+03</rscale>
<asrwt>0</asrwt>
<pdfrwt beam="1">  1       21 0.56162676E-02 0.25784739E+03</pdfrwt>
<pdfrwt beam="2">  1       21 0.70047231E-01 0.25784739E+03</pdfrwt>
<totfact> 0.40225044E+05</totfact>
</mgrwt>
</event>
<event>
 8    1  0.9529436E-006  0.3631554E+03  0.7546771E-02  0.1057341E+00
         21   -1    0    0  504  503  0.00000000000E+00  0.00000000000E+00  0.16925860041E+03  0.16925860041E+03  0.00000000000E+00 0.  1.
         21   -1    0    0  503  504 -0.00000000000E+00 -0.00000000000E+00 -0.19479339432E+03  0.19479339432E+03  0.00000000000E+00 0.  1.
         25    2    1    2    0    0  0.93923246301E+02 -0.37538115712E+02  0.71788175655E+02  0.17609360876E+03  0.12499892221E+03 0.  0.
         25    2    1    2    0    0 -0.93923246301E+02  0.37538115712E+02 -0.97322969565E+02  0.18795838597E+03  0.12500363244E+03 0.  0.
          5    1    3    3  501    0  0.99661763026E+02 -0.54147682484E+02  0.12650614337E+02  0.11422156789E+03  0.47000000000E+01 0.  1.
         -5    1    3    3    0  501 -0.57385167257E+01  0.16609566772E+02  0.59137561318E+02  0.61872040868E+02  0.47000000000E+01 0.  1.
          5    1    4    4  502    0 -0.20397863373E+02  0.33146330964E+02  0.23988004205E+02  0.45959399825E+02  0.47000000000E+01 0. -1.
         -5    1    4    4    0  502 -0.73525382927E+02  0.43917847476E+01 -0.12131097377E+03  0.14199898614E+03  0.47000000000E+01 0. -1.
<mgrwt>
<rscale>  0 0.36315538E+03</rscale>
<asrwt>0</asrwt>
<pdfrwt beam="1">  1       21 0.26039785E-01 0.36315538E+03</pdfrwt>
<pdfrwt beam="2">  1       21 0.29968214E-01 0.36315538E+03</pdfrwt>
<totfact> 0.14284147E+05</totfact>
</mgrwt>
</event>
<event>
 8    1  0.9529436E-006  0.3655979E+03  0.7546771E-02  0.1056389E+00
         21   -1    0    0  504  503  0.00000000000E+00  0.00000000000E+00  0.74416633666E+02  0.74416633666E+02  0.00000000000E+00 0. -1.
         21   -1    0    0  503  504 -0.00000000000E+00 -0.00000000000E+00 -0.44903200116E+03  0.44903200116E+03  0.00000000000E+00 0. -1.
         25    2    1    2    0    0 -0.69963930126E+02 -0.34136743469E+02 -0.34236598101E+03  0.37269322573E+03  0.12500202708E+03 0.  0.
         25    2    1    2    0    0  0.69963930126E+02  0.34136743469E+02 -0.32249386477E+02  0.15075540910E+03  0.12500760645E+03 0.  0.
          5    1    3    3  501    0 -0.44139015642E+01 -0.63348709918E+02 -0.23493938699E+03  0.24341558523E+03  0.47000000000E+01 0.  1.
         -5    1    3    3    0  501 -0.65550028561E+02  0.29211966449E+02 -0.10742659403E+03  0.12927764050E+03  0.47000000000E+01 0.  1.
          5    1    4    4  502    0  0.79520262850E+01  0.72870637744E+02 -0.22630434771E+02  0.76860855741E+02  0.47000000000E+01 0. -1.
         -5    1    4    4    0  502  0.62011903841E+02 -0.38733894275E+02 -0.96189517061E+01  0.73894553355E+02  0.47000000000E+01 0. -1.
<mgrwt>
<rscale>  0 0.36559787E+03</rscale>
<asrwt>0</asrwt>
<pdfrwt beam="1">  1       21 0.11448713E-01 0.36559787E+03</pdfrwt>
<pdfrwt beam="2">  1       21 0.69081846E-01 0.36559787E+03</pdfrwt>
<totfact> 0.11565120E+05</totfact>
</mgrwt>
</event>
<event>
 8    1  0.9529436E-006  0.2855776E+03  0.7546771E-02  0.1092681E+00
         21   -1    0    0  504  503  0.00000000000E+00  0.00000000000E+00  0.10367597534E+03  0.10367597534E+03  0.00000000000E+00 0.  1.
         21   -1    0    0  503  504 -0.00000000000E+00 -0.00000000000E+00 -0.19665730941E+03  0.19665730941E+03  0.00000000000E+00 0.  1.
         25    2    1    2    0    0 -0.47913167699E+02 -0.31043201495E+02 -0.57138697946E+01  0.13754038542E+03  0.12500142925E+03 0.  0.
         25    2    1    2    0    0  0.47913167699E+02  0.31043201495E+02 -0.87267464276E+02  0.16279289934E+03  0.12500626286E+03 0.  0.
          5    1    3    3  501    0 -0.57157514222E+02 -0.58629578330E+02  0.33409357037E+02  0.88558929672E+02  0.47000000000E+01 0.  1.
         -5    1    3    3    0  501  0.92443465230E+01  0.27586376835E+02 -0.39123226831E+02  0.48981455748E+02  0.47000000000E+01 0.  1.
          5    1    4    4  502    0  0.75369210523E+02  0.29686925923E+02 -0.11370348087E+02  0.81934158208E+02  0.47000000000E+01 0.  1.
         -5    1    4    4    0  502 -0.27456042824E+02  0.13562755715E+01 -0.75897116189E+02  0.80858741128E+02  0.47000000000E+01 0.  1.
<mgrwt>
<rscale>  0 0.28557758E+03</rscale>
<asrwt>0</asrwt>
<pdfrwt beam="1">  1       21 0.15950150E-01 0.28557758E+03</pdfrwt>
<pdfrwt beam="2">  1       21 0.30254971E-01 0.28557758E+03</pdfrwt>
<totfact> 0.36021863E+05</totfact>
</mgrwt>
</event>
<event>
 8    1  0.9529436E-006  0.3006823E+03  0.7546771E-02  0.1084900E+00
         21   -1    0    0  504  503  0.00000000000E+00  0.00000000000E+00  0.14072179018E+03  0.14072179018E+03  0.00000000000E+00 0. -1.
         21   -1    0    0  503  504 -0.00000000000E+00 -0.00000000000E+00 -0.16061802153E+03  0.16061802153E+03  0.00000000000E+00 0. -1.
         25    2    1    2    0    0 -0.15780572081E+02 -0.18800854341E+02  0.70071106833E+02  0.14538332070E+03  0.12499540530E+03 0.  0.
         25    2    1    2    0    0  0.15780572081E+02  0.18800854341E+02 -0.89967338184E+02  0.15595649101E+03  0.12500322624E+03 0.  0.
          5    1    3    3  501    0  0.50212780461E+02  0.15622941016E+02  0.29726833596E+02  0.60590215739E+02  0.47000000000E+01 0. -1.
         -5    1    3    3    0  501 -0.65993352542E+02 -0.34423795357E+02  0.40344273237E+02  0.84793104965E+02  0.47000000000E+01 0. -1.
          5    1    4    4  502    0  0.11742567341E+02 -0.77394765705E+01 -0.11678390185E+03  0.11772152359E+03  0.47000000000E+01 0.  1.
         -5    1    4    4    0  502  0.40380047395E+01  0.26540330911E+02  0.26816563664E+02  0.38234967423E+02  0.47000000000E+01 0.  1.
<mgrwt>
<rscale>  0 0.30068226E+03</rscale>
<asrwt>0</asrwt>
<pdfrwt beam="1">  1       21 0.21649506E-01 0.30068226E+03</pdfrwt>
<pdfrwt beam="2">  1       21 0.24710465E-01 0.30068226E+03</pdfrwt>
<totfact> 0.30060438E+05</totfact>
</mgrwt>
</event>
<event>
 8    1  0.9529436E-006  0.2542284E+03  0.7546771E-02  0.1110661E+00
         21   -1    0    0  504  503  0.00000000000E+00  0.00000000000E+00  0.24164689385E+03  0.24164689385E+03  0.00000000000E+00 0. -1.
         21   -1    0    0  503  504 -0.00000000000E+00 -0.00000000000E+00 -0.66866230785E+02  0.66866230785E+02  0.00000000000E+00 0. -1.
         25    2    1    2    0    0 -0.15483611484E+02 -0.12799993118E+02  0.10112856647E+03  0.16202904308E+03  0.12499136689E+03 0.  0.
         25    2    1    2    0    0  0.15483611484E+02  0.12799993118E+02  0.73652096590E+02  0.14648408155E+03  0.12501748985E+03 0.  0.
          5    1    3    3  501    0  0.74832390092E+01  0.23552914357E+02 -0.20808455513E+02  0.32646905851E+02  0.47000000000E+01 0.  1.
         -5    1    3    3    0  501 -0.22966850493E+02 -0.36352907475E+02  0.12193702198E+03  0.12938213723E+03  0.47000000000E+01 0.  1.
          5    1    4    4  502    0 -0.23185508444E+02 -0.44867852609E+02  0.54184631918E+02  0.74220996595E+02  0.47000000000E+01 0.  1.
         -5    1    4    4    0  502  0.38669119927E+02  0.57667845728E+02  0.19467464673E+02  0.72263084958E+02  0.47000000000E+01 0.  1.
<mgrwt>
<rscale>  0 0.25422838E+03</rscale>
<asrwt>0</asrwt>
<pdfrwt beam="1">  1       21 0.37176445E-01 0.25422838E+03</pdfrwt>
<pdfrwt beam="2">  1       21 0.10287113E-01 0.25422838E+03</pdfrwt>
<totfact> 0.53229412E+05</totfact>
</mgrwt>
</event>
<event>
 8    1  0.9529436E-006  0.3220949E+03  0.7546771E-02  0.1074689E+00
         21   -1    0    0  504  503  0.00000000000E+00  0.00000000000E+00  0.13094053279E+03  0.13094053279E+03  0.00000000000E+00 0.  1.
         21   -1    0    0  503  504 -0.00000000000E+00 -0.00000000000E+00 -0.19807683602E+03  0.19807683602E+03  0.00000000000E+00 0.  1.
         25    2    1    2    0    0 -0.66312168842E+02  0.48647161977E+02 -0.94397543954E+02  0.17692095218E+03  0.12500510754E+03 0.  0.
         25    2    1    2    0    0  0.66312168842E+02 -0.48647161977E+02  0.27261240725E+02  0.15209641662E+03  0.12500517829E+03 0.  0.
          5    1    3    3  501    0 -0.56299426429E+02  0.83256042465E+02 -0.33567927727E+02  0.10606644047E+03  0.47000000000E+01 0.  1.
         -5    1    3    3    0  501 -0.10012742413E+02 -0.34608880488E+02 -0.60829616227E+02  0.70854511709E+02  0.47000000000E+01 0.  1.
          5    1    4    4  502    0 -0.10809658485E+02 -0.34603893333E+02  0.57340467593E+02  0.68002186539E+02  0.47000000000E+01 0. -1.
         -5    1    4    4    0  502  0.77121827327E+02 -0.14043268644E+02 -0.30079226868E+02  0.84094230084E+02  0.47000000000E+01 0. -1.
<mgrwt>
<rscale>  0 0.32209493E+03</rscale>
<asrwt>0</asrwt>
<pdfrwt beam="1">  1       21 0.20144697E-01 0.32209493E+03</pdfrwt>
<pdfrwt beam="2">  1       21 0.30473359E-01 0.32209493E+03</pdfrwt>
<totfact> 0.22798211E+05</totfact>
</mgrwt>
</event>
<event>
 8    1  0.9529436E-006  0.3327553E+03  0.7546771E-02  0.1069924E+00
         21   -1    0    0  504  503  0.00000000000E+00  0.00000000000E+00  0.59129094331E+03  0.59129094331E+03  0.00000000000E+00 0.  1.
         21   -1    0    0  503  504 -0.00000000000E+00 -0.00000000000E+00 -0.46815403325E+02  0.46815403325E+02  0.00000000000E+00 0.  1.
         25    2    1    2    0    0 -0.89393172315E+02  0.42013376691E+02  0.18027545308E+03  0.24058469916E+03  0.12500198163E+03 0.  0.
         25    2    1    2    0    0  0.89393172315E+02 -0.42013376691E+02  0.36420008691E+03  0.39752164747E+03  0.12500197528E+03 0.  0.
          5    1    3    3  501    0 -0.11781434772E+03  0.41594021015E+02  0.11778245225E+03  0.17177042577E+03  0.47000000000E+01 0. -1.
         -5    1    3    3    0  501  0.28421175400E+02  0.41935567656E+00  0.62493000827E+02  0.68814273393E+02  0.47000000000E+01 0. -1.
          5    1    4    4  502    0  0.92247702556E+01 -0.72393908548E+02  0.18023728774E+03  0.19450846838E+03  0.47000000000E+01 0. -1.
         -5    1    4    4    0  502  0.80168402059E+02  0.30380531857E+02  0.18396279917E+03  0.20301317909E+03  0.47000000000E+01 0. -1.
<mgrwt>
<rscale>  0 0.33275531E+03</rscale>
<asrwt>0</asrwt>
<pdfrwt beam="1">  1       21 0.90967832E-01 0.33275531E+03</pdfrwt>
<pdfrwt beam="2">  1       21 0.72023702E-02 0.33275531E+03</pdfrwt>
<totfact> 0.14136749E+05</totfact>
</mgrwt>
</event>
<event>
 8    1  0.9529436E-006  0.2771964E+03  0.7546771E-02  0.1097230E+00
         21   -1    0    0  504  503  0.00000000000E+00  0.00000000000E+00  0.10057379594E+04  0.10057379594E+04  0.00000000000E+00 0. -1.
         21   -1    0    0  503  504 -0.00000000000E+00 -0.00000000000E+00 -0.19099867603E+02  0.19099867603E+02  0.00000000000E+00 0. -1.
         25    2    1    2    0    0  0.58432549642E+02 -0.12245946112E+02  0.50997331400E+03  0.52845167724E+03  0.12499627246E+03 0.  0.
         25    2    1    2    0    0 -0.58432549642E+02  0.12245946112E+02  0.47666477778E+03  0.49638614975E+03  0.12500229291E+03 0.  0.
          5    1    3    3  501    0 -0.38583624346E+02 -0.12074809723E+02  0.12756177178E+03  0.13389769497E+03  0.47000000000E+01 0. -1.
         -5    1    3    3    0  501  0.97016173989E+02 -0.17113638877E+00  0.38241154222E+03  0.39455398227E+03  0.47000000000E+01 0. -1.
          5    1    4    4  502    0 -0.35349934178E+02  0.41587869407E+02  0.74549707394E+02  0.92514418340E+02  0.47000000000E+01 0. -1.
         -5    1    4    4    0  502 -0.23082615464E+02 -0.29341923295E+02  0.40211507039E+03  0.40387173141E+03  0.47000000000E+01 0. -1.
<mgrwt>
<rscale>  0 0.27719641E+03</rscale>
<asrwt>0</asrwt>
<pdfrwt beam="1">  1       21 0.15472888E+00 0.27719641E+03</pdfrwt>
<pdfrwt beam="2">  1       21 0.29384420E-02 0.27719641E+03</pdfrwt>
<totfact> 0.17457524E+05</totfact>
</mgrwt>
</event>
<event>
 8    1  0.9529436E-006  0.2996875E+03  0.7546771E-02  0.1085397E+00
         21   -1    0    0  504  503  0.00000000000E+00  0.00000000000E+00  0.66199448195E+02  0.66199448195E+02  0.00000000000E+00 0. -1.
         21   -1    0    0  503  504 -0.00000000000E+00 -0.00000000000E+00 -0.33917427607E+03  0.33917427607E+03  0.00000000000E+00 0. -1.
         25    2    1    2    0    0  0.78891078977E+02 -0.89797227701E+01 -0.16745692884E+03  0.22354251346E+03  0.12499997818E+03 0.  0.
         25    2    1    2    0    0 -0.78891078977E+02  0.89797227701E+01 -0.10551789904E+03  0.18183121081E+03  0.12499649772E+03 0.  0.
          5    1    3    3  501    0  0.67210059043E+02 -0.57921333491E+02 -0.14058237845E+03  0.16630564645E+03  0.47000000000E+01 0.  1.
         -5    1    3    3    0  501  0.11681019935E+02  0.48941610721E+02 -0.26874550390E+02  0.57236867012E+02  0.47000000000E+01 0.  1.
          5    1    4    4  502    0 -0.59297908924E+02 -0.22419189355E+02 -0.12463537395E+03  0.13991043025E+03  0.47000000000E+01 0. -1.
         -5    1    4    4    0  502 -0.19593170054E+02  0.31398912125E+02  0.19117474911E+02  0.41920780555E+02  0.47000000000E+01 0. -1.
<mgrwt>
<rscale>  0 0.29968750E+03</rscale>
<asrwt>0</asrwt>
<pdfrwt beam="1">  1       21 0.10184530E-01 0.29968750E+03</pdfrwt>
<pdfrwt beam="2">  1       21 0.52180658E-01 0.29968750E+03</pdfrwt>
<totfact> 0.26664223E+05</totfact>
</mgrwt>
</event>
<event>
 8    1  0.9529436E-006  0.4324483E+03  0.7546771E-02  0.1033089E+00
         21   -1    0    0  504  503  0.00000000000E+00  0.00000000000E+00  0.19788523308E+03  0.19788523308E+03  0.00000000000E+00 0. -1.
         21   -1    0    0  503  504 -0.00000000000E+00 -0.00000000000E+00 -0.23626259637E+03  0.23626259637E+03  0.00000000000E+00 0. -1.
         25    2    1    2    0    0 -0.13571065390E+03 -0.11985116686E+02  0.93355300806E+02  0.20712565380E+03  0.12499919868E+03 0.  0.
         25    2    1    2    0    0  0.13571065390E+03  0.11985116686E+02 -0.13173266410E+03  0.22702217565E+03  0.12499819536E+03 0.  0.
          5    1    3    3  501    0 -0.13250678935E+02 -0.51608007134E+02  0.43766779068E+02  0.69112863076E+02  0.47000000000E+01 0.  1.
         -5    1    3    3    0  501 -0.12245997496E+03  0.39622890448E+02  0.49588521738E+02  0.13801279072E+03  0.47000000000E+01 0.  1.
          5    1    4    4  502    0  0.98253067336E+02 -0.14434285104E+02 -0.13755248411E+02  0.10036588408E+03  0.47000000000E+01 0. -1.
         -5    1    4    4    0  502  0.37457586562E+02  0.26419401790E+02 -0.11797741569E+03  0.12665629158E+03  0.47000000000E+01 0. -1.
<mgrwt>
<rscale>  0 0.43244828E+03</rscale>
<asrwt>0</asrwt>
<pdfrwt beam="1">  1       21 0.30443882E-01 0.43244828E+03</pdfrwt>
<pdfrwt beam="2">  1       21 0.36348092E-01 0.43244828E+03</pdfrwt>
<totfact> 0.70328169E+04</totfact>
</mgrwt>
</event>
<event>
 8    1  0.9529436E-006  0.3007115E+03  0.7546771E-02  0.1084885E+00
         21   -1    0    0  504  503  0.00000000000E+00  0.00000000000E+00  0.13044364236E+03  0.13044364236E+03  0.00000000000E+00 0.  1.
         21   -1    0    0  503  504 -0.00000000000E+00 -0.00000000000E+00 -0.17330747903E+03  0.17330747903E+03  0.00000000000E+00 0.  1.
         25    2    1    2    0    0  0.78248196688E+02  0.23267832411E+02 -0.39377552796E+02  0.15441342714E+03  0.12501496913E+03 0.  0.
         25    2    1    2    0    0 -0.78248196688E+02 -0.23267832411E+02 -0.34862838697E+01  0.14933769425E+03  0.12500168174E+03 0.  0.
          5    1    3    3  501    0  0.92163253159E+02 -0.20774334997E+02 -0.49698407605E+02  0.10685345079E+03  0.47000000000E+01 0.  1.
         -5    1    3    3    0  501 -0.13915056471E+02  0.44042167408E+02  0.10320854809E+02  0.47559976352E+02  0.47000000000E+01 0.  1.
          5    1    4    4  502    0 -0.29150462484E+02  0.46981029471E+01 -0.61398267066E+02  0.68290986469E+02  0.47000000000E+01 0. -1.
         -5    1    4    4    0  502 -0.49097734205E+02 -0.27965935359E+02  0.57911983196E+02  0.81046707781E+02  0.47000000000E+01 0. -1.
<mgrwt>
<rscale>  0 0.30071155E+03</rscale>
<asrwt>0</asrwt>
<pdfrwt beam="1">  1       21 0.20068253E-01 0.30071155E+03</pdfrwt>
<pdfrwt beam="2">  1       21 0.26662689E-01 0.30071155E+03</pdfrwt>
<totfact> 0.29958547E+05</totfact>
</mgrwt>
</event>
<event>
 8    1  0.9529436E-006  0.5575608E+03  0.7546771E-02  0.9997589E-01
         21   -1    0    0  504  503  0.00000000000E+00  0.00000000000E+00  0.44643453549E+03  0.44643453549E+03  0.00000000000E+00 0.  1.
         21   -1    0    0  503  504 -0.00000000000E+00 -0.00000000000E+00 -0.17408713414E+03  0.17408713414E+03  0.00000000000E+00 0.  1.
         25    2    1    2    0    0 -0.36612101827E+02 -0.91571428603E+02  0.39085440247E+03  0.42204267481E+03  0.12500833130E+03 0.  0.
         25    2    1    2    0    0  0.36612101827E+02  0.91571428603E+02 -0.11850700113E+03  0.19847899482E+03  0.12499691809E+03 0.  0.
          5    1    3    3  501    0  0.31947475570E+01  0.23213666652E+02  0.15361318254E+03  0.15546118674E+03  0.47000000000E+01 0. -1.
         -5    1    3    3    0  501 -0.39806849384E+02 -0.11478509525E+03  0.23724121993E+03  0.26658148807E+03  0.47000000000E+01 0. -1.
          5    1    4    4  502    0  0.44817237498E+02 -0.17166437884E+02 -0.22918918247E+02  0.53391368031E+02  0.47000000000E+01 0.  1.
         -5    1    4    4    0  502 -0.82051356712E+01  0.10873786649E+03 -0.95588082879E+02  0.14508762679E+03  0.47000000000E+01 0.  1.
<mgrwt>
<rscale>  0 0.55756079E+03</rscale>
<asrwt>0</asrwt>
<pdfrwt beam="1">  1       21 0.68682236E-01 0.55756079E+03</pdfrwt>
<pdfrwt beam="2">  1       21 0.26782636E-01 0.55756079E+03</pdfrwt>
<totfact> 0.22692953E+04</totfact>
</mgrwt>
</event>
<event>
 8    1  0.9529436E-006  0.2971231E+03  0.7546771E-02  0.1086688E+00
         21   -1    0    0  504  503  0.00000000000E+00  0.00000000000E+00  0.18930207628E+03  0.18930207628E+03  0.00000000000E+00 0. -1.
         21   -1    0    0  503  504 -0.00000000000E+00 -0.00000000000E+00 -0.11658893494E+03  0.11658893494E+03  0.00000000000E+00 0. -1.
         25    2    1    2    0    0 -0.45608124840E+02  0.19054688260E+01 -0.31728512597E+02  0.13679245323E+03  0.12498697886E+03 0.  0.
         25    2    1    2    0    0  0.45608124840E+02 -0.19054688260E+01  0.10444165394E+03  0.16909855799E+03  0.12491009316E+03 0.  0.
          5    1    3    3  501    0  0.56771335298E+01 -0.55381685502E+02 -0.16643827575E+02  0.58296380081E+02  0.47000000000E+01 0.  1.
         -5    1    3    3    0  501 -0.51285258370E+02  0.57287154328E+02 -0.15084685022E+02  0.78496073146E+02  0.47000000000E+01 0.  1.
          5    1    4    4  502    0 -0.81077417900E+01  0.28063780620E+02  0.10324105461E+03  0.10739700469E+03  0.47000000000E+01 0. -1.
         -5    1    4    4    0  502  0.53715866630E+02 -0.29969249446E+02  0.12005993283E+01  0.61701553294E+02  0.47000000000E+01 0. -1.
<mgrwt>
<rscale>  0 0.29712306E+03</rscale>
<asrwt>0</asrwt>
<pdfrwt beam="1">  1       21 0.29123396E-01 0.29712306E+03</pdfrwt>
<pdfrwt beam="2">  1       21 0.17936759E-01 0.29712306E+03</pdfrwt>
<totfact> 0.31153638E+05</totfact>
</mgrwt>
</event>
<event>
 8    1  0.9529436E-006  0.2697184E+03  0.7546771E-02  0.1101441E+00
         21   -1    0    0  504  503  0.00000000000E+00  0.00000000000E+00  0.34014795619E+03  0.34014795619E+03  0.00000000000E+00 0. -1.
         21   -1    0    0  503  504 -0.00000000000E+00 -0.00000000000E+00 -0.53467917774E+02  0.53467917774E+02  0.00000000000E+00 0. -1.
         25    2    1    2    0    0 -0.45456545394E+01  0.19121872801E+02  0.21141762463E+03  0.24638615623E+03  0.12498966749E+03 0.  0.
         25    2    1    2    0    0  0.45456545394E+01 -0.19121872801E+02  0.75262413785E+02  0.14722971774E+03  0.12500339940E+03 0.  0.
          5    1    3    3  501    0  0.26602518471E+02 -0.73445233685E+01  0.20232179075E+03  0.20424943825E+03  0.47000000000E+01 0. -1.
         -5    1    3    3    0  501 -0.31148173010E+02  0.26466396170E+02  0.90958338865E+01  0.42136717981E+02  0.47000000000E+01 0. -1.
          5    1    4    4  502    0  0.44451629076E+02 -0.51534003738E+02  0.65729638384E+02  0.94732128820E+02  0.47000000000E+01 0. -1.
         -5    1    4    4    0  502 -0.39905974536E+02  0.32412130937E+02  0.95327754014E+01  0.52497588920E+02  0.47000000000E+01 0. -1.
<mgrwt>
<rscale>  0 0.26971839E+03</rscale>
<asrwt>0</asrwt>
<pdfrwt beam="1">  1       21 0.52330453E-01 0.26971839E+03</pdfrwt>
<pdfrwt beam="2">  1       21 0.82258337E-02 0.26971839E+03</pdfrwt>
<totfact> 0.38925747E+05</totfact>
</mgrwt>
</event>
<event>
 8    1  0.9529436E-006  0.2640566E+03  0.7546771E-02  0.1104730E+00
         21   -1    0    0  504  503  0.00000000000E+00  0.00000000000E+00  0.17114380363E+03  0.17114380363E+03  0.00000000000E+00 0.  1.
         21   -1    0    0  503  504 -0.00000000000E+00 -0.00000000000E+00 -0.10185277742E+03  0.10185277742E+03  0.00000000000E+00 0.  1.
         25    2    1    2    0    0 -0.40594169160E+02  0.73079229405E+01  0.45203567882E+02  0.13917322888E+03  0.12499813110E+03 0.  0.
         25    2    1    2    0    0  0.40594169160E+02 -0.73079229405E+01  0.24087458335E+02  0.13382335217E+03  0.12500876621E+03 0.  0.
          5    1    3    3  501    0 -0.16580428860E+01  0.14457439100E+02  0.82905281050E+02  0.84303868698E+02  0.47000000000E+01 0. -1.
         -5    1    3    3    0  501 -0.38936126274E+02 -0.71495161592E+01 -0.37701713168E+02  0.54869360178E+02  0.47000000000E+01 0. -1.
          5    1    4    4  502    0  0.73884185485E+02 -0.11376260757E+02  0.50957675944E+02  0.90592863467E+02  0.47000000000E+01 0.  1.
         -5    1    4    4    0  502 -0.33290016325E+02  0.40683378161E+01 -0.26870217608E+02  0.43230488707E+02  0.47000000000E+01 0.  1.
<mgrwt>
<rscale>  0 0.26405660E+03</rscale>
<asrwt>0</asrwt>
<pdfrwt beam="1">  1       21 0.26329816E-01 0.26405660E+03</pdfrwt>
<pdfrwt beam="2">  1       21 0.15669658E-01 0.26405660E+03</pdfrwt>
<totfact> 0.49003926E+05</totfact>
</mgrwt>
</event>
<event>
 8    1  0.9529436E-006  0.2671816E+03  0.7546771E-02  0.1102904E+00
         21   -1    0    0  504  503  0.00000000000E+00  0.00000000000E+00  0.85175160354E+02  0.85175160354E+02  0.00000000000E+00 0.  1.
         21   -1    0    0  503  504 -0.00000000000E+00 -0.00000000000E+00 -0.20952702340E+03  0.20952702340E+03  0.00000000000E+00 0.  1.
         25    2    1    2    0    0 -0.24014710173E+02 -0.36881807649E+02 -0.80828539136E+02  0.15522108621E+03  0.12499343512E+03 0.  0.
         25    2    1    2    0    0  0.24014710173E+02  0.36881807649E+02 -0.43523323913E+02  0.13948109755E+03  0.12499489113E+03 0.  0.
          5    1    3    3  501    0 -0.27447997178E+02  0.41806290982E+02 -0.48898702448E+02  0.70102293941E+02  0.47000000000E+01 0.  1.
         -5    1    3    3    0  501  0.34332870054E+01 -0.78688098631E+02 -0.31929836688E+02  0.85118792265E+02  0.47000000000E+01 0.  1.
          5    1    4    4  502    0  0.49624955250E+02  0.69106115855E+01  0.28065067490E+02  0.57620575746E+02  0.47000000000E+01 0.  1.
         -5    1    4    4    0  502 -0.25610245077E+02  0.29971196063E+02 -0.71588391404E+02  0.81860521805E+02  0.47000000000E+01 0.  1.
<mgrwt>
<rscale>  0 0.26718157E+03</rscale>
<asrwt>0</asrwt>
<pdfrwt beam="1">  1       21 0.13103871E-01 0.26718157E+03</pdfrwt>
<pdfrwt beam="2">  1       21 0.32234926E-01 0.26718157E+03</pdfrwt>
<totfact> 0.45701508E+05</totfact>
</mgrwt>
</event>
<event>
 8    1  0.9529436E-006  0.2860891E+03  0.7546771E-02  0.1092409E+00
         21   -1    0    0  504  503  0.00000000000E+00  0.00000000000E+00  0.26167053000E+04  0.26167053000E+04  0.00000000000E+00 0. -1.
         21   -1    0    0  503  504 -0.00000000000E+00 -0.00000000000E+00 -0.78196597219E+01  0.78196597219E+01  0.00000000000E+00 0. -1.
         25    2    1    2    0    0 -0.87864748861E+01 -0.24381889334E+02  0.71240368365E+03  0.72375121124E+03  0.12500051447E+03 0.  0.
         25    2    1    2    0    0  0.87864748861E+01  0.24381889334E+02  0.18964819567E+04  0.19007737485E+04  0.12500140982E+03 0.  0.
          5    1    3    3  501    0  0.57737534732E+02 -0.82179322338E+01  0.29527581178E+03  0.30101669779E+03  0.47000000000E+01 0. -1.
         -5    1    3    3    0  501 -0.66524009618E+02 -0.16163957100E+02  0.41712787188E+03  0.42273451345E+03  0.47000000000E+01 0. -1.
          5    1    4    4  502    0 -0.26754059291E+02  0.47033239503E+02  0.39766537097E+03  0.40135737514E+03  0.47000000000E+01 0. -1.
         -5    1    4    4    0  502  0.35540534177E+02 -0.22651350169E+02  0.14988165857E+04  0.14994163734E+04  0.47000000000E+01 0. -1.
<mgrwt>
<rscale>  0 0.28608911E+03</rscale>
<asrwt>0</asrwt>
<pdfrwt beam="1">  1       21 0.40256935E+00 0.28608911E+03</pdfrwt>
<pdfrwt beam="2">  1       21 0.12030267E-02 0.28608911E+03</pdfrwt>
<totfact> 0.21407028E+04</totfact>
</mgrwt>
</event>
<event>
 8    1  0.9529436E-006  0.2533249E+03  0.7546771E-02  0.1111221E+00
         21   -1    0    0  504  503  0.00000000000E+00  0.00000000000E+00  0.15104307662E+04  0.15104307662E+04  0.00000000000E+00 0. -1.
         21   -1    0    0  503  504 -0.00000000000E+00 -0.00000000000E+00 -0.10621718843E+02  0.10621718843E+02  0.00000000000E+00 0. -1.
         25    2    1    2    0    0  0.13774307651E+01  0.20209138929E+02  0.76723339174E+03  0.77761274716E+03  0.12499680210E+03 0.  0.
         25    2    1    2    0    0 -0.13774307651E+01 -0.20209138929E+02  0.73257565560E+03  0.74343973787E+03  0.12500098419E+03 0.  0.
          5    1    3    3  501    0  0.68334278401E+01 -0.46397664720E+02  0.49573711317E+03  0.49797270448E+03  0.47000000000E+01 0.  1.
         -5    1    3    3    0  501 -0.54559970751E+01  0.66606803649E+02  0.27149627856E+03  0.27964004268E+03  0.47000000000E+01 0.  1.
          5    1    4    4  502    0  0.76829477646E+01 -0.28867702308E+02  0.37223821523E+02  0.47959095193E+02  0.47000000000E+01 0. -1.
         -5    1    4    4    0  502 -0.90603785296E+01  0.86585633793E+01  0.69535183408E+03  0.69548064267E+03  0.47000000000E+01 0. -1.
<mgrwt>
<rscale>  0 0.25332486E+03</rscale>
<asrwt>0</asrwt>
<pdfrwt beam="1">  1       21 0.23237379E+00 0.25332486E+03</pdfrwt>
<pdfrwt beam="2">  1       21 0.16341118E-02 0.25332486E+03</pdfrwt>
<totfact> 0.13974546E+05</totfact>
</mgrwt>
</event>
<event>
 8    1  0.9529436E-006  0.2879418E+03  0.7546771E-02  0.1091429E+00
         21   -1    0    0  504  503  0.00000000000E+00  0.00000000000E+00  0.54005022446E+02  0.54005022446E+02  0.00000000000E+00 0.  1.
         21   -1    0    0  503  504 -0.00000000000E+00 -0.00000000000E+00 -0.38380911260E+03  0.38380911260E+03  0.00000000000E+00 0.  1.
         25    2    1    2    0    0  0.34733202182E+02  0.11098738049E+02 -0.25829966252E+03  0.28926478038E+03  0.12500328072E+03 0.  0.
         25    2    1    2    0    0 -0.34733202182E+02 -0.11098738049E+02 -0.71504427638E+02  0.14854935467E+03  0.12499780110E+03 0.  0.
          5    1    3    3  501    0  0.55031036511E+02  0.55642455626E+02 -0.18577088396E+03  0.20163682495E+03  0.47000000000E+01 0. -1.
         -5    1    3    3    0  501 -0.20297834328E+02 -0.44543717576E+02 -0.72528778558E+02  0.87627955432E+02  0.47000000000E+01 0. -1.
          5    1    4    4  502    0  0.58595431020E+01 -0.20115371259E+02 -0.97133092976E+02  0.99478088830E+02  0.47000000000E+01 0. -1.
         -5    1    4    4    0  502 -0.40592745284E+02  0.90166332095E+01  0.25628665338E+02  0.49071265840E+02  0.47000000000E+01 0. -1.
<mgrwt>
<rscale>  0 0.28794180E+03</rscale>
<asrwt>0</asrwt>
<pdfrwt beam="1">  1       21 0.83084653E-02 0.28794180E+03</pdfrwt>
<pdfrwt beam="2">  1       21 0.59047553E-01 0.28794180E+03</pdfrwt>
<totfact> 0.29430677E+05</totfact>
</mgrwt>
</event>
<event>
 8    1  0.9529436E-006  0.2912985E+03  0.7546771E-02  0.1089673E+00
         21   -1    0    0  504  503  0.00000000000E+00  0.00000000000E+00  0.42157694324E+03  0.42157694324E+03  0.00000000000E+00 0. -1.
         21   -1    0    0  503  504 -0.00000000000E+00 -0.00000000000E+00 -0.50319889576E+02  0.50319889576E+02  0.00000000000E+00 0. -1.
         25    2    1    2    0    0  0.35472421166E+02 -0.14957324452E+02  0.28943631584E+03  0.31761676142E+03  0.12500004794E+03 0.  0.
         25    2    1    2    0    0 -0.35472421166E+02  0.14957324452E+02  0.81820737819E+02  0.15428007140E+03  0.12500277227E+03 0.  0.
          5    1    3    3  501    0  0.12652182345E+02 -0.52811199921E+02  0.25667325572E+03  0.26239731470E+03  0.47000000000E+01 0. -1.
         -5    1    3    3    0  501  0.22820238821E+02  0.37853875469E+02  0.32763060118E+02  0.55219446722E+02  0.47000000000E+01 0. -1.
          5    1    4    4  502    0 -0.29767943196E+02  0.62474873931E+02  0.80378019003E+02  0.10616946950E+03  0.47000000000E+01 0. -1.
         -5    1    4    4    0  502 -0.57044779699E+01 -0.47517549479E+02  0.14427188155E+01  0.48110601898E+02  0.47000000000E+01 0. -1.
<mgrwt>
<rscale>  0 0.29129851E+03</rscale>
<asrwt>0</asrwt>
<pdfrwt beam="1">  1       21 0.64857989E-01 0.29129851E+03</pdfrwt>
<pdfrwt beam="2">  1       21 0.77415218E-02 0.29129851E+03</pdfrwt>
<totfact> 0.27134538E+05</totfact>
</mgrwt>
</event>
<event>
 8    1  0.9529436E-006  0.2696791E+03  0.7546771E-02  0.1101463E+00
         21   -1    0    0  504  503  0.00000000000E+00  0.00000000000E+00  0.31899497732E+04  0.31899497732E+04  0.00000000000E+00 0.  1.
         21   -1    0    0  503  504 -0.00000000000E+00 -0.00000000000E+00 -0.56996844614E+01  0.56996844614E+01  0.00000000000E+00 0.  1.
         25    2    1    2    0    0  0.31941700881E+02  0.16991137540E+02  0.11735877265E+04  0.11807803575E+04  0.12500051890E+03 0.  0.
         25    2    1    2    0    0 -0.31941700881E+02 -0.16991137540E+02  0.20106623622E+04  0.20148691002E+04  0.12500154030E+03 0.  0.
          5    1    3    3  501    0 -0.86295064753E+01  0.32443655046E+02  0.87830475033E+02  0.94145321070E+02  0.47000000000E+01 0. -1.
         -5    1    3    3    0  501  0.40571207356E+02 -0.15452517506E+02  0.10857572515E+04  0.10866350364E+04  0.47000000000E+01 0. -1.
          5    1    4    4  502    0 -0.79995162619E+02 -0.15168035880E+02  0.12001988680E+04  0.12029666280E+04  0.47000000000E+01 0.  1.
         -5    1    4    4    0  502  0.48053461738E+02 -0.18231016597E+01  0.81046349415E+03  0.81190247212E+03  0.47000000000E+01 0.  1.
<mgrwt>
<rscale>  0 0.26967912E+03</rscale>
<asrwt>0</asrwt>
<pdfrwt beam="1">  1       21 0.49076008E+00 0.26967912E+03</pdfrwt>
<pdfrwt beam="2">  1       21 0.87687708E-03 0.26967912E+03</pdfrwt>
<totfact> 0.93053190E+03</totfact>
</mgrwt>
</event>
<event>
 8    1  0.9529436E-006  0.3303820E+03  0.7546771E-02  0.1070968E+00
         21   -1    0    0  504  503  0.00000000000E+00  0.00000000000E+00  0.39956248444E+02  0.39956248444E+02  0.00000000000E+00 0. -1.
         21   -1    0    0  503  504 -0.00000000000E+00 -0.00000000000E+00 -0.68294881573E+03  0.68294881573E+03  0.00000000000E+00 0. -1.
         25    2    1    2    0    0  0.24596096172E+02  0.40696558988E+02 -0.53348418069E+03  0.54999322683E+03  0.12500400251E+03 0.  0.
         25    2    1    2    0    0 -0.24596096172E+02 -0.40696558988E+02 -0.10950838659E+03  0.17291183735E+03  0.12508092941E+03 0.  0.
          5    1    3    3  501    0  0.31597663857E+02  0.60315020239E+02 -0.52059647667E+03  0.52505151704E+03  0.47000000000E+01 0. -1.
         -5    1    3    3    0  501 -0.70015676852E+01 -0.19618461251E+02 -0.12887704025E+02  0.24941709784E+02  0.47000000000E+01 0. -1.
          5    1    4    4  502    0  0.35338903177E+02 -0.45485703334E+02 -0.94487511902E+02  0.11075995301E+03  0.47000000000E+01 0.  1.
         -5    1    4    4    0  502 -0.59934999348E+02  0.47891443458E+01 -0.15020874690E+02  0.62151884339E+02  0.47000000000E+01 0.  1.
<mgrwt>
<rscale>  0 0.33038204E+03</rscale>
<asrwt>0</asrwt>
<pdfrwt beam="1">  1       21 0.61471149E-02 0.33038204E+03</pdfrwt>
<pdfrwt beam="2">  1       21 0.10506905E+00 0.33038204E+03</pdfrwt>
<totfact> 0.13197854E+05</totfact>
</mgrwt>
</event>
<event>
 8    1  0.9529436E-006  0.2772952E+03  0.7546771E-02  0.1097175E+00
         21   -1    0    0  504  503  0.00000000000E+00  0.00000000000E+00  0.17120695080E+03  0.17120695080E+03  0.00000000000E+00 0. -1.
         21   -1    0    0  503  504 -0.00000000000E+00 -0.00000000000E+00 -0.11228021425E+03  0.11228021425E+03  0.00000000000E+00 0. -1.
         25    2    1    2    0    0  0.57933530313E+00 -0.58251977064E+02  0.44129627965E+02  0.14479335722E+03  0.12499625502E+03 0.  0.
         25    2    1    2    0    0 -0.57933530313E+00  0.58251977064E+02  0.14797108579E+02  0.13869380783E+03  0.12499355762E+03 0.  0.
          5    1    3    3  501    0  0.59085842566E+02 -0.22943787057E+02  0.42157273484E+02  0.76268472280E+02  0.47000000000E+01 0.  1.
         -5    1    3    3    0  501 -0.58506507263E+02 -0.35308190007E+02  0.19723544809E+01  0.68524884939E+02  0.47000000000E+01 0.  1.
          5    1    4    4  502    0 -0.39259645619E+02  0.17404465235E+00 -0.35026771846E+02  0.52823430518E+02  0.47000000000E+01 0. -1.
         -5    1    4    4    0  502  0.38680310316E+02  0.58077932412E+02  0.49823880426E+02  0.85870377314E+02  0.47000000000E+01 0. -1.
<mgrwt>
<rscale>  0 0.27729517E+03</rscale>
<asrwt>0</asrwt>
<pdfrwt beam="1">  1       21 0.26339531E-01 0.27729517E+03</pdfrwt>
<pdfrwt beam="2">  1       21 0.17273879E-01 0.27729517E+03</pdfrwt>
<totfact> 0.40797679E+05</totfact>
</mgrwt>
</event>
<event>
 8    1  0.9529436E-006  0.3097827E+03  0.7546771E-02  0.1080450E+00
         21   -1    0    0  504  503  0.00000000000E+00  0.00000000000E+00  0.64978883346E+02  0.64978883346E+02  0.00000000000E+00 0.  1.
         21   -1    0    0  503  504 -0.00000000000E+00 -0.00000000000E+00 -0.36921729889E+03  0.36921729889E+03  0.00000000000E+00 0.  1.
         25    2    1    2    0    0  0.12731780514E+02  0.80869394208E+02 -0.20928665575E+03  0.25715612143E+03  0.12500563732E+03 0.  0.
         25    2    1    2    0    0 -0.12731780514E+02 -0.80869394208E+02 -0.94951759791E+02  0.17704006080E+03  0.12500155713E+03 0.  0.
          5    1    3    3  501    0  0.25260174347E+02  0.32217393917E+02  0.67756270080E+00  0.41213905057E+02  0.47000000000E+01 0.  1.
         -5    1    3    3    0  501 -0.12528393833E+02  0.48652000292E+02 -0.20996421845E+03  0.21594221638E+03  0.47000000000E+01 0.  1.
          5    1    4    4  502    0  0.22824959601E+02 -0.37316609626E+02  0.20502033898E+02  0.48537939066E+02  0.47000000000E+01 0.  1.
         -5    1    4    4    0  502 -0.35556740116E+02 -0.43552784582E+02 -0.11545379369E+03  0.12850212173E+03  0.47000000000E+01 0.  1.
<mgrwt>
<rscale>  0 0.30978268E+03</rscale>
<asrwt>0</asrwt>
<pdfrwt beam="1">  1       21 0.99967513E-02 0.30978268E+03</pdfrwt>
<pdfrwt beam="2">  1       21 0.56802661E-01 0.30978268E+03</pdfrwt>
<totfact> 0.22946014E+05</totfact>
</mgrwt>
</event>
<event>
 8    1  0.9529436E-006  0.2599134E+03  0.7546771E-02  0.1107195E+00
         21   -1    0    0  504  503  0.00000000000E+00  0.00000000000E+00  0.18547641251E+03  0.18547641251E+03  0.00000000000E+00 0. -1.
         21   -1    0    0  503  504 -0.00000000000E+00 -0.00000000000E+00 -0.91056043259E+02  0.91056043259E+02  0.00000000000E+00 0. -1.
         25    2    1    2    0    0 -0.86224466309E+01 -0.34224760059E+02  0.42591745648E+02  0.13668480359E+03  0.12499199153E+03 0.  0.
         25    2    1    2    0    0  0.86224466309E+01  0.34224760059E+02  0.51828623605E+02  0.13984765218E+03  0.12500191522E+03 0.  0.
          5    1    3    3  501    0  0.93721309473E+01  0.29991578931E+02  0.59741958661E+02  0.67664786041E+02  0.47000000000E+01 0.  1.
         -5    1    3    3    0  501 -0.17994577578E+02 -0.64216338991E+02 -0.17150213013E+02  0.69020017545E+02  0.47000000000E+01 0.  1.
          5    1    4    4  502    0  0.57872648635E+02 -0.15029339325E+02  0.26699947357E+02  0.65651364719E+02  0.47000000000E+01 0.  1.
         -5    1    4    4    0  502 -0.49250202004E+02  0.49254099385E+02  0.25128676248E+02  0.74196287465E+02  0.47000000000E+01 0.  1.
<mgrwt>
<rscale>  0 0.25991343E+03</rscale>
<asrwt>0</asrwt>
<pdfrwt beam="1">  1       21 0.28534833E-01 0.25991343E+03</pdfrwt>
<pdfrwt beam="2">  1       21 0.14008622E-01 0.25991343E+03</pdfrwt>
<totfact> 0.51503113E+05</totfact>
</mgrwt>
</event>
<event>
 8    1  0.9529436E-006  0.2731251E+03  0.7546771E-02  0.1099504E+00
         21   -1    0    0  504  503  0.00000000000E+00  0.00000000000E+00  0.64580878577E+02  0.64580878577E+02  0.00000000000E+00 0.  1.
         21   -1    0    0  503  504 -0.00000000000E+00 -0.00000000000E+00 -0.28877477207E+03  0.28877477207E+03  0.00000000000E+00 0.  1.
         25    2    1    2    0    0  0.13370146866E+02 -0.50650451071E+02 -0.13294941405E+03  0.18989791657E+03  0.12506575471E+03 0.  0.
         25    2    1    2    0    0 -0.13370146866E+02  0.50650451071E+02 -0.91244479438E+02  0.16345773407E+03  0.12509455136E+03 0.  0.
          5    1    3    3  501    0  0.63754745797E+02 -0.26613411106E+02 -0.10863306670E+03  0.12882614037E+03  0.47000000000E+01 0. -1.
         -5    1    3    3    0  501 -0.50384598931E+02 -0.24037039964E+02 -0.24316347352E+02  0.61071776200E+02  0.47000000000E+01 0. -1.
          5    1    4    4  502    0  0.29052133015E+01  0.27743436588E+02  0.28627655712E+02  0.40246381323E+02  0.47000000000E+01 0. -1.
         -5    1    4    4    0  502 -0.16275360168E+02  0.22907014483E+02 -0.11987213515E+03  0.12321135275E+03  0.47000000000E+01 0. -1.
<mgrwt>
<rscale>  0 0.27312509E+03</rscale>
<asrwt>0</asrwt>
<pdfrwt beam="1">  1       21 0.99355199E-02 0.27312509E+03</pdfrwt>
<pdfrwt beam="2">  1       21 0.44426887E-01 0.27312509E+03</pdfrwt>
<totfact> 0.39236141E+05</totfact>
</mgrwt>
</event>
<event>
 8    1  0.9529436E-006  0.2733187E+03  0.7546771E-02  0.1099395E+00
         21   -1    0    0  504  503  0.00000000000E+00  0.00000000000E+00  0.12559967367E+03  0.12559967367E+03  0.00000000000E+00 0. -1.
         21   -1    0    0  503  504 -0.00000000000E+00 -0.00000000000E+00 -0.14869284630E+03  0.14869284630E+03  0.00000000000E+00 0. -1.
         25    2    1    2    0    0 -0.25655084304E+01  0.45171372254E+02  0.20237825028E+02  0.13446558697E+03  0.12499755922E+03 0.  0.
         25    2    1    2    0    0  0.25655084304E+01 -0.45171372254E+02 -0.43330997650E+02  0.13982693300E+03  0.12500784428E+03 0.  0.
          5    1    3    3  501    0 -0.11665450059E+02  0.85084783551E+02 -0.49828144225E+01  0.86153476753E+02  0.47000000000E+01 0. -1.
         -5    1    3    3    0  501  0.90999416284E+01 -0.39913411297E+02  0.25220639450E+02  0.48312110214E+02  0.47000000000E+01 0. -1.
          5    1    4    4  502    0  0.57569659260E+02 -0.10548548382E+02  0.46559841003E+01  0.58900812628E+02  0.47000000000E+01 0.  1.
         -5    1    4    4    0  502 -0.55004150830E+02 -0.34622823872E+02 -0.47986981751E+02  0.80926120375E+02  0.47000000000E+01 0.  1.
<mgrwt>
<rscale>  0 0.27331866E+03</rscale>
<asrwt>0</asrwt>
<pdfrwt beam="1">  1       21 0.19323027E-01 0.27331866E+03</pdfrwt>
<pdfrwt beam="2">  1       21 0.22875823E-01 0.27331866E+03</pdfrwt>
<totfact> 0.43421900E+05</totfact>
</mgrwt>
</event>
<event>
 8    1  0.9529436E-006  0.2586296E+03  0.7546771E-02  0.1107969E+00
         21   -1    0    0  504  503  0.00000000000E+00  0.00000000000E+00  0.18444994135E+02  0.18444994135E+02  0.00000000000E+00 0. -1.
         21   -1    0    0  503  504 -0.00000000000E+00 -0.00000000000E+00 -0.90660473846E+03  0.90660473846E+03  0.00000000000E+00 0. -1.
         25    2    1    2    0    0 -0.23551799092E+02  0.18796978774E+01 -0.36100535004E+03  0.38276317745E+03  0.12499826699E+03 0.  0.
         25    2    1    2    0    0  0.23551799092E+02 -0.18796978774E+01 -0.52715439428E+03  0.54228655514E+03  0.12499892788E+03 0.  0.
          5    1    3    3  501    0  0.80839993101E+01 -0.52255196102E+02 -0.89385299526E+02  0.10396046525E+03  0.47000000000E+01 0.  1.
         -5    1    3    3    0  501 -0.31635798402E+02  0.54134893980E+02 -0.27162005051E+03  0.27880271220E+03  0.47000000000E+01 0.  1.
          5    1    4    4  502    0  0.23580848986E+02 -0.15603018640E+02 -0.52700093941E+03  0.52777986961E+03  0.47000000000E+01 0.  1.
         -5    1    4    4    0  502 -0.29049893949E-01  0.13723320763E+02 -0.15345487259E+00  0.14506685529E+02  0.47000000000E+01 0.  1.
<mgrwt>
<rscale>  0 0.25862961E+03</rscale>
<asrwt>0</asrwt>
<pdfrwt beam="1">  1       21 0.28376913E-02 0.25862961E+03</pdfrwt>
<pdfrwt beam="2">  1       21 0.13947766E+00 0.25862961E+03</pdfrwt>
<totfact> 0.24501645E+05</totfact>
</mgrwt>
</event>
<event>
 8    1  0.9529436E-006  0.2535784E+03  0.7546771E-02  0.1111064E+00
         21   -1    0    0  504  503  0.00000000000E+00  0.00000000000E+00  0.35754079377E+03  0.35754079377E+03  0.00000000000E+00 0. -1.
         21   -1    0    0  503  504 -0.00000000000E+00 -0.00000000000E+00 -0.44961320043E+02  0.44961320043E+02  0.00000000000E+00 0. -1.
         25    2    1    2    0    0  0.17054880800E+02  0.26756011712E+01  0.17594364615E+03  0.21651648330E+03  0.12500077249E+03 0.  0.
         25    2    1    2    0    0 -0.17054880800E+02 -0.26756011712E+01  0.13663582759E+03  0.18598563051E+03  0.12499311012E+03 0.  0.
          5    1    3    3  501    0  0.21812454015E+02  0.43923850584E+01  0.19496187264E+03  0.19628371807E+03  0.47000000000E+01 0. -1.
         -5    1    3    3    0  501 -0.47575732156E+01 -0.17167838872E+01 -0.19018226496E+02  0.20232765230E+02  0.47000000000E+01 0. -1.
          5    1    4    4  502    0 -0.63731705731E+01  0.53902474709E+02  0.24276048475E+02  0.59644870798E+02  0.47000000000E+01 0.  1.
         -5    1    4    4    0  502 -0.10681710226E+02 -0.56578075880E+02  0.11235977911E+03  0.12634075972E+03  0.47000000000E+01 0.  1.
<mgrwt>
<rscale>  0 0.25357844E+03</rscale>
<asrwt>0</asrwt>
<pdfrwt beam="1">  1       21 0.55006274E-01 0.25357844E+03</pdfrwt>
<pdfrwt beam="2">  1       21 0.69171264E-02 0.25357844E+03</pdfrwt>
<totfact> 0.47537506E+05</totfact>
</mgrwt>
</event>
<event>
 8    1  0.9529436E-006  0.2692752E+03  0.7546771E-02  0.1101695E+00
         21   -1    0    0  504  503  0.00000000000E+00  0.00000000000E+00  0.11391012986E+02  0.11391012986E+02  0.00000000000E+00 0. -1.
         21   -1    0    0  503  504 -0.00000000000E+00 -0.00000000000E+00 -0.15913669139E+04  0.15913669139E+04  0.00000000000E+00 0. -1.
         25    2    1    2    0    0  0.49633449716E+02 -0.20298755260E+01 -0.82458501470E+03  0.83548384611E+03  0.12500084369E+03 0.  0.
         25    2    1    2    0    0 -0.49633449716E+02  0.20298755260E+01 -0.75539088620E+03  0.76727408076E+03  0.12500609715E+03 0.  0.
          5    1    3    3  501    0  0.30618089663E+02 -0.49215542698E+02 -0.67326748694E+03  0.67577424930E+03  0.47000000000E+01 0.  1.
         -5    1    3    3    0  501  0.19015360054E+02  0.47185667172E+02 -0.15131752776E+03  0.15970959681E+03  0.47000000000E+01 0.  1.
          5    1    4    4  502    0 -0.22203906339E+02  0.24024502460E+02 -0.44153079404E+02  0.55152285501E+02  0.47000000000E+01 0.  1.
         -5    1    4    4    0  502 -0.27429543378E+02 -0.21994626934E+02 -0.71123780680E+03  0.71212179526E+03  0.47000000000E+01 0.  1.
<mgrwt>
<rscale>  0 0.26927518E+03</rscale>
<asrwt>0</asrwt>
<pdfrwt beam="1">  1       21 0.17524643E-02 0.26927518E+03</pdfrwt>
<pdfrwt beam="2">  1       21 0.24482558E+00 0.26927518E+03</pdfrwt>
<totfact> 0.10399739E+05</totfact>
</mgrwt>
</event>
<event>
 8    1  0.9529436E-006  0.2734134E+03  0.7546771E-02  0.1099342E+00
         21   -1    0    0  504  503  0.00000000000E+00  0.00000000000E+00  0.11640575532E+04  0.11640575532E+04  0.00000000000E+00 0. -1.
         21   -1    0    0  503  504 -0.00000000000E+00 -0.00000000000E+00 -0.16054803823E+02  0.16054803823E+02  0.00000000000E+00 0. -1.
         25    2    1    2    0    0 -0.19774757598E+02 -0.29850879219E+02  0.75633834954E+03  0.76743550042E+03  0.12500972877E+03 0.  0.
         25    2    1    2    0    0  0.19774757598E+02  0.29850879219E+02  0.39166439984E+03  0.41267685661E+03  0.12497627715E+03 0.  0.
          5    1    3    3  501    0 -0.52976799776E+02 -0.74644830015E+01  0.66997570774E+03  0.67212483869E+03  0.47000000000E+01 0.  1.
         -5    1    3    3    0  501  0.33202042179E+02 -0.22386396218E+02  0.86362641805E+02  0.95310661733E+02  0.47000000000E+01 0.  1.
          5    1    4    4  502    0  0.18505919281E+02 -0.44219801079E+02  0.22700711057E+03  0.23206072073E+03  0.47000000000E+01 0. -1.
         -5    1    4    4    0  502  0.12688383165E+01  0.74070680298E+02  0.16465728927E+03  0.18061613588E+03  0.47000000000E+01 0. -1.
<mgrwt>
<rscale>  0 0.27341335E+03</rscale>
<asrwt>0</asrwt>
<pdfrwt beam="1">  1       21 0.17908571E+00 0.27341335E+03</pdfrwt>
<pdfrwt beam="2">  1       21 0.24699707E-02 0.27341335E+03</pdfrwt>
<totfact> 0.15540469E+05</totfact>
</mgrwt>
</event>
<event>
 8    1  0.9529436E-006  0.2909532E+03  0.7546771E-02  0.1089853E+00
         21   -1    0    0  504  503  0.00000000000E+00  0.00000000000E+00  0.12255848141E+03  0.12255848141E+03  0.00000000000E+00 0. -1.
         21   -1    0    0  503  504 -0.00000000000E+00 -0.00000000000E+00 -0.17268037057E+03  0.17268037057E+03  0.00000000000E+00 0. -1.
         25    2    1    2    0    0  0.78363766019E+01 -0.65459286043E+02 -0.60099818713E+02  0.15357763933E+03  0.12501110417E+03 0.  0.
         25    2    1    2    0    0 -0.78363766019E+01  0.65459286043E+02  0.99779295491E+01  0.14166121266E+03  0.12498805209E+03 0.  0.
          5    1    3    3  501    0  0.19275007050E+02 -0.98823003629E+02 -0.61307146245E+02  0.11797528607E+03  0.47000000000E+01 0. -1.
         -5    1    3    3    0  501 -0.11438630449E+02  0.33363717585E+02  0.12073275325E+01  0.35602353257E+02  0.47000000000E+01 0. -1.
          5    1    4    4  502    0  0.47935817793E+02  0.69996166350E+02  0.24207091562E+01  0.85001504481E+02  0.47000000000E+01 0.  1.
         -5    1    4    4    0  502 -0.55772194395E+02 -0.45368803071E+01  0.75572203928E+01  0.56659708176E+02  0.47000000000E+01 0.  1.
<mgrwt>
<rscale>  0 0.29095322E+03</rscale>
<asrwt>0</asrwt>
<pdfrwt beam="1">  1       21 0.18855151E-01 0.29095322E+03</pdfrwt>
<pdfrwt beam="2">  1       21 0.26566211E-01 0.29095322E+03</pdfrwt>
<totfact> 0.33989104E+05</totfact>
</mgrwt>
</event>
<event>
 8    1  0.9529436E-006  0.2766551E+03  0.7546771E-02  0.1097530E+00
         21   -1    0    0  504  503  0.00000000000E+00  0.00000000000E+00  0.45463900357E+02  0.45463900357E+02  0.00000000000E+00 0. -1.
         21   -1    0    0  503  504 -0.00000000000E+00 -0.00000000000E+00 -0.42087249322E+03  0.42087249322E+03  0.00000000000E+00 0. -1.
         25    2    1    2    0    0  0.41534127963E+02  0.35078358174E+02 -0.22727715287E+03  0.26503229460E+03  0.12502654904E+03 0.  0.
         25    2    1    2    0    0 -0.41534127963E+02 -0.35078358174E+02 -0.14813144000E+03  0.20130409898E+03  0.12499936701E+03 0.  0.
          5    1    3    3  501    0  0.23963060851E+02  0.40795506779E+02 -0.12165575080E+02  0.49077417167E+02  0.47000000000E+01 0.  1.
         -5    1    3    3    0  501  0.17571067112E+02 -0.57171486050E+01 -0.21511157779E+03  0.21595487743E+03  0.47000000000E+01 0.  1.
          5    1    4    4  502    0 -0.25377182905E+02  0.35979824866E+02 -0.10510263744E+02  0.45509393025E+02  0.47000000000E+01 0.  1.
         -5    1    4    4    0  502 -0.16156945059E+02 -0.71058183040E+02 -0.13762117625E+03  0.15579470595E+03  0.47000000000E+01 0.  1.
<mgrwt>
<rscale>  0 0.27665506E+03</rscale>
<asrwt>0</asrwt>
<pdfrwt beam="1">  1       21 0.69944464E-02 0.27665506E+03</pdfrwt>
<pdfrwt beam="2">  1       21 0.64749613E-01 0.27665506E+03</pdfrwt>
<totfact> 0.32618835E+05</totfact>
</mgrwt>
</event>
<event>
 8    1  0.9529436E-006  0.2599424E+03  0.7546771E-02  0.1107178E+00
         21   -1    0    0  504  503  0.00000000000E+00  0.00000000000E+00  0.76199609860E+03  0.76199609860E+03  0.00000000000E+00 0.  1.
         21   -1    0    0  503  504 -0.00000000000E+00 -0.00000000000E+00 -0.22168772138E+02  0.22168772138E+02  0.00000000000E+00 0.  1.
         25    2    1    2    0    0 -0.11928300806E+02  0.32579082422E+02  0.34573385827E+03  0.36927028220E+03  0.12499983836E+03 0.  0.
         25    2    1    2    0    0  0.11928300806E+02 -0.32579082422E+02  0.39409346819E+03  0.41489458854E+03  0.12499670777E+03 0.  0.
          5    1    3    3  501    0  0.54899244812E+02  0.13829537677E+01  0.12891597867E+03  0.14020434800E+03  0.47000000000E+01 0.  1.
         -5    1    3    3    0  501 -0.66827545618E+02  0.31196128655E+02  0.21681787960E+03  0.22906593420E+03  0.47000000000E+01 0.  1.
          5    1    4    4  502    0  0.64697217437E+02  0.11610475470E+01  0.23673130949E+03  0.24546054850E+03  0.47000000000E+01 0.  1.
         -5    1    4    4    0  502 -0.52768916631E+02 -0.33740129969E+02  0.15736215870E+03  0.16943404004E+03  0.47000000000E+01 0.  1.
<mgrwt>
<rscale>  0 0.25994244E+03</rscale>
<asrwt>0</asrwt>
<pdfrwt beam="1">  1       21 0.11723015E+00 0.25994244E+03</pdfrwt>
<pdfrwt beam="2">  1       21 0.34105809E-02 0.25994244E+03</pdfrwt>
<totfact> 0.28027169E+05</totfact>
</mgrwt>
</event>
<event>
 8    1  0.9529436E-006  0.3673059E+03  0.7546771E-02  0.1055728E+00
         21   -1    0    0  504  503  0.00000000000E+00  0.00000000000E+00  0.10488920277E+03  0.10488920277E+03  0.00000000000E+00 0.  1.
         21   -1    0    0  503  504 -0.00000000000E+00 -0.00000000000E+00 -0.32156228990E+03  0.32156228990E+03  0.00000000000E+00 0.  1.
         25    2    1    2    0    0 -0.98760004547E+02  0.44012834003E+02 -0.20130090398E+03  0.26045522893E+03  0.12499681707E+03 0.  0.
         25    2    1    2    0    0  0.98760004547E+02 -0.44012834003E+02 -0.15372183150E+02  0.16599626375E+03  0.12501114954E+03 0.  0.
          5    1    3    3  501    0 -0.88468988025E+02 -0.20805666888E+02 -0.15588685569E+03  0.18050606470E+03  0.47000000000E+01 0. -1.
         -5    1    3    3    0  501 -0.10291016522E+02  0.64818500891E+02 -0.45414048290E+02  0.79949164229E+02  0.47000000000E+01 0. -1.
          5    1    4    4  502    0  0.30255552276E+02  0.19034631771E+02  0.42918676835E+02  0.56051926563E+02  0.47000000000E+01 0. -1.
         -5    1    4    4    0  502  0.68504452271E+02 -0.63047465774E+02 -0.58290859985E+02  0.10994433719E+03  0.47000000000E+01 0. -1.
<mgrwt>
<rscale>  0 0.36730593E+03</rscale>
<asrwt>0</asrwt>
<pdfrwt beam="1">  1       21 0.16136800E-01 0.36730593E+03</pdfrwt>
<pdfrwt beam="2">  1       21 0.49471121E-01 0.36730593E+03</pdfrwt>
<totfact> 0.12729916E+05</totfact>
</mgrwt>
</event>
<event>
 8    1  0.9529436E-006  0.3508105E+03  0.7546771E-02  0.1062283E+00
         21   -1    0    0  504  503  0.00000000000E+00  0.00000000000E+00  0.12324854883E+03  0.12324854883E+03  0.00000000000E+00 0. -1.
         21   -1    0    0  503  504 -0.00000000000E+00 -0.00000000000E+00 -0.24963372479E+03  0.24963372479E+03  0.00000000000E+00 0. -1.
         25    2    1    2    0    0  0.63606745068E+02  0.66961227931E+02  0.23242674175E+02  0.15714369753E+03  0.12499718279E+03 0.  0.
         25    2    1    2    0    0 -0.63606745068E+02 -0.66961227931E+02 -0.14962785014E+03  0.21573857609E+03  0.12500006244E+03 0.  0.
          5    1    3    3  501    0  0.34753393770E+02  0.23843466775E+02  0.73437409933E+02  0.84802431947E+02  0.47000000000E+01 0.  1.
         -5    1    3    3    0  501  0.28853351297E+02  0.43117761156E+02 -0.50194735758E+02  0.72341265582E+02  0.47000000000E+01 0.  1.
          5    1    4    4  502    0 -0.21218221774E+02 -0.59103499286E+02 -0.15931029235E+03  0.17130468707E+03  0.47000000000E+01 0.  1.
         -5    1    4    4    0  502 -0.42388523294E+02 -0.78577286450E+01  0.96824422073E+01  0.44433889022E+02  0.47000000000E+01 0.  1.
<mgrwt>
<rscale>  0 0.35081046E+03</rscale>
<asrwt>0</asrwt>
<pdfrwt beam="1">  1       21 0.18961315E-01 0.35081046E+03</pdfrwt>
<pdfrwt beam="2">  1       21 0.38405188E-01 0.35081046E+03</pdfrwt>
<totfact> 0.15976940E+05</totfact>
</mgrwt>
</event>
<event>
 8    1  0.9529436E-006  0.2832089E+03  0.7546771E-02  0.1093949E+00
         21   -1    0    0  504  503  0.00000000000E+00  0.00000000000E+00  0.38939296813E+02  0.38939296813E+02  0.00000000000E+00 0. -1.
         21   -1    0    0  503  504 -0.00000000000E+00 -0.00000000000E+00 -0.51495069924E+03  0.51495069924E+03  0.00000000000E+00 0. -1.
         25    2    1    2    0    0  0.19763957677E+02 -0.10785524006E+02 -0.36045000637E+03  0.38217671265E+03  0.12501156367E+03 0.  0.
         25    2    1    2    0    0 -0.19763957677E+02  0.10785524006E+02 -0.11556139606E+03  0.17171328340E+03  0.12499629549E+03 0.  0.
          5    1    3    3  501    0  0.94596885280E+01 -0.45316650685E+02 -0.45307240553E+02  0.64945520114E+02  0.47000000000E+01 0. -1.
         -5    1    3    3    0  501  0.10304269149E+02  0.34531126679E+02 -0.31514276582E+03  0.31723119254E+03  0.47000000000E+01 0. -1.
          5    1    4    4  502    0 -0.69939922254E+02  0.23849250375E+02 -0.77775494995E+02  0.10738480847E+03  0.47000000000E+01 0.  1.
         -5    1    4    4    0  502  0.50175964577E+02 -0.13063726369E+02 -0.37785901061E+02  0.64328474930E+02  0.47000000000E+01 0.  1.
<mgrwt>
<rscale>  0 0.28320888E+03</rscale>
<asrwt>0</asrwt>
<pdfrwt beam="1">  1       21 0.59906609E-02 0.28320888E+03</pdfrwt>
<pdfrwt beam="2">  1       21 0.79223187E-01 0.28320888E+03</pdfrwt>
<totfact> 0.27136864E+05</totfact>
</mgrwt>
</event>
<event>
 8    1  0.9529436E-006  0.3296288E+03  0.7546771E-02  0.1071301E+00
         21   -1    0    0  504  503  0.00000000000E+00  0.00000000000E+00  0.57622203139E+03  0.57622203139E+03  0.00000000000E+00 0.  1.
         21   -1    0    0  503  504 -0.00000000000E+00 -0.00000000000E+00 -0.47141169977E+02  0.47141169977E+02  0.00000000000E+00 0.  1.
         25    2    1    2    0    0 -0.90471514978E+02  0.57363768496E+02  0.24967749929E+03  0.29906821736E+03  0.12500899178E+03 0.  0.
         25    2    1    2    0    0  0.90471514978E+02 -0.57363768496E+02  0.27940336212E+03  0.32429498400E+03  0.12500120370E+03 0.  0.
          5    1    3    3  501    0 -0.11729095320E+03  0.22225640587E+02  0.19379616824E+03  0.22766245107E+03  0.47000000000E+01 0.  1.
         -5    1    3    3    0  501  0.26819438227E+02  0.35138127909E+02  0.55881331044E+02  0.71405766287E+02  0.47000000000E+01 0.  1.
          5    1    4    4  502    0  0.92451356142E+02 -0.76582404480E+02  0.14444232230E+03  0.18787706725E+03  0.47000000000E+01 0. -1.
         -5    1    4    4    0  502 -0.19798411645E+01  0.19218635984E+02  0.13496103982E+03  0.13641791675E+03  0.47000000000E+01 0. -1.
<mgrwt>
<rscale>  0 0.32962877E+03</rscale>
<asrwt>0</asrwt>
<pdfrwt beam="1">  1       21 0.88649538E-01 0.32962877E+03</pdfrwt>
<pdfrwt beam="2">  1       21 0.72524881E-02 0.32962877E+03</pdfrwt>
<totfact> 0.14850295E+05</totfact>
</mgrwt>
</event>
<event>
 8    1  0.9529436E-006  0.3101201E+03  0.7546771E-02  0.1080288E+00
         21   -1    0    0  504  503  0.00000000000E+00  0.00000000000E+00  0.80179770003E+02  0.80179770003E+02  0.00000000000E+00 0. -1.
         21   -1    0    0  503  504 -0.00000000000E+00 -0.00000000000E+00 -0.29987135933E+03  0.29987135933E+03  0.00000000000E+00 0. -1.
         25    2    1    2    0    0  0.22254306120E+02 -0.84415508044E+02 -0.14444735488E+03  0.21002737293E+03  0.12500090763E+03 0.  0.
         25    2    1    2    0    0 -0.22254306120E+02  0.84415508044E+02 -0.75244234437E+02  0.17002375640E+03  0.12500060314E+03 0.  0.
          5    1    3    3  501    0  0.21442636576E+02 -0.17337045163E+02  0.18643702677E+02  0.33616029626E+02  0.47000000000E+01 0. -1.
         -5    1    3    3    0  501  0.81166954413E+00 -0.67078462881E+02 -0.16309105756E+03  0.17641134331E+03  0.47000000000E+01 0. -1.
          5    1    4    4  502    0 -0.36272959116E+02 -0.21347125445E+02 -0.38074129102E+02  0.56948719342E+02  0.47000000000E+01 0. -1.
         -5    1    4    4    0  502  0.14018652996E+02  0.10576263349E+03 -0.37170105335E+02  0.11307503706E+03  0.47000000000E+01 0. -1.
<mgrwt>
<rscale>  0 0.31012008E+03</rscale>
<asrwt>0</asrwt>
<pdfrwt beam="1">  1       21 0.12335349E-01 0.31012008E+03</pdfrwt>
<pdfrwt beam="2">  1       21 0.46134055E-01 0.31012008E+03</pdfrwt>
<totfact> 0.24422347E+05</totfact>
</mgrwt>
</event>
<event>
 8    1  0.9529436E-006  0.4244806E+03  0.7546771E-02  0.1035618E+00
         21   -1    0    0  504  503  0.00000000000E+00  0.00000000000E+00  0.47702946654E+03  0.47702946654E+03  0.00000000000E+00 0.  1.
         21   -1    0    0  503  504 -0.00000000000E+00 -0.00000000000E+00 -0.94430106725E+02  0.94430106725E+02  0.00000000000E+00 0.  1.
         25    2    1    2    0    0 -0.42231777367E+01  0.17692675912E+02 -0.38292464087E+02  0.13202414595E+03  0.12503278088E+03 0.  0.
         25    2    1    2    0    0  0.42231777367E+01 -0.17692675912E+02  0.42089182390E+03  0.43943542732E+03  0.12499080504E+03 0.  0.
          5    1    3    3  501    0 -0.19616955267E+02  0.30544828604E+02  0.38140872097E+02  0.52864237559E+02  0.47000000000E+01 0.  1.
         -5    1    3    3    0  501  0.15393777530E+02 -0.12852152692E+02 -0.76433336184E+02  0.79159908386E+02  0.47000000000E+01 0.  1.
          5    1    4    4  502    0  0.47288282775E+02  0.36659723982E+01  0.66777663215E+02  0.82042472817E+02  0.47000000000E+01 0. -1.
         -5    1    4    4    0  502 -0.43065105038E+02 -0.21358648310E+02  0.35411416069E+03  0.35739295450E+03  0.47000000000E+01 0. -1.
<mgrwt>
<rscale>  0 0.42448059E+03</rscale>
<asrwt>0</asrwt>
<pdfrwt beam="1">  1       21 0.73389148E-01 0.42448059E+03</pdfrwt>
<pdfrwt beam="2">  1       21 0.14527709E-01 0.42448059E+03</pdfrwt>
<totfact> 0.64448736E+04</totfact>
</mgrwt>
</event>
<event>
 8    1  0.9529436E-006  0.3011689E+03  0.7546771E-02  0.1084658E+00
         21   -1    0    0  504  503  0.00000000000E+00  0.00000000000E+00  0.64674041934E+03  0.64674041934E+03  0.00000000000E+00 0.  1.
         21   -1    0    0  503  504 -0.00000000000E+00 -0.00000000000E+00 -0.35061471078E+02  0.35061471078E+02  0.00000000000E+00 0.  1.
         25    2    1    2    0    0  0.62256719816E+02  0.56249580911E+02  0.29847461376E+03  0.33429378953E+03  0.12500131256E+03 0.  0.
         25    2    1    2    0    0 -0.62256719816E+02 -0.56249580911E+02  0.31320433450E+03  0.34750810089E+03  0.12500004208E+03 0.  0.
          5    1    3    3  501    0 -0.21106223804E+02  0.42550833388E+02  0.19435332458E+03  0.20012833602E+03  0.47000000000E+01 0.  1.
         -5    1    3    3    0  501  0.83362943620E+02  0.13698747523E+02  0.10412128919E+03  0.13416545351E+03  0.47000000000E+01 0.  1.
          5    1    4    4  502    0 -0.47286778335E+01 -0.57474637472E+02  0.45383463378E+02  0.73535318690E+02  0.47000000000E+01 0. -1.
         -5    1    4    4    0  502 -0.57528041983E+02  0.12250565609E+01  0.26782087112E+03  0.27397278220E+03  0.47000000000E+01 0. -1.
<mgrwt>
<rscale>  0 0.30116886E+03</rscale>
<asrwt>0</asrwt>
<pdfrwt beam="1">  1       21 0.99498517E-01 0.30116886E+03</pdfrwt>
<pdfrwt beam="2">  1       21 0.53940730E-02 0.30116886E+03</pdfrwt>
<totfact> 0.19010579E+05</totfact>
</mgrwt>
</event>
<event>
 8    1  0.9529436E-006  0.2630099E+03  0.7546771E-02  0.1105348E+00
         21   -1    0    0  504  503  0.00000000000E+00  0.00000000000E+00  0.36507503541E+03  0.36507503541E+03  0.00000000000E+00 0. -1.
         21   -1    0    0  503  504 -0.00000000000E+00 -0.00000000000E+00 -0.47369844075E+02  0.47369844075E+02  0.00000000000E+00 0. -1.
         25    2    1    2    0    0 -0.74622947695E+01 -0.38832364116E+02  0.14282093715E+03  0.19387334683E+03  0.12500166470E+03 0.  0.
         25    2    1    2    0    0  0.74622947695E+01  0.38832364116E+02  0.17488425419E+03  0.21857153266E+03  0.12500149670E+03 0.  0.
          5    1    3    3  501    0  0.11516851456E+02  0.40634478299E+02  0.21750137880E+02  0.47738424690E+02  0.47000000000E+01 0. -1.
         -5    1    3    3    0  501 -0.18979146226E+02 -0.79466842415E+02  0.12107079927E+03  0.14613492214E+03  0.47000000000E+01 0. -1.
          5    1    4    4  502    0 -0.14325469759E+02 -0.27687220069E+02  0.13338878840E+03  0.13706370822E+03  0.47000000000E+01 0. -1.
         -5    1    4    4    0  502  0.21787764528E+02  0.66519584186E+02  0.41495465789E+02  0.81507824437E+02  0.47000000000E+01 0. -1.
<mgrwt>
<rscale>  0 0.26300987E+03</rscale>
<asrwt>0</asrwt>
<pdfrwt beam="1">  1       21 0.56165388E-01 0.26300987E+03</pdfrwt>
<pdfrwt beam="2">  1       21 0.72876686E-02 0.26300987E+03</pdfrwt>
<totfact> 0.41445792E+05</totfact>
</mgrwt>
</event>
<event>
 8    1  0.9529436E-006  0.4087963E+03  0.7546771E-02  0.1040776E+00
         21   -1    0    0  504  503  0.00000000000E+00  0.00000000000E+00  0.27993579401E+02  0.27993579401E+02  0.00000000000E+00 0. -1.
         21   -1    0    0  503  504 -0.00000000000E+00 -0.00000000000E+00 -0.14924350745E+04  0.14924350745E+04  0.00000000000E+00 0. -1.
         25    2    1    2    0    0 -0.97784697966E+02 -0.26329082700E+02 -0.26331369145E+03  0.30857564846E+03  0.12501905042E+03 0.  0.
         25    2    1    2    0    0  0.97784697966E+02  0.26329082700E+02 -0.12011278036E+04  0.12118530054E+04  0.12499855333E+03 0.  0.
          5    1    3    3  501    0 -0.74109034253E+02 -0.18763012621E+02 -0.27141456659E+03  0.28201446161E+03  0.47000000000E+01 0. -1.
         -5    1    3    3    0  501 -0.23675663713E+02 -0.75660700793E+01  0.81008751449E+01  0.26561186849E+02  0.47000000000E+01 0. -1.
          5    1    4    4  502    0  0.13448164971E+01  0.28225251769E+02 -0.74800527419E+03  0.74855357429E+03  0.47000000000E+01 0.  1.
         -5    1    4    4    0  502  0.96439881469E+02 -0.18961690686E+01 -0.45312252942E+03  0.46329943111E+03  0.47000000000E+01 0.  1.
<mgrwt>
<rscale>  0 0.40879628E+03</rscale>
<asrwt>0</asrwt>
<pdfrwt beam="1">  1       21 0.43067047E-02 0.40879628E+03</pdfrwt>
<pdfrwt beam="2">  1       21 0.22960538E+00 0.40879628E+03</pdfrwt>
<totfact> 0.27101893E+04</totfact>
</mgrwt>
</event>
<event>
 8    1  0.9529436E-006  0.2706406E+03  0.7546771E-02  0.1100914E+00
         21   -1    0    0  504  503  0.00000000000E+00  0.00000000000E+00  0.64833660406E+02  0.64833660406E+02  0.00000000000E+00 0.  1.
         21   -1    0    0  503  504 -0.00000000000E+00 -0.00000000000E+00 -0.28243937340E+03  0.28243937340E+03  0.00000000000E+00 0.  1.
         25    2    1    2    0    0 -0.33205930747E+02  0.38751543918E+02 -0.12039566057E+03  0.18089784729E+03  0.12499840029E+03 0.  0.
         25    2    1    2    0    0  0.33205930747E+02 -0.38751543918E+02 -0.97210052415E+02  0.16637518652E+03  0.12500636946E+03 0.  0.
          5    1    3    3  501    0  0.46872446935E+02  0.19730042974E+02 -0.33283839963E+02  0.60960683068E+02  0.47000000000E+01 0. -1.
         -5    1    3    3    0  501 -0.80078377682E+02  0.19021500944E+02 -0.87111820611E+02  0.11993716422E+03  0.47000000000E+01 0. -1.
          5    1    4    4  502    0  0.64423715142E+00  0.37652383685E+02  0.62539953461E+00  0.37955212597E+02  0.47000000000E+01 0.  1.
         -5    1    4    4    0  502  0.32561693596E+02 -0.76403927604E+02 -0.97835451950E+02  0.12841997392E+03  0.47000000000E+01 0.  1.
<mgrwt>
<rscale>  0 0.27064056E+03</rscale>
<asrwt>0</asrwt>
<pdfrwt beam="1">  1       21 0.99744094E-02 0.27064056E+03</pdfrwt>
<pdfrwt beam="2">  1       21 0.43452211E-01 0.27064056E+03</pdfrwt>
<totfact> 0.40808918E+05</totfact>
</mgrwt>
</event>
<event>
 8    1  0.9529436E-006  0.3673339E+03  0.7546771E-02  0.1055717E+00
         21   -1    0    0  504  503  0.00000000000E+00  0.00000000000E+00  0.57531979269E+03  0.57531979269E+03  0.00000000000E+00 0.  1.
         21   -1    0    0  503  504 -0.00000000000E+00 -0.00000000000E+00 -0.58634416156E+02  0.58634416156E+02  0.00000000000E+00 0.  1.
         25    2    1    2    0    0  0.30244264984E+02  0.95278276345E+02  0.41382749979E+03  0.44370072676E+03  0.12499787932E+03 0.  0.
         25    2    1    2    0    0 -0.30244264984E+02 -0.95278276345E+02  0.10285787674E+03  0.19025348209E+03  0.12499591646E+03 0.  0.
          5    1    3    3  501    0  0.17774826682E+02 -0.20907415734E+02  0.24161171596E+02  0.36863487480E+02  0.47000000000E+01 0.  1.
         -5    1    3    3    0  501  0.12469438302E+02  0.11618569208E+03  0.38966632819E+03  0.40683723928E+03  0.47000000000E+01 0.  1.
          5    1    4    4  502    0  0.27504092073E+02 -0.26964712642E+02 -0.15531313422E+02  0.41795723528E+02  0.47000000000E+01 0.  1.
         -5    1    4    4    0  502 -0.57748357057E+02 -0.68313563704E+02  0.11838919016E+03  0.14845775856E+03  0.47000000000E+01 0.  1.
<mgrwt>
<rscale>  0 0.36733385E+03</rscale>
<asrwt>0</asrwt>
<pdfrwt beam="1">  1       21 0.88510734E-01 0.36733385E+03</pdfrwt>
<pdfrwt beam="2">  1       21 0.90206798E-02 0.36733385E+03</pdfrwt>
<totfact> 0.10051676E+05</totfact>
</mgrwt>
</event>
<event>
 8    1  0.9529436E-006  0.3519330E+03  0.7546771E-02  0.1061824E+00
         21   -1    0    0  504  503  0.00000000000E+00  0.00000000000E+00  0.14414849571E+03  0.14414849571E+03  0.00000000000E+00 0. -1.
         21   -1    0    0  503  504 -0.00000000000E+00 -0.00000000000E+00 -0.21480774473E+03  0.21480774473E+03  0.00000000000E+00 0. -1.
         25    2    1    2    0    0 -0.96801875030E+02 -0.65839894971E+02 -0.76559055507E+02  0.18759353408E+03  0.12499820107E+03 0.  0.
         25    2    1    2    0    0  0.96801875030E+02  0.65839894971E+02  0.58998064950E+01  0.17136270636E+03  0.12499949854E+03 0.  0.
          5    1    3    3  501    0  0.13017218459E+01  0.15378832078E+01 -0.67987769787E+02  0.68179809365E+02  0.47000000000E+01 0.  1.
         -5    1    3    3    0  501 -0.98103596876E+02 -0.67377778178E+02 -0.85712857202E+01  0.11941372472E+03  0.47000000000E+01 0.  1.
          5    1    4    4  502    0  0.31136573775E+01  0.45828307598E+02  0.48008678196E+02  0.66609697655E+02  0.47000000000E+01 0. -1.
         -5    1    4    4    0  502  0.93688217652E+02  0.20011587372E+02 -0.42108871701E+02  0.10475300870E+03  0.47000000000E+01 0. -1.
<mgrwt>
<rscale>  0 0.35193302E+03</rscale>
<asrwt>0</asrwt>
<pdfrwt beam="1">  1       21 0.22176692E-01 0.35193302E+03</pdfrwt>
<pdfrwt beam="2">  1       21 0.33047345E-01 0.35193302E+03</pdfrwt>
<totfact> 0.16066097E+05</totfact>
</mgrwt>
</event>
<event>
 8    1  0.9529436E-006  0.2973087E+03  0.7546771E-02  0.1086594E+00
         21   -1    0    0  504  503  0.00000000000E+00  0.00000000000E+00  0.83304578680E+02  0.83304578680E+02  0.00000000000E+00 0. -1.
         21   -1    0    0  503  504 -0.00000000000E+00 -0.00000000000E+00 -0.26526899012E+03  0.26526899012E+03  0.00000000000E+00 0. -1.
         25    2    1    2    0    0  0.80338284723E+02 -0.18954025488E+01 -0.95571892855E+02  0.17668215764E+03  0.12499906232E+03 0.  0.
         25    2    1    2    0    0 -0.80338284723E+02  0.18954025488E+01 -0.86392518587E+02  0.17189141117E+03  0.12500062969E+03 0.  0.
          5    1    3    3  501    0  0.52599854784E+02  0.59870022018E+02 -0.61277289262E+02  0.10063876211E+03  0.47000000000E+01 0. -1.
         -5    1    3    3    0  501  0.27738429939E+02 -0.61765424567E+02 -0.34294603593E+02  0.76043395525E+02  0.47000000000E+01 0. -1.
          5    1    4    4  502    0 -0.47821578338E+02  0.58267908161E+02 -0.18562561862E+02  0.77773460635E+02  0.47000000000E+01 0. -1.
         -5    1    4    4    0  502 -0.32516706385E+02 -0.56372505612E+02 -0.67829956725E+02  0.94117950532E+02  0.47000000000E+01 0. -1.
<mgrwt>
<rscale>  0 0.29730874E+03</rscale>
<asrwt>0</asrwt>
<pdfrwt beam="1">  1       21 0.12816089E-01 0.29730874E+03</pdfrwt>
<pdfrwt beam="2">  1       21 0.40810614E-01 0.29730874E+03</pdfrwt>
<totfact> 0.29430451E+05</totfact>
</mgrwt>
</event>
<event>
 8    1  0.9529436E-006  0.3171442E+03  0.7546771E-02  0.1076971E+00
         21   -1    0    0  504  503  0.00000000000E+00  0.00000000000E+00  0.19606369847E+04  0.19606369847E+04  0.00000000000E+00 0. -1.
         21   -1    0    0  503  504 -0.00000000000E+00 -0.00000000000E+00 -0.12824971453E+02  0.12824971453E+02  0.00000000000E+00 0. -1.
         25    2    1    2    0    0 -0.76590054497E+02 -0.15890882260E+02  0.61098382673E+03  0.62852593488E+03  0.12500023082E+03 0.  0.
         25    2    1    2    0    0  0.76590054497E+02  0.15890882260E+02  0.13368281865E+04  0.13449360213E+04  0.12499897784E+03 0.  0.
          5    1    3    3  501    0 -0.10173177772E+03  0.12836772285E+02  0.35062080193E+03  0.36533706911E+03  0.47000000000E+01 0.  1.
         -5    1    3    3    0  501  0.25141723223E+02 -0.28727654545E+02  0.26036302480E+03  0.26318886577E+03  0.47000000000E+01 0.  1.
          5    1    4    4  502    0 -0.14470625515E+02  0.42947897232E+02  0.26427830917E+03  0.26817724657E+03  0.47000000000E+01 0.  1.
         -5    1    4    4    0  502  0.91060680012E+02 -0.27057014972E+02  0.10725498774E+04  0.10767587747E+04  0.47000000000E+01 0.  1.
<mgrwt>
<rscale>  0 0.31714422E+03</rscale>
<asrwt>0</asrwt>
<pdfrwt beam="1">  1       21 0.30163622E+00 0.31714422E+03</pdfrwt>
<pdfrwt beam="2">  1       21 0.19730741E-02 0.31714422E+03</pdfrwt>
<totfact> 0.38417655E+04</totfact>
</mgrwt>
</event>
<event>
 8    1  0.9529436E-006  0.3151776E+03  0.7546771E-02  0.1077890E+00
         21   -1    0    0  504  503  0.00000000000E+00  0.00000000000E+00  0.56512562241E+03  0.56512562241E+03  0.00000000000E+00 0.  1.
         21   -1    0    0  503  504 -0.00000000000E+00 -0.00000000000E+00 -0.43944626846E+02  0.43944626846E+02  0.00000000000E+00 0.  1.
         25    2    1    2    0    0 -0.55939589846E+02 -0.74607508191E+02  0.21680623713E+03  0.26706819651E+03  0.12499983656E+03 0.  0.
         25    2    1    2    0    0  0.55939589846E+02  0.74607508191E+02  0.30437475843E+03  0.34200205274E+03  0.12500357002E+03 0.  0.
          5    1    3    3  501    0  0.30272709384E+02 -0.22495981125E+01  0.11335822328E+02  0.32742762452E+02  0.47000000000E+01 0. -1.
         -5    1    3    3    0  501 -0.86212299230E+02 -0.72357910079E+02  0.20547041480E+03  0.23432543406E+03  0.47000000000E+01 0. -1.
          5    1    4    4  502    0 -0.24620918716E+01  0.78096204821E+02  0.87853858219E+02  0.11766677317E+03  0.47000000000E+01 0. -1.
         -5    1    4    4    0  502  0.58401681718E+02 -0.34886966295E+01  0.21652090021E+03  0.22433527957E+03  0.47000000000E+01 0. -1.
<mgrwt>
<rscale>  0 0.31517763E+03</rscale>
<asrwt>0</asrwt>
<pdfrwt beam="1">  1       21 0.86942399E-01 0.31517763E+03</pdfrwt>
<pdfrwt beam="2">  1       21 0.67607122E-02 0.31517763E+03</pdfrwt>
<totfact> 0.17628734E+05</totfact>
</mgrwt>
</event>
<event>
 8    1  0.9529436E-006  0.3455849E+03  0.7546771E-02  0.1064442E+00
         21   -1    0    0  504  503  0.00000000000E+00  0.00000000000E+00  0.11406353369E+03  0.11406353369E+03  0.00000000000E+00 0. -1.
         21   -1    0    0  503  504 -0.00000000000E+00 -0.00000000000E+00 -0.26175959287E+03  0.26175959287E+03  0.00000000000E+00 0. -1.
         25    2    1    2    0    0  0.96669626158E+02 -0.67651536161E+02 -0.93025523220E+02  0.19544973060E+03  0.12500040901E+03 0.  0.
         25    2    1    2    0    0 -0.96669626158E+02  0.67651536161E+02 -0.54670535966E+02  0.18037339596E+03  0.12499578994E+03 0.  0.
          5    1    3    3  501    0 -0.37248467416E+01 -0.32793373224E+02  0.21084692307E+02  0.39445330019E+02  0.47000000000E+01 0. -1.
         -5    1    3    3    0  501  0.10039447290E+03 -0.34858162938E+02 -0.11411021553E+03  0.15600440058E+03  0.47000000000E+01 0. -1.
          5    1    4    4  502    0  0.22903408996E+02  0.28635037800E+02 -0.38665833550E+02  0.53494562504E+02  0.47000000000E+01 0.  1.
         -5    1    4    4    0  502 -0.11957303515E+03  0.39016498361E+02 -0.16004702416E+02  0.12687883346E+03  0.47000000000E+01 0.  1.
<mgrwt>
<rscale>  0 0.34558486E+03</rscale>
<asrwt>0</asrwt>
<pdfrwt beam="1">  1       21 0.17548236E-01 0.34558486E+03</pdfrwt>
<pdfrwt beam="2">  1       21 0.40270706E-01 0.34558486E+03</pdfrwt>
<totfact> 0.16787034E+05</totfact>
</mgrwt>
</event>
<event>
 8    1  0.9529436E-006  0.3427622E+03  0.7546771E-02  0.1065626E+00
         21   -1    0    0  504  503  0.00000000000E+00  0.00000000000E+00  0.59585594834E+03  0.59585594834E+03  0.00000000000E+00 0. -1.
         21   -1    0    0  503  504 -0.00000000000E+00 -0.00000000000E+00 -0.49292931454E+02  0.49292931454E+02  0.00000000000E+00 0. -1.
         25    2    1    2    0    0 -0.29485782826E+02  0.91553102894E+02  0.39946818966E+03  0.42947722292E+03  0.12499787365E+03 0.  0.
         25    2    1    2    0    0  0.29485782826E+02 -0.91553102894E+02  0.14709482722E+03  0.21567165687E+03  0.12500397332E+03 0.  0.
          5    1    3    3  501    0  0.27691279837E+02  0.56025786465E+02  0.73474267394E+02  0.96572530758E+02  0.47000000000E+01 0. -1.
         -5    1    3    3    0  501 -0.57177062663E+02  0.35527316429E+02  0.32599392226E+03  0.33290469216E+03  0.47000000000E+01 0. -1.
          5    1    4    4  502    0  0.27381703008E+02 -0.13195457510E+02 -0.15990783185E+02  0.34665154051E+02  0.47000000000E+01 0. -1.
         -5    1    4    4    0  502  0.21040798182E+01 -0.78357645384E+02  0.16308561041E+03  0.18100650282E+03  0.47000000000E+01 0. -1.
<mgrwt>
<rscale>  0 0.34276223E+03</rscale>
<asrwt>0</asrwt>
<pdfrwt beam="1">  1       21 0.91670141E-01 0.34276223E+03</pdfrwt>
<pdfrwt beam="2">  1       21 0.75835283E-02 0.34276223E+03</pdfrwt>
<totfact> 0.12651582E+05</totfact>
</mgrwt>
</event>
<event>
 8    1  0.9529436E-006  0.3308934E+03  0.7546771E-02  0.1070742E+00
         21   -1    0    0  504  503  0.00000000000E+00  0.00000000000E+00  0.16215893672E+03  0.16215893672E+03  0.00000000000E+00 0.  1.
         21   -1    0    0  503  504 -0.00000000000E+00 -0.00000000000E+00 -0.16880113707E+03  0.16880113707E+03  0.00000000000E+00 0.  1.
         25    2    1    2    0    0  0.95391476082E+02 -0.47146886550E+02 -0.23937316494E+02  0.16589634007E+03  0.12500495153E+03 0.  0.
         25    2    1    2    0    0 -0.95391476082E+02  0.47146886550E+02  0.17295116135E+02  0.16506373372E+03  0.12499821010E+03 0.  0.
          5    1    3    3  501    0 -0.27473528198E+02 -0.51643738581E+01 -0.22124486045E+02  0.35958982073E+02  0.47000000000E+01 0.  1.
         -5    1    3    3    0  501  0.12286500428E+03 -0.41982512692E+02 -0.18128304486E+01  0.12993735800E+03  0.47000000000E+01 0.  1.
          5    1    4    4  502    0 -0.72597493049E+02  0.58366590455E+02 -0.40556139979E+02  0.10170518850E+03  0.47000000000E+01 0. -1.
         -5    1    4    4    0  502 -0.22793983033E+02 -0.11219703906E+02  0.57851256114E+02  0.63358545219E+02  0.47000000000E+01 0. -1.
<mgrwt>
<rscale>  0 0.33089341E+03</rscale>
<asrwt>0</asrwt>
<pdfrwt beam="1">  1       21 0.24947529E-01 0.33089341E+03</pdfrwt>
<pdfrwt beam="2">  1       21 0.25969406E-01 0.33089341E+03</pdfrwt>
<totfact> 0.20684769E+05</totfact>
</mgrwt>
</event>
<event>
 8    1  0.9529436E-006  0.2860744E+03  0.7546771E-02  0.1092417E+00
         21   -1    0    0  504  503  0.00000000000E+00  0.00000000000E+00  0.97112946059E+03  0.97112946059E+03  0.00000000000E+00 0. -1.
         21   -1    0    0  503  504 -0.00000000000E+00 -0.00000000000E+00 -0.21067886851E+02  0.21067886851E+02  0.00000000000E+00 0. -1.
         25    2    1    2    0    0  0.22391150773E+02 -0.46031511129E+02  0.31181801201E+03  0.33981782032E+03  0.12500165896E+03 0.  0.
         25    2    1    2    0    0 -0.22391150773E+02  0.46031511129E+02  0.63824356173E+03  0.65237952713E+03  0.12499575860E+03 0.  0.
          5    1    3    3  501    0 -0.29496900239E+02 -0.62360773699E+02  0.23901583183E+03  0.24881638026E+03  0.47000000000E+01 0.  1.
         -5    1    3    3    0  501  0.51888051012E+02  0.16329262570E+02  0.72802180173E+02  0.91001440054E+02  0.47000000000E+01 0.  1.
          5    1    4    4  502    0 -0.72130946705E+02  0.43243898095E+02  0.36512837470E+03  0.37471819839E+03  0.47000000000E+01 0. -1.
         -5    1    4    4    0  502  0.49739795932E+02  0.27876130341E+01  0.27311518704E+03  0.27766132874E+03  0.47000000000E+01 0. -1.
<mgrwt>
<rscale>  0 0.28607444E+03</rscale>
<asrwt>0</asrwt>
<pdfrwt beam="1">  1       21 0.14940450E+00 0.28607444E+03</pdfrwt>
<pdfrwt beam="2">  1       21 0.32412141E-02 0.28607444E+03</pdfrwt>
<totfact> 0.16232178E+05</totfact>
</mgrwt>
</event>
<event>
 8    1  0.9529436E-006  0.3895722E+03  0.7546771E-02  0.1047451E+00
         21   -1    0    0  504  503  0.00000000000E+00  0.00000000000E+00  0.74134978555E+02  0.74134978555E+02  0.00000000000E+00 0. -1.
         21   -1    0    0  503  504 -0.00000000000E+00 -0.00000000000E+00 -0.51179111859E+03  0.51179111859E+03  0.00000000000E+00 0. -1.
         25    2    1    2    0    0 -0.40643680847E+01 -0.39508389165E+02 -0.43541790569E+03  0.45474378867E+03  0.12500291529E+03 0.  0.
         25    2    1    2    0    0  0.40643680847E+01  0.39508389165E+02 -0.22382343425E+01  0.13118230848E+03  0.12500542573E+03 0.  0.
          5    1    3    3  501    0  0.27600533353E+01 -0.72630058321E+02 -0.14438851671E+03  0.16171851169E+03  0.47000000000E+01 0. -1.
         -5    1    3    3    0  501 -0.68244214200E+01  0.33121669155E+02 -0.29102938899E+03  0.29302527698E+03  0.47000000000E+01 0. -1.
          5    1    4    4  502    0  0.31666387501E+02  0.77249962178E+02  0.43267379780E+01  0.83732475274E+02  0.47000000000E+01 0.  1.
         -5    1    4    4    0  502 -0.27602019416E+02 -0.37741573013E+02 -0.65649723205E+01  0.47449833202E+02  0.47000000000E+01 0.  1.
<mgrwt>
<rscale>  0 0.38957219E+03</rscale>
<asrwt>0</asrwt>
<pdfrwt beam="1">  1       21 0.11405381E-01 0.38957219E+03</pdfrwt>
<pdfrwt beam="2">  1       21 0.78737094E-01 0.38957219E+03</pdfrwt>
<totfact> 0.86121161E+04</totfact>
</mgrwt>
</event>
<event>
 8    1  0.9529436E-006  0.3083195E+03  0.7546771E-02  0.1081154E+00
         21   -1    0    0  504  503  0.00000000000E+00  0.00000000000E+00  0.14254954478E+04  0.14254954478E+04  0.00000000000E+00 0. -1.
         21   -1    0    0  503  504 -0.00000000000E+00 -0.00000000000E+00 -0.16671553059E+02  0.16671553059E+02  0.00000000000E+00 0. -1.
         25    2    1    2    0    0 -0.51785820602E+02 -0.45667203886E+02  0.43287716247E+03  0.45582336319E+03  0.12500014367E+03 0.  0.
         25    2    1    2    0    0  0.51785820602E+02  0.45667203886E+02  0.97594673231E+03  0.98634363771E+03  0.12503792468E+03 0.  0.
          5    1    3    3  501    0  0.23630224234E+02 -0.27646893552E+02  0.29742286139E+03  0.29967513526E+03  0.47000000000E+01 0. -1.
         -5    1    3    3    0  501 -0.75416044836E+02 -0.18020310333E+02  0.13545430108E+03  0.15614822793E+03  0.47000000000E+01 0. -1.
          5    1    4    4  502    0 -0.11785073050E+02 -0.34723207358E+01  0.66559937770E+03  0.66572934932E+03  0.47000000000E+01 0.  1.
         -5    1    4    4    0  502  0.63570893652E+02  0.49139524622E+02  0.31034735462E+03  0.32061428839E+03  0.47000000000E+01 0.  1.
<mgrwt>
<rscale>  0 0.30831946E+03</rscale>
<asrwt>0</asrwt>
<pdfrwt beam="1">  1       21 0.21930690E+00 0.30831946E+03</pdfrwt>
<pdfrwt beam="2">  1       21 0.25648554E-02 0.30831946E+03</pdfrwt>
<totfact> 0.78334539E+04</totfact>
</mgrwt>
</event>
<event>
 8    1  0.9529436E-006  0.2651487E+03  0.7546771E-02  0.1104089E+00
         21   -1    0    0  504  503  0.00000000000E+00  0.00000000000E+00  0.37072140137E+02  0.37072140137E+02  0.00000000000E+00 0.  1.
         21   -1    0    0  503  504 -0.00000000000E+00 -0.00000000000E+00 -0.47410168635E+03  0.47410168635E+03  0.00000000000E+00 0.  1.
         25    2    1    2    0    0 -0.24737312386E+02  0.93485357152E+01 -0.15031077542E+03  0.19727551048E+03  0.12499987233E+03 0.  0.
         25    2    1    2    0    0  0.24737312386E+02 -0.93485357152E+01 -0.28671877079E+03  0.31389831601E+03  0.12500067809E+03 0.  0.
          5    1    3    3  501    0 -0.71008841058E+02 -0.16793183644E+02 -0.72825465836E+02  0.10319837692E+03  0.47000000000E+01 0.  1.
         -5    1    3    3    0  501  0.46271528672E+02  0.26141719359E+02 -0.77485309582E+02  0.94077133554E+02  0.47000000000E+01 0.  1.
          5    1    4    4  502    0 -0.35380696379E+02  0.31995515685E+02 -0.16583889682E+03  0.17262716009E+03  0.47000000000E+01 0.  1.
         -5    1    4    4    0  502  0.60118008766E+02 -0.41344051400E+02 -0.12087987397E+03  0.14127115592E+03  0.47000000000E+01 0.  1.
<mgrwt>
<rscale>  0 0.26514874E+03</rscale>
<asrwt>0</asrwt>
<pdfrwt beam="1">  1       21 0.57034062E-02 0.26514874E+03</pdfrwt>
<pdfrwt beam="2">  1       21 0.72938720E-01 0.26514874E+03</pdfrwt>
<totfact> 0.35739496E+05</totfact>
</mgrwt>
</event>
<event>
 8    1  0.9529436E-006  0.3283378E+03  0.7546771E-02  0.1071875E+00
         21   -1    0    0  504  503  0.00000000000E+00  0.00000000000E+00  0.16140410786E+03  0.16140410786E+03  0.00000000000E+00 0. -1.
         21   -1    0    0  503  504 -0.00000000000E+00 -0.00000000000E+00 -0.16698105637E+03  0.16698105637E+03  0.00000000000E+00 0. -1.
         25    2    1    2    0    0 -0.10259852411E+03  0.27971277896E+02  0.13167178472E+01  0.16412333124E+03  0.12500353825E+03 0.  0.
         25    2    1    2    0    0  0.10259852411E+03 -0.27971277896E+02 -0.68936663585E+01  0.16426183299E+03  0.12500231039E+03 0.  0.
          5    1    3    3  501    0  0.68946468749E+01 -0.31276395039E+02  0.20141877353E+02  0.38125244465E+02  0.47000000000E+01 0.  1.
         -5    1    3    3    0  501 -0.10949317099E+03  0.59247672935E+02 -0.18825159506E+02  0.12599808678E+03  0.47000000000E+01 0.  1.
          5    1    4    4  502    0  0.47629744666E+02 -0.39365857124E+02 -0.60422519245E+02  0.86551915726E+02  0.47000000000E+01 0.  1.
         -5    1    4    4    0  502  0.54968779446E+02  0.11394579227E+02  0.53528852886E+02  0.77709917262E+02  0.47000000000E+01 0.  1.
<mgrwt>
<rscale>  0 0.32833780E+03</rscale>
<asrwt>0</asrwt>
<pdfrwt beam="1">  1       21 0.24831401E-01 0.32833780E+03</pdfrwt>
<pdfrwt beam="2">  1       21 0.25689393E-01 0.32833780E+03</pdfrwt>
<totfact> 0.21326449E+05</totfact>
</mgrwt>
</event>
<event>
 8    1  0.9529436E-006  0.3290281E+03  0.7546771E-02  0.1071568E+00
         21   -1    0    0  504  503  0.00000000000E+00  0.00000000000E+00  0.23948166698E+02  0.23948166698E+02  0.00000000000E+00 0.  1.
         21   -1    0    0  503  504 -0.00000000000E+00 -0.00000000000E+00 -0.11301440682E+04  0.11301440682E+04  0.00000000000E+00 0.  1.
         25    2    1    2    0    0  0.49271198741E+02 -0.29029305694E+02 -0.87013159631E+03  0.88092063930E+03  0.12498730433E+03 0.  0.
         25    2    1    2    0    0 -0.49271198741E+02  0.29029305694E+02 -0.23606430520E+03  0.27317159560E+03  0.12500405129E+03 0.  0.
          5    1    3    3  501    0 -0.24035806702E+02 -0.54375699469E+02 -0.39495377256E+03  0.39943085654E+03  0.47000000000E+01 0. -1.
         -5    1    3    3    0  501  0.73307005444E+02  0.25346393776E+02 -0.47517782375E+03  0.48148978276E+03  0.47000000000E+01 0. -1.
          5    1    4    4  502    0 -0.60963785785E+02 -0.26523630543E+02 -0.65910391989E+02  0.93735563830E+02  0.47000000000E+01 0. -1.
         -5    1    4    4    0  502  0.11692587044E+02  0.55552936236E+02 -0.17015391321E+03  0.17943603177E+03  0.47000000000E+01 0. -1.
<mgrwt>
<rscale>  0 0.32902814E+03</rscale>
<asrwt>0</asrwt>
<pdfrwt beam="1">  1       21 0.36843335E-02 0.32902814E+03</pdfrwt>
<pdfrwt beam="2">  1       21 0.17386831E+00 0.32902814E+03</pdfrwt>
<totfact> 0.85002989E+04</totfact>
</mgrwt>
</event>
<event>
 8    1  0.9529436E-006  0.3375730E+03  0.7546771E-02  0.1067834E+00
         21   -1    0    0  504  503  0.00000000000E+00  0.00000000000E+00  0.19422818565E+03  0.19422818565E+03  0.00000000000E+00 0. -1.
         21   -1    0    0  503  504 -0.00000000000E+00 -0.00000000000E+00 -0.14667741617E+03  0.14667741617E+03  0.00000000000E+00 0. -1.
         25    2    1    2    0    0 -0.86159726235E+02  0.72187458810E+02  0.84589080423E+01  0.16831647076E+03  0.12499741425E+03 0.  0.
         25    2    1    2    0    0  0.86159726235E+02 -0.72187458810E+02  0.39091861436E+02  0.17258913106E+03  0.12499722755E+03 0.  0.
          5    1    3    3  501    0 -0.10715842252E+03  0.52210024956E+02 -0.26967811756E+02  0.12230358578E+03  0.47000000000E+01 0. -1.
         -5    1    3    3    0  501  0.20998696285E+02  0.19977433854E+02  0.35426719798E+02  0.46012884986E+02  0.47000000000E+01 0. -1.
          5    1    4    4  502    0  0.16299408636E+02 -0.92250060841E+02  0.10659583037E+02  0.94400535790E+02  0.47000000000E+01 0.  1.
         -5    1    4    4    0  502  0.69860317599E+02  0.20062602031E+02  0.28432278400E+02  0.78188595270E+02  0.47000000000E+01 0.  1.
<mgrwt>
<rscale>  0 0.33757303E+03</rscale>
<asrwt>0</asrwt>
<pdfrwt beam="1">  1       21 0.29881259E-01 0.33757303E+03</pdfrwt>
<pdfrwt beam="2">  1       21 0.22565756E-01 0.33757303E+03</pdfrwt>
<totfact> 0.19037365E+05</totfact>
</mgrwt>
</event>
<event>
 8    1  0.9529436E-006  0.3475340E+03  0.7546771E-02  0.1063632E+00
         21   -1    0    0  504  503  0.00000000000E+00  0.00000000000E+00  0.42389278165E+02  0.42389278165E+02  0.00000000000E+00 0. -1.
         21   -1    0    0  503  504 -0.00000000000E+00 -0.00000000000E+00 -0.71232584713E+03  0.71232584713E+03  0.00000000000E+00 0. -1.
         25    2    1    2    0    0  0.58809200936E+02  0.10484954301E+03 -0.31125758198E+03  0.35631097372E+03  0.12499711545E+03 0.  0.
         25    2    1    2    0    0 -0.58809200936E+02 -0.10484954301E+03 -0.35867898699E+03  0.39840415158E+03  0.12499321382E+03 0.  0.
          5    1    3    3  501    0  0.74881392592E+02  0.29356547213E+02 -0.84601258243E+02  0.11682676370E+03  0.47000000000E+01 0.  1.
         -5    1    3    3    0  501 -0.16072191655E+02  0.75492995798E+02 -0.22665632373E+03  0.23948421002E+03  0.47000000000E+01 0.  1.
          5    1    4    4  502    0 -0.93407503071E+02 -0.72653983433E+02 -0.19665162028E+03  0.22955938817E+03  0.47000000000E+01 0. -1.
         -5    1    4    4    0  502  0.34598302135E+02 -0.32195559578E+02 -0.16202736671E+03  0.16884476341E+03  0.47000000000E+01 0. -1.
<mgrwt>
<rscale>  0 0.34753405E+03</rscale>
<asrwt>0</asrwt>
<pdfrwt beam="1">  1       21 0.65214271E-02 0.34753405E+03</pdfrwt>
<pdfrwt beam="2">  1       21 0.10958860E+00 0.34753405E+03</pdfrwt>
<totfact> 0.10693916E+05</totfact>
</mgrwt>
</event>
<event>
 8    1  0.9529436E-006  0.2610354E+03  0.7546771E-02  0.1106523E+00
         21   -1    0    0  504  503  0.00000000000E+00  0.00000000000E+00  0.24334529707E+03  0.24334529707E+03  0.00000000000E+00 0.  1.
         21   -1    0    0  503  504 -0.00000000000E+00 -0.00000000000E+00 -0.70002884541E+02  0.70002884541E+02  0.00000000000E+00 0.  1.
         25    2    1    2    0    0 -0.36380862565E+02  0.10408147407E+01  0.97767305872E+02  0.16281597772E+03  0.12500378413E+03 0.  0.
         25    2    1    2    0    0  0.36380862565E+02 -0.10408147407E+01  0.75575106660E+02  0.15053220389E+03  0.12499478871E+03 0.  0.
          5    1    3    3  501    0  0.23375157766E+02  0.47950184862E+02  0.33223873469E+02  0.63020107880E+02  0.47000000000E+01 0. -1.
         -5    1    3    3    0  501 -0.59756020331E+02 -0.46909370122E+02  0.64543432403E+02  0.99795869841E+02  0.47000000000E+01 0. -1.
          5    1    4    4  502    0 -0.43753208698E+02 -0.38273247972E+00  0.62146248128E+01  0.44443237023E+02  0.47000000000E+01 0.  1.
         -5    1    4    4    0  502  0.80134071263E+02 -0.65808226093E+00  0.69360481847E+02  0.10608896687E+03  0.47000000000E+01 0.  1.
<mgrwt>
<rscale>  0 0.26103542E+03</rscale>
<asrwt>0</asrwt>
<pdfrwt beam="1">  1       21 0.37437738E-01 0.26103542E+03</pdfrwt>
<pdfrwt beam="2">  1       21 0.10769675E-01 0.26103542E+03</pdfrwt>
<totfact> 0.48303253E+05</totfact>
</mgrwt>
</event>
<event>
 8    1  0.9529436E-006  0.4394348E+03  0.7546771E-02  0.1030920E+00
         21   -1    0    0  504  503  0.00000000000E+00  0.00000000000E+00  0.11026211739E+04  0.11026211739E+04  0.00000000000E+00 0.  1.
         21   -1    0    0  503  504 -0.00000000000E+00 -0.00000000000E+00 -0.43782696124E+02  0.43782696124E+02  0.00000000000E+00 0.  1.
         25    2    1    2    0    0  0.10340127056E+02 -0.17147827208E+03  0.38327613754E+03  0.43822246397E+03  0.12500645701E+03 0.  0.
         25    2    1    2    0    0 -0.10340127056E+02  0.17147827208E+03  0.67556234027E+03  0.70818140610E+03  0.12499884928E+03 0.  0.
          5    1    3    3  501    0  0.46708809356E+02 -0.13208581202E+03  0.34438462750E+03  0.37182151131E+03  0.47000000000E+01 0.  1.
         -5    1    3    3    0  501 -0.36368682300E+02 -0.39392460056E+02  0.38891510039E+02  0.66400952663E+02  0.47000000000E+01 0.  1.
          5    1    4    4  502    0 -0.61251942325E+02  0.13330969278E+03  0.51165993568E+03  0.53229808793E+03  0.47000000000E+01 0. -1.
         -5    1    4    4    0  502  0.50911815269E+02  0.38168579294E+02  0.16390240459E+03  0.17588331817E+03  0.47000000000E+01 0. -1.
<mgrwt>
<rscale>  0 0.43943476E+03</rscale>
<asrwt>0</asrwt>
<pdfrwt beam="1">  1       21 0.16963401E+00 0.43943476E+03</pdfrwt>
<pdfrwt beam="2">  1       21 0.67358002E-02 0.43943476E+03</pdfrwt>
<totfact> 0.31201693E+04</totfact>
</mgrwt>
</event>
<event>
 8    1  0.9529436E-006  0.2542129E+03  0.7546771E-02  0.1110671E+00
         21   -1    0    0  504  503  0.00000000000E+00  0.00000000000E+00  0.26794532408E+02  0.26794532408E+02  0.00000000000E+00 0. -1.
         21   -1    0    0  503  504 -0.00000000000E+00 -0.00000000000E+00 -0.60296062634E+03  0.60296062634E+03  0.00000000000E+00 0. -1.
         25    2    1    2    0    0 -0.15228134841E+02 -0.85747645105E+01 -0.25089442751E+03  0.28085366652E+03  0.12500138227E+03 0.  0.
         25    2    1    2    0    0  0.15228134841E+02  0.85747645105E+01 -0.32527166643E+03  0.34890149223E+03  0.12500068648E+03 0.  0.
          5    1    3    3  501    0 -0.11482912217E+01  0.26348394503E+02  0.31857320650E+00  0.26790818474E+02  0.47000000000E+01 0. -1.
         -5    1    3    3    0  501 -0.14079843619E+02 -0.34923159013E+02 -0.25121300071E+03  0.25406284805E+03  0.47000000000E+01 0. -1.
          5    1    4    4  502    0 -0.38422192359E+02 -0.20865971227E+02 -0.48762720825E+02  0.65662367938E+02  0.47000000000E+01 0. -1.
         -5    1    4    4    0  502  0.53650327200E+02  0.29440735738E+02 -0.27650894560E+03  0.28323912429E+03  0.47000000000E+01 0. -1.
<mgrwt>
<rscale>  0 0.25421289E+03</rscale>
<asrwt>0</asrwt>
<pdfrwt beam="1">  1       21 0.41222356E-02 0.25421289E+03</pdfrwt>
<pdfrwt beam="2">  1       21 0.92763178E-01 0.25421289E+03</pdfrwt>
<totfact> 0.35902739E+05</totfact>
</mgrwt>
</event>
<event>
 8    1  0.9529436E-006  0.3661927E+03  0.7546771E-02  0.1056158E+00
         21   -1    0    0  504  503  0.00000000000E+00  0.00000000000E+00  0.27039307016E+03  0.27039307016E+03  0.00000000000E+00 0.  1.
         21   -1    0    0  503  504 -0.00000000000E+00 -0.00000000000E+00 -0.12398347807E+03  0.12398347807E+03  0.00000000000E+00 0.  1.
         25    2    1    2    0    0 -0.29052425489E+02 -0.11001416082E+02 -0.66938601160E+02  0.14516314484E+03  0.12500595071E+03 0.  0.
         25    2    1    2    0    0  0.29052425489E+02  0.11001416082E+02  0.21334819325E+03  0.24921340339E+03  0.12499917714E+03 0.  0.
          5    1    3    3  501    0  0.22140142354E+02  0.84398707671E+01 -0.84167144169E+02  0.87564921513E+02  0.47000000000E+01 0. -1.
         -5    1    3    3    0  501 -0.51192567843E+02 -0.19441286849E+02  0.17228543009E+02  0.57598223331E+02  0.47000000000E+01 0. -1.
          5    1    4    4  502    0  0.69891725100E+02  0.33721891140E+02  0.16159474948E+03  0.17932365220E+03  0.47000000000E+01 0.  1.
         -5    1    4    4    0  502 -0.40839299612E+02 -0.22720475058E+02  0.51753443766E+02  0.69889751189E+02  0.47000000000E+01 0.  1.
<mgrwt>
<rscale>  0 0.36619270E+03</rscale>
<asrwt>0</asrwt>
<pdfrwt beam="1">  1       21 0.41598934E-01 0.36619270E+03</pdfrwt>
<pdfrwt beam="2">  1       21 0.19074381E-01 0.36619270E+03</pdfrwt>
<totfact> 0.13369794E+05</totfact>
</mgrwt>
</event>
<event>
 8    1  0.9529436E-006  0.3615059E+03  0.7546771E-02  0.1057989E+00
         21   -1    0    0  504  503  0.00000000000E+00  0.00000000000E+00  0.13570601520E+03  0.13570601520E+03  0.00000000000E+00 0. -1.
         21   -1    0    0  503  504 -0.00000000000E+00 -0.00000000000E+00 -0.24075295320E+03  0.24075295320E+03  0.00000000000E+00 0. -1.
         25    2    1    2    0    0  0.10958853598E+03  0.53475948020E+02 -0.10108811401E+03  0.20177532868E+03  0.12500060894E+03 0.  0.
         25    2    1    2    0    0 -0.10958853598E+03 -0.53475948020E+02 -0.39588239924E+01  0.17468363972E+03  0.12501750863E+03 0.  0.
          5    1    3    3  501    0  0.11834682485E+03  0.16355099556E+02 -0.10984442136E+03  0.16236177856E+03  0.47000000000E+01 0.  1.
         -5    1    3    3    0  501 -0.87582888677E+01  0.37120848463E+02  0.87563073524E+01  0.39413550119E+02  0.47000000000E+01 0.  1.
          5    1    4    4  502    0 -0.63903746425E+02 -0.81464362266E+02 -0.38724918377E+02  0.11064285078E+03  0.47000000000E+01 0. -1.
         -5    1    4    4    0  502 -0.45684789556E+02  0.27988414246E+02  0.34766094384E+02  0.64040788936E+02  0.47000000000E+01 0. -1.
<mgrwt>
<rscale>  0 0.36150587E+03</rscale>
<asrwt>0</asrwt>
<pdfrwt beam="1">  1       21 0.20877849E-01 0.36150587E+03</pdfrwt>
<pdfrwt beam="2">  1       21 0.37038915E-01 0.36150587E+03</pdfrwt>
<totfact> 0.14299944E+05</totfact>
</mgrwt>
</event>
<event>
 8    1  0.9529436E-006  0.2759489E+03  0.7546771E-02  0.1097922E+00
         21   -1    0    0  504  503  0.00000000000E+00  0.00000000000E+00  0.44751436039E+03  0.44751436039E+03  0.00000000000E+00 0.  1.
         21   -1    0    0  503  504 -0.00000000000E+00 -0.00000000000E+00 -0.42539309924E+02  0.42539309924E+02  0.00000000000E+00 0.  1.
         25    2    1    2    0    0  0.26645188063E+02  0.25810776622E+02  0.12239816004E+03  0.17884911428E+03  0.12501813412E+03 0.  0.
         25    2    1    2    0    0 -0.26645188063E+02 -0.25810776622E+02  0.28257689043E+03  0.31120455604E+03  0.12498965742E+03 0.  0.
          5    1    3    3  501    0 -0.25357212985E+02  0.11050085834E+02 -0.14505458404E+02  0.31584663538E+02  0.47000000000E+01 0.  1.
         -5    1    3    3    0  501  0.52002401049E+02  0.14760690787E+02  0.13690361845E+03  0.14726445074E+03  0.47000000000E+01 0.  1.
          5    1    4    4  502    0  0.41832339465E+02 -0.42242641312E+02  0.12166417798E+03  0.13549408686E+03  0.47000000000E+01 0. -1.
         -5    1    4    4    0  502 -0.68477527529E+02  0.16431864691E+02  0.16091271245E+03  0.17571046919E+03  0.47000000000E+01 0. -1.
<mgrwt>
<rscale>  0 0.27594892E+03</rscale>
<asrwt>0</asrwt>
<pdfrwt beam="1">  1       21 0.68848360E-01 0.27594892E+03</pdfrwt>
<pdfrwt beam="2">  1       21 0.65445095E-02 0.27594892E+03</pdfrwt>
<totfact> 0.31979968E+05</totfact>
</mgrwt>
</event>
<event>
 8    1  0.9529436E-006  0.2876181E+03  0.7546771E-02  0.1091599E+00
         21   -1    0    0  504  503  0.00000000000E+00  0.00000000000E+00  0.46741990310E+03  0.46741990310E+03  0.00000000000E+00 0. -1.
         21   -1    0    0  503  504 -0.00000000000E+00 -0.00000000000E+00 -0.44245116140E+02  0.44245116140E+02  0.00000000000E+00 0. -1.
         25    2    1    2    0    0 -0.70713470746E+02 -0.34256780318E+01  0.19976739201E+03  0.24605740109E+03  0.12500041402E+03 0.  0.
         25    2    1    2    0    0  0.70713470746E+02  0.34256780318E+01  0.22340739495E+03  0.26560761815E+03  0.12499764993E+03 0.  0.
          5    1    3    3  501    0 -0.22671021371E+02 -0.26022474361E+02 -0.43444632947E+01  0.35101406571E+02  0.47000000000E+01 0.  1.
         -5    1    3    3    0  501 -0.48042449375E+02  0.22596796329E+02  0.20411185530E+03  0.21095599452E+03  0.47000000000E+01 0.  1.
          5    1    4    4  502    0  0.63976970558E+02  0.24450247383E+02  0.23162620803E+03  0.24158571482E+03  0.47000000000E+01 0.  1.
         -5    1    4    4    0  502  0.67365001885E+01 -0.21024569352E+02 -0.82188130813E+01  0.24021903332E+02  0.47000000000E+01 0.  1.
<mgrwt>
<rscale>  0 0.28761814E+03</rscale>
<asrwt>0</asrwt>
<pdfrwt beam="1">  1       21 0.71910751E-01 0.28761814E+03</pdfrwt>
<pdfrwt beam="2">  1       21 0.68069413E-02 0.28761814E+03</pdfrwt>
<totfact> 0.27039223E+05</totfact>
</mgrwt>
</event>
<event>
 8    1  0.9529436E-006  0.2693285E+03  0.7546771E-02  0.1101665E+00
         21   -1    0    0  504  503  0.00000000000E+00  0.00000000000E+00  0.95475463365E+02  0.95475463365E+02  0.00000000000E+00 0.  1.
         21   -1    0    0  503  504 -0.00000000000E+00 -0.00000000000E+00 -0.18993848497E+03  0.18993848497E+03  0.00000000000E+00 0.  1.
         25    2    1    2    0    0 -0.22483599149E+02  0.30374337217E+02 -0.82062194343E+02  0.15423810231E+03  0.12500830321E+03 0.  0.
         25    2    1    2    0    0  0.22483599149E+02 -0.30374337217E+02 -0.12400827261E+02  0.13117584603E+03  0.12500083789E+03 0.  0.
          5    1    3    3  501    0  0.82308339078E+00  0.59309572801E+02 -0.97100494348E+02  0.11388107347E+03  0.47000000000E+01 0.  1.
         -5    1    3    3    0  501 -0.23306682540E+02 -0.28935235585E+02  0.15038300005E+02  0.40357028835E+02  0.47000000000E+01 0.  1.
          5    1    4    4  502    0  0.56382970696E+02 -0.17372423687E+02  0.36916596480E+02  0.69755039853E+02  0.47000000000E+01 0. -1.
         -5    1    4    4    0  502 -0.33899371547E+02 -0.13001913529E+02 -0.49317423741E+02  0.61420806174E+02  0.47000000000E+01 0. -1.
<mgrwt>
<rscale>  0 0.26932853E+03</rscale>
<asrwt>0</asrwt>
<pdfrwt beam="1">  1       21 0.14688533E-01 0.26932853E+03</pdfrwt>
<pdfrwt beam="2">  1       21 0.29221305E-01 0.26932853E+03</pdfrwt>
<totfact> 0.45010779E+05</totfact>
</mgrwt>
</event>
<event>
 8    1  0.9529436E-006  0.3129796E+03  0.7546771E-02  0.1078926E+00
         21   -1    0    0  504  503  0.00000000000E+00  0.00000000000E+00  0.51398548743E+02  0.51398548743E+02  0.00000000000E+00 0.  1.
         21   -1    0    0  503  504 -0.00000000000E+00 -0.00000000000E+00 -0.47645433707E+03  0.47645433707E+03  0.00000000000E+00 0.  1.
         25    2    1    2    0    0 -0.92878446657E+02  0.15329271844E+02 -0.20772689201E+03  0.26007191341E+03  0.12500218419E+03 0.  0.
         25    2    1    2    0    0  0.92878446657E+02 -0.15329271844E+02 -0.21732889632E+03  0.26778097240E+03  0.12495362171E+03 0.  0.
          5    1    3    3  501    0 -0.42534829830E+02 -0.38896358701E+02 -0.25237630817E+02  0.63096485466E+02  0.47000000000E+01 0. -1.
         -5    1    3    3    0  501 -0.50343616826E+02  0.54225630545E+02 -0.18248926120E+03  0.19697542795E+03  0.47000000000E+01 0. -1.
          5    1    4    4  502    0  0.76705285867E+01  0.17744727407E+02  0.10328024018E+02  0.22415852419E+02  0.47000000000E+01 0. -1.
         -5    1    4    4    0  502  0.85207918070E+02 -0.33073999251E+02 -0.22765692034E+03  0.24536511998E+03  0.47000000000E+01 0. -1.
<mgrwt>
<rscale>  0 0.31297963E+03</rscale>
<asrwt>0</asrwt>
<pdfrwt beam="1">  1       21 0.79074695E-02 0.31297963E+03</pdfrwt>
<pdfrwt beam="2">  1       21 0.73300663E-01 0.31297963E+03</pdfrwt>
<totfact> 0.19817638E+05</totfact>
</mgrwt>
</event>
<event>
 8    1  0.9529436E-006  0.3258438E+03  0.7546771E-02  0.1072991E+00
         21   -1    0    0  504  503  0.00000000000E+00  0.00000000000E+00  0.84000221843E+02  0.84000221843E+02  0.00000000000E+00 0. -1.
         21   -1    0    0  503  504 -0.00000000000E+00 -0.00000000000E+00 -0.31599373036E+03  0.31599373036E+03  0.00000000000E+00 0. -1.
         25    2    1    2    0    0  0.35069306296E+02 -0.89289047647E+02 -0.16686596048E+03  0.22950330347E+03  0.12500050906E+03 0.  0.
         25    2    1    2    0    0 -0.35069306296E+02  0.89289047647E+02 -0.65127548036E+02  0.17049064873E+03  0.12499229383E+03 0.  0.
          5    1    3    3  501    0 -0.34388580238E+02  0.71365507937E+01 -0.20598189949E+02  0.40986342081E+02  0.47000000000E+01 0. -1.
         -5    1    3    3    0  501  0.69457886534E+02 -0.96425598441E+02 -0.14626777053E+03  0.18851696139E+03  0.47000000000E+01 0. -1.
          5    1    4    4  502    0  0.19580822571E+02 -0.19983656064E+02 -0.34080436149E+02  0.44343221019E+02  0.47000000000E+01 0. -1.
         -5    1    4    4    0  502 -0.54650128868E+02  0.10927270371E+03 -0.31047111887E+02  0.12614742771E+03  0.47000000000E+01 0. -1.
<mgrwt>
<rscale>  0 0.32584379E+03</rscale>
<asrwt>0</asrwt>
<pdfrwt beam="1">  1       21 0.12923111E-01 0.32584379E+03</pdfrwt>
<pdfrwt beam="2">  1       21 0.48614420E-01 0.32584379E+03</pdfrwt>
<totfact> 0.20046846E+05</totfact>
</mgrwt>
</event>
<event>
 8    1  0.9529436E-006  0.5715721E+03  0.7546771E-02  0.9966206E-01
         21   -1    0    0  504  503  0.00000000000E+00  0.00000000000E+00  0.18761229012E+03  0.18761229012E+03  0.00000000000E+00 0.  1.
         21   -1    0    0  503  504 -0.00000000000E+00 -0.00000000000E+00 -0.43533224617E+03  0.43533224617E+03  0.00000000000E+00 0.  1.
         25    2    1    2    0    0 -0.24433447391E+01 -0.19077353490E+03 -0.31151225803E+03  0.38609062619E+03  0.12500229269E+03 0.  0.
         25    2    1    2    0    0  0.24433447391E+01  0.19077353490E+03  0.63792301983E+02  0.23685391010E+03  0.12501922005E+03 0.  0.
          5    1    3    3  501    0  0.31688958739E+02 -0.10575122582E+03 -0.25608786205E+03  0.27890965376E+03  0.47000000000E+01 0.  1.
         -5    1    3    3    0  501 -0.34132303478E+02 -0.85022309084E+02 -0.55424395976E+02  0.10718097243E+03  0.47000000000E+01 0.  1.
          5    1    4    4  502    0 -0.91873162794E+01  0.20047764149E+03  0.78190490558E+02  0.21543336401E+03  0.47000000000E+01 0.  1.
         -5    1    4    4    0  502  0.11630661018E+02 -0.97041065835E+01 -0.14398188574E+02  0.21420546084E+02  0.47000000000E+01 0.  1.
<mgrwt>
<rscale>  0 0.57157215E+03</rscale>
<asrwt>0</asrwt>
<pdfrwt beam="1">  1       21 0.28863429E-01 0.57157215E+03</pdfrwt>
<pdfrwt beam="2">  1       21 0.66974192E-01 0.57157215E+03</pdfrwt>
<totfact> 0.20652102E+04</totfact>
</mgrwt>
</event>
<event>
 8    1  0.9529436E-006  0.3278513E+03  0.7546771E-02  0.1072092E+00
         21   -1    0    0  504  503  0.00000000000E+00  0.00000000000E+00  0.51115648603E+03  0.51115648603E+03  0.00000000000E+00 0.  1.
         21   -1    0    0  503  504 -0.00000000000E+00 -0.00000000000E+00 -0.52570253966E+02  0.52570253966E+02  0.00000000000E+00 0.  1.
         25    2    1    2    0    0  0.82017065145E+01  0.60054760779E+02  0.79668822996E+02  0.16014260763E+03  0.12499876455E+03 0.  0.
         25    2    1    2    0    0 -0.82017065145E+01 -0.60054760779E+02  0.37891740907E+03  0.40358413237E+03  0.12501162634E+03 0.  0.
          5    1    3    3  501    0 -0.19061171606E+02 -0.87763965115E+01  0.83142545327E+02  0.85878555194E+02  0.47000000000E+01 0. -1.
         -5    1    3    3    0  501  0.27262878121E+02  0.68831157290E+02 -0.34737223312E+01  0.74264052436E+02  0.47000000000E+01 0. -1.
          5    1    4    4  502    0  0.31179464324E+02 -0.83974318232E+02  0.20830732764E+03  0.22679920164E+03  0.47000000000E+01 0.  1.
         -5    1    4    4    0  502 -0.39381170838E+02  0.23919557453E+02  0.17061008143E+03  0.17678493072E+03  0.47000000000E+01 0.  1.
<mgrwt>
<rscale>  0 0.32785135E+03</rscale>
<asrwt>0</asrwt>
<pdfrwt beam="1">  1       21 0.78639456E-01 0.32785135E+03</pdfrwt>
<pdfrwt beam="2">  1       21 0.80877317E-02 0.32785135E+03</pdfrwt>
<totfact> 0.16184764E+05</totfact>
</mgrwt>
</event>
<event>
 8    1  0.9529436E-006  0.5183435E+03  0.7546771E-02  0.1009099E+00
         21   -1    0    0  504  503  0.00000000000E+00  0.00000000000E+00  0.22708288546E+03  0.22708288546E+03  0.00000000000E+00 0. -1.
         21   -1    0    0  503  504 -0.00000000000E+00 -0.00000000000E+00 -0.29579508557E+03  0.29579508557E+03  0.00000000000E+00 0. -1.
         25    2    1    2    0    0  0.13652040247E+03 -0.38234753514E+02 -0.21324225234E+03  0.28494523113E+03  0.12498723892E+03 0.  0.
         25    2    1    2    0    0 -0.13652040247E+03  0.38234753514E+02  0.14453005223E+03  0.23793273990E+03  0.12499334403E+03 0.  0.
          5    1    3    3  501    0  0.12372857651E+03 -0.66710845797E+02 -0.21062633949E+03  0.25326792627E+03  0.47000000000E+01 0.  1.
         -5    1    3    3    0  501  0.12791825956E+02  0.28476092283E+02 -0.26159128548E+01  0.31677304857E+02  0.47000000000E+01 0.  1.
          5    1    4    4  502    0 -0.24306548824E+02  0.32656017616E+01  0.11358868985E+03  0.11630113040E+03  0.47000000000E+01 0.  1.
         -5    1    4    4    0  502 -0.11221385365E+03  0.34969151753E+02  0.30941362380E+02  0.12163160950E+03  0.47000000000E+01 0.  1.
<mgrwt>
<rscale>  0 0.51834352E+03</rscale>
<asrwt>0</asrwt>
<pdfrwt beam="1">  1       21 0.34935829E-01 0.51834352E+03</pdfrwt>
<pdfrwt beam="2">  1       21 0.45506936E-01 0.51834352E+03</pdfrwt>
<totfact> 0.32930070E+04</totfact>
</mgrwt>
</event>
<event>
 8    1  0.9529436E-006  0.2688478E+03  0.7546771E-02  0.1101941E+00
         21   -1    0    0  504  503  0.00000000000E+00  0.00000000000E+00  0.10610387740E+03  0.10610387740E+03  0.00000000000E+00 0.  1.
         21   -1    0    0  503  504 -0.00000000000E+00 -0.00000000000E+00 -0.17030282900E+03  0.17030282900E+03  0.00000000000E+00 0.  1.
         25    2    1    2    0    0 -0.18537856697E+02  0.41154695120E+02 -0.52851238231E+02  0.14302370800E+03  0.12500066643E+03 0.  0.
         25    2    1    2    0    0  0.18537856697E+02 -0.41154695120E+02 -0.11347713369E+02  0.13338299841E+03  0.12499957041E+03 0.  0.
          5    1    3    3  501    0 -0.10270163042E+02  0.14617199444E+02  0.41032600125E+02  0.44998922670E+02  0.47000000000E+01 0.  1.
         -5    1    3    3    0  501 -0.82676936558E+01  0.26537495675E+02 -0.93883838356E+02  0.98024785333E+02  0.47000000000E+01 0.  1.
          5    1    4    4  502    0 -0.38461659777E+02 -0.11117710813E+02 -0.45105459798E+02  0.60493762242E+02  0.47000000000E+01 0.  1.
         -5    1    4    4    0  502  0.56999516475E+02 -0.30036984306E+02  0.33757746430E+02  0.72889236164E+02  0.47000000000E+01 0.  1.
<mgrwt>
<rscale>  0 0.26884784E+03</rscale>
<asrwt>0</asrwt>
<pdfrwt beam="1">  1       21 0.16323674E-01 0.26884784E+03</pdfrwt>
<pdfrwt beam="2">  1       21 0.26200435E-01 0.26884784E+03</pdfrwt>
<totfact> 0.45841412E+05</totfact>
</mgrwt>
</event>
<event>
 8    1  0.9529436E-006  0.3690342E+03  0.7546771E-02  0.1055063E+00
         21   -1    0    0  504  503  0.00000000000E+00  0.00000000000E+00  0.45393076794E+02  0.45393076794E+02  0.00000000000E+00 0.  1.
         21   -1    0    0  503  504 -0.00000000000E+00 -0.00000000000E+00 -0.75003870101E+03  0.75003870101E+03  0.00000000000E+00 0.  1.
         25    2    1    2    0    0  0.27601385876E+02  0.19499673477E+01 -0.63875221954E+03  0.65144225955E+03  0.12492790194E+03 0.  0.
         25    2    1    2    0    0 -0.27601385876E+02 -0.19499673477E+01 -0.65893404670E+02  0.14398951825E+03  0.12500160684E+03 0.  0.
          5    1    3    3  501    0  0.28399724478E+02  0.58340949989E+02 -0.44024229002E+03  0.44502311706E+03  0.47000000000E+01 0. -1.
         -5    1    3    3    0  501 -0.79833860142E+00 -0.56390982641E+02 -0.19850992952E+03  0.20641914249E+03  0.47000000000E+01 0. -1.
          5    1    4    4  502    0 -0.38306279973E+02 -0.58461683432E+02 -0.31486720149E+02  0.76802624050E+02  0.47000000000E+01 0.  1.
         -5    1    4    4    0  502  0.10704894097E+02  0.56511716085E+02 -0.34406684521E+02  0.67186894199E+02  0.47000000000E+01 0.  1.
<mgrwt>
<rscale>  0 0.36903422E+03</rscale>
<asrwt>0</asrwt>
<pdfrwt beam="1">  1       21 0.69835509E-02 0.36903422E+03</pdfrwt>
<pdfrwt beam="2">  1       21 0.11539056E+00 0.36903422E+03</pdfrwt>
<totfact> 0.83052560E+04</totfact>
</mgrwt>
</event>
<event>
 8    1  0.9529436E-006  0.2785052E+03  0.7546771E-02  0.1096508E+00
         21   -1    0    0  504  503  0.00000000000E+00  0.00000000000E+00  0.13482348973E+03  0.13482348973E+03  0.00000000000E+00 0. -1.
         21   -1    0    0  503  504 -0.00000000000E+00 -0.00000000000E+00 -0.14382721119E+03  0.14382721119E+03  0.00000000000E+00 0. -1.
         25    2    1    2    0    0 -0.86296439296E+01 -0.37420674757E+02  0.43406731791E+02  0.13776406707E+03  0.12498006304E+03 0.  0.
         25    2    1    2    0    0  0.86296439296E+01  0.37420674757E+02 -0.52410453242E+02  0.14088663385E+03  0.12500964096E+03 0.  0.
          5    1    3    3  501    0 -0.37026683883E+02  0.29818004552E+02 -0.79021960929E+01  0.48421311609E+02  0.47000000000E+01 0. -1.
         -5    1    3    3    0  501  0.28397039953E+02 -0.67238679309E+02  0.51308927884E+02  0.89342755464E+02  0.47000000000E+01 0. -1.
          5    1    4    4  502    0 -0.46542014680E+02 -0.65700940207E+01 -0.51882486595E+02  0.70165573333E+02  0.47000000000E+01 0.  1.
         -5    1    4    4    0  502  0.55171658609E+02  0.43990768778E+02 -0.52796664696E+00  0.70721060514E+02  0.47000000000E+01 0.  1.
<mgrwt>
<rscale>  0 0.27850520E+03</rscale>
<asrwt>0</asrwt>
<pdfrwt beam="1">  1       21 0.20742076E-01 0.27850520E+03</pdfrwt>
<pdfrwt beam="2">  1       21 0.22127263E-01 0.27850520E+03</pdfrwt>
<totfact> 0.40444219E+05</totfact>
</mgrwt>
</event>
<event>
 8    1  0.9529436E-006  0.3241240E+03  0.7546771E-02  0.1073767E+00
         21   -1    0    0  504  503  0.00000000000E+00  0.00000000000E+00  0.61951848442E+03  0.61951848442E+03  0.00000000000E+00 0.  1.
         21   -1    0    0  503  504 -0.00000000000E+00 -0.00000000000E+00 -0.42394356095E+02  0.42394356095E+02  0.00000000000E+00 0.  1.
         25    2    1    2    0    0  0.45793853913E+02 -0.91106690387E+02  0.32032761810E+03  0.35865287450E+03  0.12499838148E+03 0.  0.
         25    2    1    2    0    0 -0.45793853913E+02  0.91106690387E+02  0.25679651022E+03  0.30325996602E+03  0.12499861295E+03 0.  0.
          5    1    3    3  501    0  0.58698270382E+02 -0.11287198140E+03  0.21181449476E+03  0.24712960430E+03  0.47000000000E+01 0.  1.
         -5    1    3    3    0  501 -0.12904416469E+02  0.21765291012E+02  0.10851312334E+03  0.11152327020E+03  0.47000000000E+01 0.  1.
          5    1    4    4  502    0 -0.18480066961E+02 -0.21888632775E+02  0.10505942855E+02  0.30872155009E+02  0.47000000000E+01 0.  1.
         -5    1    4    4    0  502 -0.27313786952E+02  0.11299532316E+03  0.24629056737E+03  0.27238781101E+03  0.47000000000E+01 0.  1.
<mgrwt>
<rscale>  0 0.32412397E+03</rscale>
<asrwt>0</asrwt>
<pdfrwt beam="1">  1       21 0.95310530E-01 0.32412397E+03</pdfrwt>
<pdfrwt beam="2">  1       21 0.65222091E-02 0.32412397E+03</pdfrwt>
<totfact> 0.15084068E+05</totfact>
</mgrwt>
</event>
<event>
 8    1  0.9529436E-006  0.3058926E+03  0.7546771E-02  0.1082332E+00
         21   -1    0    0  504  503  0.00000000000E+00  0.00000000000E+00  0.35178823913E+02  0.35178823913E+02  0.00000000000E+00 0.  1.
         21   -1    0    0  503  504 -0.00000000000E+00 -0.00000000000E+00 -0.66496158512E+03  0.66496158512E+03  0.00000000000E+00 0.  1.
         25    2    1    2    0    0  0.93991666329E+01 -0.82032406721E+02 -0.38533417498E+03  0.41343109142E+03  0.12500072343E+03 0.  0.
         25    2    1    2    0    0 -0.93991666329E+01  0.82032406721E+02 -0.24444858623E+03  0.28670931761E+03  0.12501784438E+03 0.  0.
          5    1    3    3  501    0  0.52974250612E+02 -0.83118082203E+02 -0.20047015397E+03  0.22343961030E+03  0.47000000000E+01 0.  1.
         -5    1    3    3    0  501 -0.43575083979E+02  0.10856754826E+01 -0.18486402100E+03  0.18999148112E+03  0.47000000000E+01 0.  1.
          5    1    4    4  502    0  0.30055679890E+02  0.26156755457E+02 -0.85126540427E+01  0.41013108009E+02  0.47000000000E+01 0. -1.
         -5    1    4    4    0  502 -0.39454846523E+02  0.55875651264E+02 -0.23593593219E+03  0.24569620961E+03  0.47000000000E+01 0. -1.
<mgrwt>
<rscale>  0 0.30589257E+03</rscale>
<asrwt>0</asrwt>
<pdfrwt beam="1">  1       21 0.54121264E-02 0.30589257E+03</pdfrwt>
<pdfrwt beam="2">  1       21 0.10230179E+00 0.30589257E+03</pdfrwt>
<totfact> 0.17655140E+05</totfact>
</mgrwt>
</event>
<event>
 8    1  0.9529436E-006  0.3427054E+03  0.7546771E-02  0.1065649E+00
         21   -1    0    0  504  503  0.00000000000E+00  0.00000000000E+00  0.19308459552E+03  0.19308459552E+03  0.00000000000E+00 0. -1.
         21   -1    0    0  503  504 -0.00000000000E+00 -0.00000000000E+00 -0.15206673819E+03  0.15206673819E+03  0.00000000000E+00 0. -1.
         25    2    1    2    0    0 -0.42298019719E+02 -0.20507535686E+02 -0.87628797911E+02  0.15972379950E+03  0.12499281744E+03 0.  0.
         25    2    1    2    0    0  0.42298019719E+02  0.20507535686E+02  0.12864665524E+03  0.18542753421E+03  0.12499490808E+03 0.  0.
          5    1    3    3  501    0  0.21542114660E+02  0.17632608075E+02 -0.79982028262E+02  0.84818549955E+02  0.47000000000E+01 0. -1.
         -5    1    3    3    0  501 -0.63840134379E+02 -0.38140143761E+02 -0.76467696494E+01  0.74905249547E+02  0.47000000000E+01 0. -1.
          5    1    4    4  502    0  0.81649664345E+02  0.15165611139E+02  0.11741136977E+03  0.14388948259E+03  0.47000000000E+01 0.  1.
         -5    1    4    4    0  502 -0.39351644626E+02  0.53419245473E+01  0.11235285479E+02  0.41538051621E+02  0.47000000000E+01 0.  1.
<mgrwt>
<rscale>  0 0.34270538E+03</rscale>
<asrwt>0</asrwt>
<pdfrwt beam="1">  1       21 0.29705323E-01 0.34270538E+03</pdfrwt>
<pdfrwt beam="2">  1       21 0.23394883E-01 0.34270538E+03</pdfrwt>
<totfact> 0.17954032E+05</totfact>
</mgrwt>
</event>
<event>
 8    1  0.9529436E-006  0.3386463E+03  0.7546771E-02  0.1067374E+00
         21   -1    0    0  504  503  0.00000000000E+00  0.00000000000E+00  0.30232298866E+03  0.30232298866E+03  0.00000000000E+00 0. -1.
         21   -1    0    0  503  504 -0.00000000000E+00 -0.00000000000E+00 -0.94833429659E+02  0.94833429659E+02  0.00000000000E+00 0. -1.
         25    2    1    2    0    0  0.96304753704E+02 -0.54867029954E+02  0.13606733368E+03  0.21546442324E+03  0.12500240729E+03 0.  0.
         25    2    1    2    0    0 -0.96304753704E+02  0.54867029954E+02  0.71422225323E+02  0.18169199507E+03  0.12500340092E+03 0.  0.
          5    1    3    3  501    0  0.70706594825E+02 -0.91385816971E+02  0.68613577781E+02  0.13446450517E+03  0.47000000000E+01 0.  1.
         -5    1    3    3    0  501  0.25598158879E+02  0.36518787017E+02  0.67453755895E+02  0.80999918071E+02  0.47000000000E+01 0.  1.
          5    1    4    4  502    0  0.26622969166E+02  0.31972511543E+02  0.20123854437E+02  0.46455177311E+02  0.47000000000E+01 0. -1.
         -5    1    4    4    0  502 -0.12292772287E+03  0.22894518411E+02  0.51298370885E+02  0.13523681776E+03  0.47000000000E+01 0. -1.
<mgrwt>
<rscale>  0 0.33864628E+03</rscale>
<asrwt>0</asrwt>
<pdfrwt beam="1">  1       21 0.46511229E-01 0.33864628E+03</pdfrwt>
<pdfrwt beam="2">  1       21 0.14589758E-01 0.33864628E+03</pdfrwt>
<totfact> 0.17568380E+05</totfact>
</mgrwt>
</event>
<event>
 8    1  0.9529436E-006  0.3028799E+03  0.7546771E-02  0.1083810E+00
         21   -1    0    0  504  503  0.00000000000E+00  0.00000000000E+00  0.99277322450E+02  0.99277322450E+02  0.00000000000E+00 0. -1.
         21   -1    0    0  503  504 -0.00000000000E+00 -0.00000000000E+00 -0.23101004378E+03  0.23101004378E+03  0.00000000000E+00 0. -1.
         25    2    1    2    0    0 -0.15861527895E+02  0.75783180176E+02 -0.26336922487E+02  0.14938018404E+03  0.12500450965E+03 0.  0.
         25    2    1    2    0    0  0.15861527895E+02 -0.75783180176E+02 -0.10539579884E+03  0.18090718219E+03  0.12499782274E+03 0.  0.
          5    1    3    3  501    0 -0.14028712083E+02 -0.18122679725E+02  0.31303443892E+02  0.39079814261E+02  0.47000000000E+01 0.  1.
         -5    1    3    3    0  501 -0.18328158119E+01  0.93905859900E+02 -0.57640366380E+02  0.11030036978E+03  0.47000000000E+01 0.  1.
          5    1    4    4  502    0  0.39242902067E+02  0.20474717650E+02 -0.51389428096E+02  0.67986636522E+02  0.47000000000E+01 0.  1.
         -5    1    4    4    0  502 -0.23381374172E+02 -0.96257897826E+02 -0.54006370743E+02  0.11292054566E+03  0.47000000000E+01 0.  1.
<mgrwt>
<rscale>  0 0.30287990E+03</rscale>
<asrwt>0</asrwt>
<pdfrwt beam="1">  1       21 0.15273435E-01 0.30287990E+03</pdfrwt>
<pdfrwt beam="2">  1       21 0.35540006E-01 0.30287990E+03</pdfrwt>
<totfact> 0.28232866E+05</totfact>
</mgrwt>
</event>
<event>
 8    1  0.9529436E-006  0.3432239E+03  0.7546771E-02  0.1065431E+00
         21   -1    0    0  504  503  0.00000000000E+00  0.00000000000E+00  0.14888315052E+03  0.14888315052E+03  0.00000000000E+00 0.  1.
         21   -1    0    0  503  504 -0.00000000000E+00 -0.00000000000E+00 -0.19781054858E+03  0.19781054858E+03  0.00000000000E+00 0.  1.
         25    2    1    2    0    0 -0.10640152087E+03  0.29965419886E+02  0.16014235336E+02  0.16763681965E+03  0.12500575002E+03 0.  0.
         25    2    1    2    0    0  0.10640152087E+03 -0.29965419886E+02 -0.64941633394E+02  0.17905687945E+03  0.12499896119E+03 0.  0.
          5    1    3    3  501    0 -0.30946742491E+02 -0.38761172104E+02  0.38568892661E+02  0.63006180767E+02  0.47000000000E+01 0.  1.
         -5    1    3    3    0  501 -0.75454778379E+02  0.68726591990E+02 -0.22554657325E+02  0.10463063889E+03  0.47000000000E+01 0.  1.
          5    1    4    4  502    0 -0.12189246217E+02  0.29062164821E+02 -0.25352386990E+02  0.40718800001E+02  0.47000000000E+01 0. -1.
         -5    1    4    4    0  502  0.11859076709E+03 -0.59027584707E+02 -0.39589246404E+02  0.13833807945E+03  0.47000000000E+01 0. -1.
<mgrwt>
<rscale>  0 0.34322388E+03</rscale>
<asrwt>0</asrwt>
<pdfrwt beam="1">  1       21 0.22905100E-01 0.34322388E+03</pdfrwt>
<pdfrwt beam="2">  1       21 0.30432392E-01 0.34322388E+03</pdfrwt>
<totfact> 0.17823958E+05</totfact>
</mgrwt>
</event>
<event>
 8    1  0.9529436E-006  0.4146801E+03  0.7546771E-02  0.1038812E+00
         21   -1    0    0  504  503  0.00000000000E+00  0.00000000000E+00  0.40597182581E+03  0.40597182581E+03  0.00000000000E+00 0. -1.
         21   -1    0    0  503  504 -0.00000000000E+00 -0.00000000000E+00 -0.10589378652E+03  0.10589378652E+03  0.00000000000E+00 0. -1.
         25    2    1    2    0    0 -0.16412381866E+03  0.16419235016E+02  0.13399193811E+03  0.24650786181E+03  0.12492424635E+03 0.  0.
         25    2    1    2    0    0  0.16412381866E+03 -0.16419235016E+02  0.16608610119E+03  0.26535775052E+03  0.12499569443E+03 0.  0.
          5    1    3    3  501    0 -0.37425285390E+02 -0.56830307768E+01 -0.22191906287E+02  0.44130709602E+02  0.47000000000E+01 0.  1.
         -5    1    3    3    0  501 -0.12669853327E+03  0.22102265793E+02  0.15618384439E+03  0.20237715221E+03  0.47000000000E+01 0.  1.
          5    1    4    4  502    0  0.57436841779E+02 -0.24920390829E+02 -0.55518077120E+01  0.63031176742E+02  0.47000000000E+01 0.  1.
         -5    1    4    4    0  502  0.10668697688E+03  0.85011558128E+01  0.17163790890E+03  0.20232657378E+03  0.47000000000E+01 0.  1.
<mgrwt>
<rscale>  0 0.41468009E+03</rscale>
<asrwt>0</asrwt>
<pdfrwt beam="1">  1       21 0.62457203E-01 0.41468009E+03</pdfrwt>
<pdfrwt beam="2">  1       21 0.16291352E-01 0.41468009E+03</pdfrwt>
<totfact> 0.74875480E+04</totfact>
</mgrwt>
</event>
<event>
 8    1  0.9529436E-006  0.2736119E+03  0.7546771E-02  0.1099230E+00
         21   -1    0    0  504  503  0.00000000000E+00  0.00000000000E+00  0.75612258432E+02  0.75612258432E+02  0.00000000000E+00 0. -1.
         21   -1    0    0  503  504 -0.00000000000E+00 -0.00000000000E+00 -0.24752425378E+03  0.24752425378E+03  0.00000000000E+00 0. -1.
         25    2    1    2    0    0  0.43795472352E+02  0.57194543573E+01 -0.12582558358E+03  0.18277730113E+03  0.12499883506E+03 0.  0.
         25    2    1    2    0    0 -0.43795472352E+02 -0.57194543573E+01 -0.46086411769E+02  0.14035921109E+03  0.12500398086E+03 0.  0.
          5    1    3    3  501    0 -0.41639528358E+02  0.18255614807E+02 -0.50261283146E+02  0.67936767493E+02  0.47000000000E+01 0. -1.
         -5    1    3    3    0  501  0.85435000711E+02 -0.12536160450E+02 -0.75564300432E+02  0.11484053363E+03  0.47000000000E+01 0. -1.
          5    1    4    4  502    0 -0.68928184338E+02 -0.47322155856E+02 -0.28545711315E+02  0.88472756629E+02  0.47000000000E+01 0. -1.
         -5    1    4    4    0  502  0.25132711986E+02  0.41602701498E+02 -0.17540700454E+02  0.51886454457E+02  0.47000000000E+01 0. -1.
<mgrwt>
<rscale>  0 0.27361190E+03</rscale>
<asrwt>0</asrwt>
<pdfrwt beam="1">  1       21 0.11632655E-01 0.27361190E+03</pdfrwt>
<pdfrwt beam="2">  1       21 0.38080654E-01 0.27361190E+03</pdfrwt>
<totfact> 0.40551962E+05</totfact>
</mgrwt>
</event>
<event>
 8    1  0.9529436E-006  0.3584267E+03  0.7546771E-02  0.1059209E+00
         21   -1    0    0  504  503  0.00000000000E+00  0.00000000000E+00  0.43859851887E+03  0.43859851887E+03  0.00000000000E+00 0.  1.
         21   -1    0    0  503  504 -0.00000000000E+00 -0.00000000000E+00 -0.73227377748E+02  0.73227377748E+02  0.00000000000E+00 0.  1.
         25    2    1    2    0    0 -0.32625082674E+02  0.11595122690E+03  0.24625438455E+03  0.30129815498E+03  0.12502109121E+03 0.  0.
         25    2    1    2    0    0  0.32625082674E+02 -0.11595122690E+03  0.11911675657E+03  0.21052774164E+03  0.12499618099E+03 0.  0.
          5    1    3    3  501    0 -0.40026148585E+02  0.77787151343E+02  0.49376252780E+02  0.10056360089E+03  0.47000000000E+01 0.  1.
         -5    1    3    3    0  501  0.74010659108E+01  0.38164075558E+02  0.19687813177E+03  0.20073455409E+03  0.47000000000E+01 0.  1.
          5    1    4    4  502    0  0.29835059007E+02 -0.72805250916E+02 -0.50317568517E+01  0.78981921247E+02  0.47000000000E+01 0. -1.
         -5    1    4    4    0  502  0.27900236671E+01 -0.43145975985E+02  0.12414851343E+03  0.13154582039E+03  0.47000000000E+01 0. -1.
<mgrwt>
<rscale>  0 0.35842667E+03</rscale>
<asrwt>0</asrwt>
<pdfrwt beam="1">  1       21 0.67476693E-01 0.35842667E+03</pdfrwt>
<pdfrwt beam="2">  1       21 0.11265751E-01 0.35842667E+03</pdfrwt>
<totfact> 0.12567767E+05</totfact>
</mgrwt>
</event>
<event>
 8    1  0.9529436E-006  0.2956062E+03  0.7546771E-02  0.1087458E+00
         21   -1    0    0  504  503  0.00000000000E+00  0.00000000000E+00  0.85948540987E+02  0.85948540987E+02  0.00000000000E+00 0. -1.
         21   -1    0    0  503  504 -0.00000000000E+00 -0.00000000000E+00 -0.25417253169E+03  0.25417253169E+03  0.00000000000E+00 0. -1.
         25    2    1    2    0    0 -0.23988277678E+02 -0.17223405059E+02 -0.16825819692E+03  0.21167906972E+03  0.12500049831E+03 0.  0.
         25    2    1    2    0    0  0.23988277678E+02  0.17223405059E+02  0.34206221653E-01  0.12844200296E+03  0.12500105522E+03 0.  0.
          5    1    3    3  501    0 -0.66888983198E+02 -0.32024398548E+02 -0.13859553231E+03  0.15725937095E+03  0.47000000000E+01 0. -1.
         -5    1    3    3    0  501  0.42900705520E+02  0.14800993490E+02 -0.29662664618E+02  0.54419698774E+02  0.47000000000E+01 0. -1.
          5    1    4    4  502    0  0.81362538188E+00 -0.43759470410E+02 -0.33143871604E+02  0.55101356260E+02  0.47000000000E+01 0. -1.
         -5    1    4    4    0  502  0.23174652296E+02  0.60982875469E+02  0.33178077825E+02  0.73340646695E+02  0.47000000000E+01 0. -1.
<mgrwt>
<rscale>  0 0.29560621E+03</rscale>
<asrwt>0</asrwt>
<pdfrwt beam="1">  1       21 0.13222853E-01 0.29560621E+03</pdfrwt>
<pdfrwt beam="2">  1       21 0.39103465E-01 0.29560621E+03</pdfrwt>
<totfact> 0.30349148E+05</totfact>
</mgrwt>
</event>
<event>
 8    1  0.9529436E-006  0.2650791E+03  0.7546771E-02  0.1104129E+00
         21   -1    0    0  504  503  0.00000000000E+00  0.00000000000E+00  0.15207553760E+03  0.15207553760E+03  0.00000000000E+00 0.  1.
         21   -1    0    0  503  504 -0.00000000000E+00 -0.00000000000E+00 -0.11551316934E+03  0.11551316934E+03  0.00000000000E+00 0.  1.
         25    2    1    2    0    0  0.12377260619E+02 -0.11280052656E+02  0.59370858571E+02  0.13938989924E+03  0.12499683594E+03 0.  0.
         25    2    1    2    0    0 -0.12377260619E+02  0.11280052656E+02 -0.22808490311E+02  0.12819880771E+03  0.12503707810E+03 0.  0.
          5    1    3    3  501    0  0.15196141236E+01 -0.58483614474E+02 -0.47613436223E+01  0.58884656593E+02  0.47000000000E+01 0. -1.
         -5    1    3    3    0  501  0.10857646495E+02  0.47203561818E+02  0.64132202194E+02  0.80505242648E+02  0.47000000000E+01 0. -1.
          5    1    4    4  502    0 -0.63725490597E+00  0.15363085728E+02 -0.73786115945E+02  0.75517623130E+02  0.47000000000E+01 0. -1.
         -5    1    4    4    0  502 -0.11740005713E+02 -0.40830330725E+01  0.50977625634E+02  0.52681184577E+02  0.47000000000E+01 0. -1.
<mgrwt>
<rscale>  0 0.26507906E+03</rscale>
<asrwt>0</asrwt>
<pdfrwt beam="1">  1       21 0.23396236E-01 0.26507906E+03</pdfrwt>
<pdfrwt beam="2">  1       21 0.17771257E-01 0.26507906E+03</pdfrwt>
<totfact> 0.48709753E+05</totfact>
</mgrwt>
</event>
<event>
 8    1  0.9529436E-006  0.3212981E+03  0.7546771E-02  0.1075053E+00
         21   -1    0    0  504  503  0.00000000000E+00  0.00000000000E+00  0.16895184371E+03  0.16895184371E+03  0.00000000000E+00 0.  1.
         21   -1    0    0  503  504 -0.00000000000E+00 -0.00000000000E+00 -0.15275427429E+03  0.15275427429E+03  0.00000000000E+00 0.  1.
         25    2    1    2    0    0 -0.68321687365E+01 -0.66978201360E+02  0.83366595101E+02  0.16464278797E+03  0.12499800184E+03 0.  0.
         25    2    1    2    0    0  0.68321687365E+01  0.66978201360E+02 -0.67169025681E+02  0.15706333003E+03  0.12499781455E+03 0.  0.
          5    1    3    3  501    0  0.24996878516E+02 -0.13178770313E+02 -0.25934205734E+02  0.38641906650E+02  0.47000000000E+01 0. -1.
         -5    1    3    3    0  501 -0.31829047252E+02 -0.53799431047E+02  0.10930080083E+03  0.12600088132E+03  0.47000000000E+01 0. -1.
          5    1    4    4  502    0 -0.22563302578E+02 -0.28614599229E+02 -0.44295134054E+00  0.36744851587E+02  0.47000000000E+01 0.  1.
         -5    1    4    4    0  502  0.29395471315E+02  0.95592800589E+02 -0.66726074340E+02  0.12031847844E+03  0.47000000000E+01 0.  1.
<mgrwt>
<rscale>  0 0.32129809E+03</rscale>
<asrwt>0</asrwt>
<pdfrwt beam="1">  1       21 0.25992591E-01 0.32129809E+03</pdfrwt>
<pdfrwt beam="2">  1       21 0.23500657E-01 0.32129809E+03</pdfrwt>
<totfact> 0.23211612E+05</totfact>
</mgrwt>
</event>
<event>
 8    1  0.9529436E-006  0.3130146E+03  0.7546771E-02  0.1078910E+00
         21   -1    0    0  504  503  0.00000000000E+00  0.00000000000E+00  0.85661897518E+02  0.85661897518E+02  0.00000000000E+00 0. -1.
         21   -1    0    0  503  504 -0.00000000000E+00 -0.00000000000E+00 -0.28594432823E+03  0.28594432823E+03  0.00000000000E+00 0. -1.
         25    2    1    2    0    0 -0.11446025053E+02 -0.25316884945E+02 -0.20697810929E+03  0.24338338977E+03  0.12499432202E+03 0.  0.
         25    2    1    2    0    0  0.11446025053E+02  0.25316884945E+02  0.66956785846E+01  0.12822283597E+03  0.12499722957E+03 0.  0.
          5    1    3    3  501    0  0.45409169771E+02 -0.38594993870E+02 -0.15082907190E+03  0.16224384482E+03  0.47000000000E+01 0. -1.
         -5    1    3    3    0  501 -0.56855194824E+02  0.13278108924E+02 -0.56149037393E+02  0.81139544954E+02  0.47000000000E+01 0. -1.
          5    1    4    4  502    0  0.40142519049E+02 -0.33222053382E+02  0.28172439418E+02  0.59421401947E+02  0.47000000000E+01 0. -1.
         -5    1    4    4    0  502 -0.28696493996E+02  0.58538938328E+02 -0.21476760834E+02  0.68801434027E+02  0.47000000000E+01 0. -1.
<mgrwt>
<rscale>  0 0.31301459E+03</rscale>
<asrwt>0</asrwt>
<pdfrwt beam="1">  1       21 0.13178753E-01 0.31301459E+03</pdfrwt>
<pdfrwt beam="2">  1       21 0.43991435E-01 0.31301459E+03</pdfrwt>
<totfact> 0.23892547E+05</totfact>
</mgrwt>
</event>
<event>
 8    1  0.9529436E-006  0.3046116E+03  0.7546771E-02  0.1082958E+00
         21   -1    0    0  504  503  0.00000000000E+00  0.00000000000E+00  0.57879671642E+03  0.57879671642E+03  0.00000000000E+00 0.  1.
         21   -1    0    0  503  504 -0.00000000000E+00 -0.00000000000E+00 -0.40078064076E+02  0.40078064076E+02  0.00000000000E+00 0.  1.
         25    2    1    2    0    0  0.58612299263E+02 -0.18181034236E+02  0.39475645460E+03  0.41858399672E+03  0.12495580109E+03 0.  0.
         25    2    1    2    0    0 -0.58612299263E+02  0.18181034236E+02  0.14396219774E+03  0.20029078378E+03  0.12500132822E+03 0.  0.
          5    1    3    3  501    0 -0.16573783290E+02  0.34774961866E+02  0.19220145522E+03  0.19608028370E+03  0.47000000000E+01 0.  1.
         -5    1    3    3    0  501  0.75186082553E+02 -0.52955996102E+02  0.20255499939E+03  0.22250371302E+03  0.47000000000E+01 0.  1.
          5    1    4    4  502    0 -0.33921317754E+02 -0.44097610244E+02  0.11361625864E+03  0.12659383577E+03  0.47000000000E+01 0. -1.
         -5    1    4    4    0  502 -0.24690981509E+02  0.62278644480E+02  0.30345939102E+02  0.73696948011E+02  0.47000000000E+01 0. -1.
<mgrwt>
<rscale>  0 0.30461157E+03</rscale>
<asrwt>0</asrwt>
<pdfrwt beam="1">  1       21 0.89045643E-01 0.30461157E+03</pdfrwt>
<pdfrwt beam="2">  1       21 0.61658564E-02 0.30461157E+03</pdfrwt>
<totfact> 0.19613932E+05</totfact>
</mgrwt>
</event>
<event>
 8    1  0.9529436E-006  0.2869455E+03  0.7546771E-02  0.1091955E+00
         21   -1    0    0  504  503  0.00000000000E+00  0.00000000000E+00  0.79407858470E+03  0.79407858470E+03  0.00000000000E+00 0.  1.
         21   -1    0    0  503  504 -0.00000000000E+00 -0.00000000000E+00 -0.25922407436E+02  0.25922407436E+02  0.00000000000E+00 0.  1.
         25    2    1    2    0    0  0.19845711266E+02 -0.39366505863E+02  0.54100845921E+03  0.55700920452E+03  0.12500210778E+03 0.  0.
         25    2    1    2    0    0 -0.19845711266E+02  0.39366505863E+02  0.22714771806E+03  0.26299178761E+03  0.12500008198E+03 0.  0.
          5    1    3    3  501    0  0.65736294496E+02 -0.51093640191E+02  0.38371527320E+03  0.39267202774E+03  0.47000000000E+01 0.  1.
         -5    1    3    3    0  501 -0.45890583230E+02  0.11727134328E+02  0.15729318601E+03  0.16433717678E+03  0.47000000000E+01 0.  1.
          5    1    4    4  502    0 -0.47951217782E+02 -0.36517455112E+01  0.25081118165E+02  0.54440858007E+02  0.47000000000E+01 0. -1.
         -5    1    4    4    0  502  0.28105506517E+02  0.43018251374E+02  0.20206659989E+03  0.20855092961E+03  0.47000000000E+01 0. -1.
<mgrwt>
<rscale>  0 0.28694549E+03</rscale>
<asrwt>0</asrwt>
<pdfrwt beam="1">  1       21 0.12216592E+00 0.28694549E+03</pdfrwt>
<pdfrwt beam="2">  1       21 0.39880633E-02 0.28694549E+03</pdfrwt>
<totfact> 0.19285788E+05</totfact>
</mgrwt>
</event>
<event>
 8    1  0.9529436E-006  0.3751774E+03  0.7546771E-02  0.1052731E+00
         21   -1    0    0  504  503  0.00000000000E+00  0.00000000000E+00  0.14576951050E+03  0.14576951050E+03  0.00000000000E+00 0. -1.
         21   -1    0    0  503  504 -0.00000000000E+00 -0.00000000000E+00 -0.24140518762E+03  0.24140518762E+03  0.00000000000E+00 0. -1.
         25    2    1    2    0    0  0.11011692047E+03  0.77774176925E+02 -0.93548094513E+01  0.18408722093E+03  0.12500413465E+03 0.  0.
         25    2    1    2    0    0 -0.11011692047E+03 -0.77774176925E+02 -0.86280867660E+02  0.20308747719E+03  0.12500230596E+03 0.  0.
          5    1    3    3  501    0  0.36930987512E+02 -0.73503109345E+01 -0.51598222173E+02  0.64049913667E+02  0.47000000000E+01 0. -1.
         -5    1    3    3    0  501  0.73185932961E+02  0.85124487859E+02  0.42243412721E+02  0.12003730726E+03  0.47000000000E+01 0. -1.
          5    1    4    4  502    0 -0.10432849271E+03 -0.10816864723E+03 -0.82668566412E+02  0.17158401006E+03  0.47000000000E+01 0. -1.
         -5    1    4    4    0  502 -0.57884277599E+01  0.30394470303E+02 -0.36123012487E+01  0.31503467131E+02  0.47000000000E+01 0. -1.
<mgrwt>
<rscale>  0 0.37517738E+03</rscale>
<asrwt>0</asrwt>
<pdfrwt beam="1">  1       21 0.22426079E-01 0.37517738E+03</pdfrwt>
<pdfrwt beam="2">  1       21 0.37139259E-01 0.37517738E+03</pdfrwt>
<totfact> 0.12370373E+05</totfact>
</mgrwt>
</event>
<event>
 8    1  0.9529436E-006  0.2513136E+03  0.7546771E-02  0.1112477E+00
         21   -1    0    0  504  503  0.00000000000E+00  0.00000000000E+00  0.12413135433E+03  0.12413135433E+03  0.00000000000E+00 0.  1.
         21   -1    0    0  503  504 -0.00000000000E+00 -0.00000000000E+00 -0.12720101736E+03  0.12720101736E+03  0.00000000000E+00 0.  1.
         25    2    1    2    0    0  0.43013734062E+01 -0.10824925951E+02 -0.69427332340E+01  0.12574074720E+03  0.12500741228E+03 0.  0.
         25    2    1    2    0    0 -0.43013734062E+01  0.10824925951E+02  0.38730702052E+01  0.12559162450E+03  0.12499029817E+03 0.  0.
          5    1    3    3  501    0  0.45847758694E+02  0.35726936594E+02 -0.20323230234E+02  0.61753984995E+02  0.47000000000E+01 0.  1.
         -5    1    3    3    0  501 -0.41546385287E+02 -0.46551862546E+02  0.13380497000E+02  0.63986762200E+02  0.47000000000E+01 0.  1.
          5    1    4    4  502    0 -0.15244352935E+02 -0.46636350140E+02  0.33754341891E+02  0.59739309063E+02  0.47000000000E+01 0.  1.
         -5    1    4    4    0  502  0.10942979529E+02  0.57461276091E+02 -0.29881271686E+02  0.65852315438E+02  0.47000000000E+01 0.  1.
<mgrwt>
<rscale>  0 0.25131363E+03</rscale>
<asrwt>0</asrwt>
<pdfrwt beam="1">  1       21 0.19097131E-01 0.25131363E+03</pdfrwt>
<pdfrwt beam="2">  1       21 0.19569387E-01 0.25131363E+03</pdfrwt>
<totfact> 0.59860932E+05</totfact>
</mgrwt>
</event>
<event>
 8    1  0.9529436E-006  0.2904967E+03  0.7546771E-02  0.1090090E+00
         21   -1    0    0  504  503  0.00000000000E+00  0.00000000000E+00  0.12494153899E+03  0.12494153899E+03  0.00000000000E+00 0.  1.
         21   -1    0    0  503  504 -0.00000000000E+00 -0.00000000000E+00 -0.16885564127E+03  0.16885564127E+03  0.00000000000E+00 0.  1.
         25    2    1    2    0    0  0.24417704249E+02  0.22590089909E+02 -0.88790183877E+02  0.15688916264E+03  0.12499590456E+03 0.  0.
         25    2    1    2    0    0 -0.24417704249E+02 -0.22590089909E+02  0.44876081601E+02  0.13690801762E+03  0.12499362442E+03 0.  0.
          5    1    3    3  501    0 -0.13949884645E+02  0.64993598835E+01 -0.10915138087E+03  0.11033111486E+03  0.47000000000E+01 0.  1.
         -5    1    3    3    0  501  0.38367588893E+02  0.16090730025E+02  0.20361196991E+02  0.46558047781E+02  0.47000000000E+01 0.  1.
          5    1    4    4  502    0 -0.16751769680E+02  0.19038217862E+02  0.78511507536E+02  0.82639109037E+02  0.47000000000E+01 0.  1.
         -5    1    4    4    0  502 -0.76659345687E+01 -0.41628307771E+02 -0.33635425935E+02  0.54268908581E+02  0.47000000000E+01 0.  1.
<mgrwt>
<rscale>  0 0.29049670E+03</rscale>
<asrwt>0</asrwt>
<pdfrwt beam="1">  1       21 0.19221775E-01 0.29049670E+03</pdfrwt>
<pdfrwt beam="2">  1       21 0.25977791E-01 0.29049670E+03</pdfrwt>
<totfact> 0.34239311E+05</totfact>
</mgrwt>
</event>
<event>
 8    1  0.9529436E-006  0.7164066E+03  0.7546771E-02  0.9689579E-01
         21   -1    0    0  504  503  0.00000000000E+00  0.00000000000E+00  0.20400783481E+03  0.20400783481E+03  0.00000000000E+00 0.  1.
         21   -1    0    0  503  504 -0.00000000000E+00 -0.00000000000E+00 -0.62894442424E+03  0.62894442424E+03  0.00000000000E+00 0.  1.
         25    2    1    2    0    0 -0.58311423513E+02 -0.32416448202E+03 -0.13711367716E+03  0.37803431071E+03  0.12500778413E+03 0.  0.
         25    2    1    2    0    0  0.58311423513E+02  0.32416448202E+03 -0.28782291228E+03  0.45491794834E+03  0.12500190946E+03 0.  0.
          5    1    3    3  501    0 -0.59335359881E+02 -0.15403076623E+03 -0.96833682254E+01  0.16541468948E+03  0.47000000000E+01 0. -1.
         -5    1    3    3    0  501  0.10239363676E+01 -0.17013371580E+03 -0.12743030893E+03  0.21261962123E+03  0.47000000000E+01 0. -1.
          5    1    4    4  502    0  0.36744977135E+02  0.13274557844E+02 -0.45292908554E+02  0.59999539964E+02  0.47000000000E+01 0. -1.
         -5    1    4    4    0  502  0.21566446378E+02  0.31088992418E+03 -0.24253000373E+03  0.39491840837E+03  0.47000000000E+01 0. -1.
<mgrwt>
<rscale>  0 0.71640656E+03</rscale>
<asrwt>0</asrwt>
<pdfrwt beam="1">  1       21 0.31385821E-01 0.71640656E+03</pdfrwt>
<pdfrwt beam="2">  1       21 0.96760679E-01 0.71640656E+03</pdfrwt>
<totfact> 0.71866261E+03</totfact>
</mgrwt>
</event>
<event>
 8    1  0.9529436E-006  0.2704557E+03  0.7546771E-02  0.1101019E+00
         21   -1    0    0  504  503  0.00000000000E+00  0.00000000000E+00  0.13178059038E+02  0.13178059038E+02  0.00000000000E+00 0.  1.
         21   -1    0    0  503  504 -0.00000000000E+00 -0.00000000000E+00 -0.13876530319E+04  0.13876530319E+04  0.00000000000E+00 0.  1.
         25    2    1    2    0    0 -0.14471204329E+01 -0.17790777641E+02 -0.43636021707E+03  0.45425687396E+03  0.12498184900E+03 0.  0.
         25    2    1    2    0    0  0.14471204329E+01  0.17790777641E+02 -0.93811475584E+03  0.94657421702E+03  0.12499938909E+03 0.  0.
          5    1    3    3  501    0 -0.12283710352E+02  0.48454263324E+02 -0.10837402601E+03  0.11943920918E+03  0.47000000000E+01 0.  1.
         -5    1    3    3    0  501  0.10836589919E+02 -0.66245040965E+02 -0.32798619105E+03  0.33481766479E+03  0.47000000000E+01 0.  1.
          5    1    4    4  502    0  0.37244519454E+02  0.43331018740E+02 -0.22848995653E+03  0.23557266745E+03  0.47000000000E+01 0. -1.
         -5    1    4    4    0  502 -0.35797399021E+02 -0.25540241099E+02 -0.70962479932E+03  0.71100154958E+03  0.47000000000E+01 0. -1.
<mgrwt>
<rscale>  0 0.27045572E+03</rscale>
<asrwt>0</asrwt>
<pdfrwt beam="1">  1       21 0.20273927E-02 0.27045572E+03</pdfrwt>
<pdfrwt beam="2">  1       21 0.21348519E+00 0.27045572E+03</pdfrwt>
<totfact> 0.12770605E+05</totfact>
</mgrwt>
</event>
<event>
 8    1  0.9529436E-006  0.3678645E+03  0.7546771E-02  0.1055513E+00
         21   -1    0    0  504  503  0.00000000000E+00  0.00000000000E+00  0.47633100411E+02  0.47633100411E+02  0.00000000000E+00 0. -1.
         21   -1    0    0  503  504 -0.00000000000E+00 -0.00000000000E+00 -0.71024302009E+03  0.71024302009E+03  0.00000000000E+00 0. -1.
         25    2    1    2    0    0 -0.48855488331E+02 -0.11730171077E+03 -0.23777172242E+03  0.29716090835E+03  0.12499065316E+03 0.  0.
         25    2    1    2    0    0  0.48855488331E+02  0.11730171077E+03 -0.42483819725E+03  0.46071521215E+03  0.12499785107E+03 0.  0.
          5    1    3    3  501    0 -0.35824279062E+02 -0.13905391143E+02 -0.13404541460E+01  0.38737910249E+02  0.47000000000E+01 0.  1.
         -5    1    3    3    0  501 -0.13031209269E+02 -0.10339631963E+03 -0.23643126828E+03  0.25842299810E+03  0.47000000000E+01 0.  1.
          5    1    4    4  502    0 -0.34208572718E+02  0.34359334379E+02 -0.59184675588E+02  0.76653154735E+02  0.47000000000E+01 0.  1.
         -5    1    4    4    0  502  0.83064061049E+02  0.82942376391E+02 -0.36565352167E+03  0.38406205742E+03  0.47000000000E+01 0.  1.
<mgrwt>
<rscale>  0 0.36786452E+03</rscale>
<asrwt>0</asrwt>
<pdfrwt beam="1">  1       21 0.73281701E-02 0.36786452E+03</pdfrwt>
<pdfrwt beam="2">  1       21 0.10926814E+00 0.36786452E+03</pdfrwt>
<totfact> 0.87383693E+04</totfact>
</mgrwt>
</event>
<event>
 8    1  0.9529436E-006  0.3406703E+03  0.7546771E-02  0.1066511E+00
         21   -1    0    0  504  503  0.00000000000E+00  0.00000000000E+00  0.14695151069E+04  0.14695151069E+04  0.00000000000E+00 0. -1.
         21   -1    0    0  503  504 -0.00000000000E+00 -0.00000000000E+00 -0.19743968199E+02  0.19743968199E+02  0.00000000000E+00 0. -1.
         25    2    1    2    0    0 -0.63291022497E+02  0.67192265249E+02  0.41985449611E+03  0.44768646382E+03  0.12499927178E+03 0.  0.
         25    2    1    2    0    0  0.63291022497E+02 -0.67192265249E+02  0.10299166425E+04  0.10415726112E+04  0.12499863935E+03 0.  0.
          5    1    3    3  501    0  0.10326843952E+02  0.78956406872E+02  0.24104795927E+03  0.25390345913E+03  0.47000000000E+01 0.  1.
         -5    1    3    3    0  501 -0.73617866449E+02 -0.11764141623E+02  0.17880653684E+03  0.19378300469E+03  0.47000000000E+01 0.  1.
          5    1    4    4  502    0  0.52991495171E+02  0.14249137831E+01  0.78971036469E+03  0.79150153445E+03  0.47000000000E+01 0. -1.
         -5    1    4    4    0  502  0.10299527326E+02 -0.68617179032E+02  0.24020627785E+03  0.25007107677E+03  0.47000000000E+01 0. -1.
<mgrwt>
<rscale>  0 0.34067028E+03</rscale>
<asrwt>0</asrwt>
<pdfrwt beam="1">  1       21 0.22607916E+00 0.34067028E+03</pdfrwt>
<pdfrwt beam="2">  1       21 0.30375347E-02 0.34067028E+03</pdfrwt>
<totfact> 0.52859758E+04</totfact>
</mgrwt>
</event>
<event>
 8    1  0.9529436E-006  0.7803279E+03  0.7546771E-02  0.9588936E-01
         21   -1    0    0  504  503  0.00000000000E+00  0.00000000000E+00  0.10627628688E+04  0.10627628688E+04  0.00000000000E+00 0. -1.
         21   -1    0    0  503  504 -0.00000000000E+00 -0.00000000000E+00 -0.14323789945E+03  0.14323789945E+03  0.00000000000E+00 0. -1.
         25    2    1    2    0    0 -0.18182332640E+03  0.17836940311E+02  0.95627566617E+03  0.98156295085E+03  0.12499919328E+03 0.  0.
         25    2    1    2    0    0  0.18182332640E+03 -0.17836940311E+02 -0.36750696834E+02  0.22443781738E+03  0.12507534405E+03 0.  0.
          5    1    3    3  501    0 -0.26533222563E+02 -0.24569624679E+02  0.54857941136E+02  0.65872316357E+02  0.47000000000E+01 0. -1.
         -5    1    3    3    0  501 -0.15529010384E+03  0.42406564990E+02  0.90141772503E+03  0.91569063450E+03  0.47000000000E+01 0. -1.
          5    1    4    4  502    0  0.93562863277E+02  0.57446016203E+01 -0.79931872627E+02  0.12328099648E+03  0.47000000000E+01 0.  1.
         -5    1    4    4    0  502  0.88260463122E+02 -0.23581541931E+02  0.43181175793E+02  0.10115682089E+03  0.47000000000E+01 0.  1.
<mgrwt>
<rscale>  0 0.78032793E+03</rscale>
<asrwt>0</asrwt>
<pdfrwt beam="1">  1       21 0.16350197E+00 0.78032793E+03</pdfrwt>
<pdfrwt beam="2">  1       21 0.22036601E-01 0.78032793E+03</pdfrwt>
<totfact> 0.36068058E+03</totfact>
</mgrwt>
</event>
<event>
 8    1  0.9529436E-006  0.3699659E+03  0.7546771E-02  0.1054706E+00
         21   -1    0    0  504  503  0.00000000000E+00  0.00000000000E+00  0.26774606873E+03  0.26774606873E+03  0.00000000000E+00 0.  1.
         21   -1    0    0  503  504 -0.00000000000E+00 -0.00000000000E+00 -0.12780275153E+03  0.12780275153E+03  0.00000000000E+00 0.  1.
         25    2    1    2    0    0 -0.12524009401E+03 -0.13814301387E+02  0.12569452312E+03  0.21748591986E+03  0.12500038450E+03 0.  0.
         25    2    1    2    0    0  0.12524009401E+03  0.13814301387E+02  0.14248794076E+02  0.17806290040E+03  0.12500980880E+03 0.  0.
          5    1    3    3  501    0  0.24909879989E+02  0.10475921231E+01  0.99066583217E+01  0.27236582925E+02  0.47000000000E+01 0.  1.
         -5    1    3    3    0  501 -0.15014997400E+03 -0.14861893510E+02  0.11578786480E+03  0.19024933694E+03  0.47000000000E+01 0.  1.
          5    1    4    4  502    0  0.78190283097E+02  0.16366766401E+02  0.69008590915E+02  0.10566866628E+03  0.47000000000E+01 0.  1.
         -5    1    4    4    0  502  0.47049810911E+02 -0.25524650140E+01 -0.54759796839E+02  0.72394234123E+02  0.47000000000E+01 0.  1.
<mgrwt>
<rscale>  0 0.36996586E+03</rscale>
<asrwt>0</asrwt>
<pdfrwt beam="1">  1       21 0.41191703E-01 0.36996586E+03</pdfrwt>
<pdfrwt beam="2">  1       21 0.19661962E-01 0.36996586E+03</pdfrwt>
<totfact> 0.12873237E+05</totfact>
</mgrwt>
</event>
<event>
 8    1  0.9529436E-006  0.3072812E+03  0.7546771E-02  0.1081656E+00
         21   -1    0    0  504  503  0.00000000000E+00  0.00000000000E+00  0.15161784889E+02  0.15161784889E+02  0.00000000000E+00 0. -1.
         21   -1    0    0  503  504 -0.00000000000E+00 -0.00000000000E+00 -0.15569033291E+04  0.15569033291E+04  0.00000000000E+00 0. -1.
         25    2    1    2    0    0  0.46844566363E+02  0.25568002068E+02 -0.11372342519E+04  0.11453275561E+04  0.12500132461E+03 0.  0.
         25    2    1    2    0    0 -0.46844566363E+02 -0.25568002068E+02 -0.40450729240E+03  0.42673755788E+03  0.12502262825E+03 0.  0.
          5    1    3    3  501    0  0.81405426341E+02  0.36399656304E+02 -0.97261532015E+03  0.97670590733E+03  0.47000000000E+01 0.  1.
         -5    1    3    3    0  501 -0.34560859978E+02 -0.10831654236E+02 -0.16461893170E+03  0.16862164882E+03  0.47000000000E+01 0.  1.
          5    1    4    4  502    0  0.12109078503E+02  0.31918244344E+02 -0.24258557872E+03  0.24502093197E+03  0.47000000000E+01 0. -1.
         -5    1    4    4    0  502 -0.58953644866E+02 -0.57486246412E+02 -0.16192171369E+03  0.18171662591E+03  0.47000000000E+01 0. -1.
<mgrwt>
<rscale>  0 0.30728120E+03</rscale>
<asrwt>0</asrwt>
<pdfrwt beam="1">  1       21 0.23325828E-02 0.30728120E+03</pdfrwt>
<pdfrwt beam="2">  1       21 0.23952354E+00 0.30728120E+03</pdfrwt>
<totfact> 0.68759109E+04</totfact>
</mgrwt>
</event>
<event>
 8    1  0.9529436E-006  0.2580780E+03  0.7546771E-02  0.1108304E+00
         21   -1    0    0  504  503  0.00000000000E+00  0.00000000000E+00  0.41165672097E+02  0.41165672097E+02  0.00000000000E+00 0. -1.
         21   -1    0    0  503  504 -0.00000000000E+00 -0.00000000000E+00 -0.40448910253E+03  0.40448910253E+03  0.00000000000E+00 0. -1.
         25    2    1    2    0    0  0.27101972852E+02 -0.11809514274E+02 -0.16053209281E+03  0.20560522215E+03  0.12501589097E+03 0.  0.
         25    2    1    2    0    0 -0.27101972852E+02  0.11809514274E+02 -0.20279133763E+03  0.24004955248E+03  0.12500191786E+03 0.  0.
          5    1    3    3  501    0 -0.23856610584E+02 -0.22979319291E+02 -0.14801747555E+03  0.15175127694E+03  0.47000000000E+01 0. -1.
         -5    1    3    3    0  501  0.50958583436E+02  0.11169805017E+02 -0.12514617256E+02  0.53853945213E+02  0.47000000000E+01 0. -1.
          5    1    4    4  502    0  0.40455044405E+02  0.26925683082E+01 -0.21128341846E+02  0.45960389153E+02  0.47000000000E+01 0.  1.
         -5    1    4    4    0  502 -0.67557017257E+02  0.91169459659E+01 -0.18166299578E+03  0.19408916333E+03  0.47000000000E+01 0.  1.
<mgrwt>
<rscale>  0 0.25807802E+03</rscale>
<asrwt>0</asrwt>
<pdfrwt beam="1">  1       21 0.63331805E-02 0.25807802E+03</pdfrwt>
<pdfrwt beam="2">  1       21 0.62229091E-01 0.25807802E+03</pdfrwt>
<totfact> 0.42426628E+05</totfact>
</mgrwt>
</event>
<event>
 8    1  0.9529436E-006  0.3452354E+03  0.7546771E-02  0.1064588E+00
         21   -1    0    0  504  503  0.00000000000E+00  0.00000000000E+00  0.25088232320E+03  0.25088232320E+03  0.00000000000E+00 0. -1.
         21   -1    0    0  503  504 -0.00000000000E+00 -0.00000000000E+00 -0.11876830429E+03  0.11876830429E+03  0.00000000000E+00 0. -1.
         25    2    1    2    0    0  0.17606665972E+02  0.92277772778E+02  0.14434731534E+03  0.21280817040E+03  0.12500395157E+03 0.  0.
         25    2    1    2    0    0 -0.17606665972E+02 -0.92277772778E+02 -0.12233296425E+02  0.15684245709E+03  0.12499888307E+03 0.  0.
          5    1    3    3  501    0 -0.51349577727E+02  0.17455318758E+02  0.47258492847E+02  0.72089683256E+02  0.47000000000E+01 0. -1.
         -5    1    3    3    0  501  0.68956243700E+02  0.74822454020E+02  0.97088822493E+02  0.14071848714E+03  0.47000000000E+01 0. -1.
          5    1    4    4  502    0  0.40666157697E+02 -0.36820827271E+01 -0.27714968267E+02  0.49573214351E+02  0.47000000000E+01 0. -1.
         -5    1    4    4    0  502 -0.58272823670E+02 -0.88595690051E+02  0.15481671842E+02  0.10726924274E+03  0.47000000000E+01 0. -1.
<mgrwt>
<rscale>  0 0.34523539E+03</rscale>
<asrwt>0</asrwt>
<pdfrwt beam="1">  1       21 0.38597280E-01 0.34523539E+03</pdfrwt>
<pdfrwt beam="2">  1       21 0.18272047E-01 0.34523539E+03</pdfrwt>
<totfact> 0.16974994E+05</totfact>
</mgrwt>
</event>
<event>
 8    1  0.9529436E-006  0.3635776E+03  0.7546771E-02  0.1057176E+00
         21   -1    0    0  504  503  0.00000000000E+00  0.00000000000E+00  0.45070748070E+03  0.45070748070E+03  0.00000000000E+00 0. -1.
         21   -1    0    0  503  504 -0.00000000000E+00 -0.00000000000E+00 -0.73322863939E+02  0.73322863939E+02  0.00000000000E+00 0. -1.
         25    2    1    2    0    0  0.11963604188E+03 -0.55610732758E+02  0.18349057864E+03  0.25827403630E+03  0.12502539448E+03 0.  0.
         25    2    1    2    0    0 -0.11963604188E+03  0.55610732758E+02  0.19389403812E+03  0.26575630833E+03  0.12500472506E+03 0.  0.
          5    1    3    3  501    0  0.95113647464E+02  0.20117015793E+02  0.12940828952E+03  0.16192558678E+03  0.47000000000E+01 0.  1.
         -5    1    3    3    0  501  0.24522394413E+02 -0.75727748551E+02  0.54082289122E+02  0.96348449521E+02  0.47000000000E+01 0.  1.
          5    1    4    4  502    0 -0.92471908678E+02 -0.18040780266E+02  0.64282969737E+02  0.11415302819E+03  0.47000000000E+01 0. -1.
         -5    1    4    4    0  502 -0.27164133198E+02  0.73651513024E+02  0.12961106838E+03  0.15160328014E+03  0.47000000000E+01 0. -1.
<mgrwt>
<rscale>  0 0.36357758E+03</rscale>
<asrwt>0</asrwt>
<pdfrwt beam="1">  1       21 0.69339611E-01 0.36357758E+03</pdfrwt>
<pdfrwt beam="2">  1       21 0.11280441E-01 0.36357758E+03</pdfrwt>
<totfact> 0.11785591E+05</totfact>
</mgrwt>
</event>
<event>
 8    1  0.9529436E-006  0.3106913E+03  0.7546771E-02  0.1080015E+00
         21   -1    0    0  504  503  0.00000000000E+00  0.00000000000E+00  0.24873890577E+03  0.24873890577E+03  0.00000000000E+00 0. -1.
         21   -1    0    0  503  504 -0.00000000000E+00 -0.00000000000E+00 -0.97018505519E+02  0.97018505519E+02  0.00000000000E+00 0. -1.
         25    2    1    2    0    0  0.72869269143E+02  0.34763741364E+02  0.26232546709E+02  0.15110469238E+03  0.12500413374E+03 0.  0.
         25    2    1    2    0    0 -0.72869269143E+02 -0.34763741364E+02  0.12548785354E+03  0.19465271891E+03  0.12499612591E+03 0.  0.
          5    1    3    3  501    0  0.62011988122E+02 -0.39185945739E+02  0.73614719352E+01  0.73873583122E+02  0.47000000000E+01 0.  1.
         -5    1    3    3    0  501  0.10857281021E+02  0.73949687102E+02  0.18871074774E+02  0.77231109255E+02  0.47000000000E+01 0.  1.
          5    1    4    4  502    0  0.17007184259E+02 -0.50727480022E+02  0.68083170276E+02  0.86717527758E+02  0.47000000000E+01 0.  1.
         -5    1    4    4    0  502 -0.89876453402E+02  0.15963738658E+02  0.57404683262E+02  0.10793519115E+03  0.47000000000E+01 0.  1.
<mgrwt>
<rscale>  0 0.31069134E+03</rscale>
<asrwt>0</asrwt>
<pdfrwt beam="1">  1       21 0.38267524E-01 0.31069134E+03</pdfrwt>
<pdfrwt beam="2">  1       21 0.14925924E-01 0.31069134E+03</pdfrwt>
<totfact> 0.25329053E+05</totfact>
</mgrwt>
</event>
<event>
 8    1  0.9529436E-006  0.2508725E+03  0.7546771E-02  0.1112755E+00
         21   -1    0    0  504  503  0.00000000000E+00  0.00000000000E+00  0.49318470589E+02  0.49318470589E+02  0.00000000000E+00 0. -1.
         21   -1    0    0  503  504 -0.00000000000E+00 -0.00000000000E+00 -0.31903361635E+03  0.31903361635E+03  0.00000000000E+00 0. -1.
         25    2    1    2    0    0  0.26194172556E+01 -0.27766396914E+01 -0.14877232941E+03  0.19434261696E+03  0.12498510189E+03 0.  0.
         25    2    1    2    0    0 -0.26194172556E+01  0.27766396914E+01 -0.12094281635E+03  0.17400946998E+03  0.12505022887E+03 0.  0.
          5    1    3    3  501    0 -0.32860227536E+02 -0.40971647234E+02 -0.12725904795E+03  0.13775131838E+03  0.47000000000E+01 0. -1.
         -5    1    3    3    0  501  0.35479644791E+02  0.38195007543E+02 -0.21513281460E+02  0.56591298579E+02  0.47000000000E+01 0. -1.
          5    1    4    4  502    0  0.22038539415E+02 -0.56143877410E+02 -0.50498091025E+02  0.78803422434E+02  0.47000000000E+01 0.  1.
         -5    1    4    4    0  502 -0.24657956670E+02  0.58920517101E+02 -0.70444725329E+02  0.95206047546E+02  0.47000000000E+01 0.  1.
<mgrwt>
<rscale>  0 0.25087248E+03</rscale>
<asrwt>0</asrwt>
<pdfrwt beam="1">  1       21 0.75874573E-02 0.25087248E+03</pdfrwt>
<pdfrwt beam="2">  1       21 0.49082093E-01 0.25087248E+03</pdfrwt>
<totfact> 0.51500183E+05</totfact>
</mgrwt>
</event>
<event>
 8    1  0.9529436E-006  0.3240040E+03  0.7546771E-02  0.1073821E+00
         21   -1    0    0  504  503  0.00000000000E+00  0.00000000000E+00  0.13770385367E+04  0.13770385367E+04  0.00000000000E+00 0.  1.
         21   -1    0    0  503  504 -0.00000000000E+00 -0.00000000000E+00 -0.19058760337E+02  0.19058760337E+02  0.00000000000E+00 0.  1.
         25    2    1    2    0    0 -0.70635697608E+02  0.74056345553E+02  0.73124947332E+03  0.74888077826E+03  0.12499153458E+03 0.  0.
         25    2    1    2    0    0  0.70635697608E+02 -0.74056345553E+02  0.62673030306E+03  0.64721651880E+03  0.12499842134E+03 0.  0.
          5    1    3    3  501    0 -0.69635581034E+02  0.55791869184E+02  0.72260838936E+03  0.72811181915E+03  0.47000000000E+01 0. -1.
         -5    1    3    3    0  501 -0.10001165740E+01  0.18264476369E+02  0.86410839565E+01  0.20768959101E+02  0.47000000000E+01 0. -1.
          5    1    4    4  502    0 -0.16328836824E+02 -0.16632192998E+02  0.18557570884E+02  0.30161800229E+02  0.47000000000E+01 0. -1.
         -5    1    4    4    0  502  0.86964534432E+02 -0.57424152555E+02  0.60817273218E+03  0.61705471857E+03  0.47000000000E+01 0. -1.
<mgrwt>
<rscale>  0 0.32400400E+03</rscale>
<asrwt>0</asrwt>
<pdfrwt beam="1">  1       21 0.21185200E+00 0.32400400E+03</pdfrwt>
<pdfrwt beam="2">  1       21 0.29321181E-02 0.32400400E+03</pdfrwt>
<totfact> 0.69455002E+04</totfact>
</mgrwt>
</event>
<event>
 8    1  0.9529436E-006  0.2602899E+03  0.7546771E-02  0.1106969E+00
         21   -1    0    0  504  503  0.00000000000E+00  0.00000000000E+00  0.14513936050E+03  0.14513936050E+03  0.00000000000E+00 0. -1.
         21   -1    0    0  503  504 -0.00000000000E+00 -0.00000000000E+00 -0.11669958104E+03  0.11669958104E+03  0.00000000000E+00 0. -1.
         25    2    1    2    0    0 -0.48067157567E+01  0.28471827254E+02 -0.77966109213E+01  0.12852890987E+03  0.12500057627E+03 0.  0.
         25    2    1    2    0    0  0.48067157567E+01 -0.28471827254E+02  0.36236390384E+02  0.13331003167E+03  0.12499895637E+03 0.  0.
          5    1    3    3  501    0  0.69832664830E+01 -0.29811765997E+02  0.41053155981E+02  0.51429165058E+02  0.47000000000E+01 0.  1.
         -5    1    3    3    0  501 -0.11789982240E+02  0.58283593251E+02 -0.48849766902E+02  0.77099744810E+02  0.47000000000E+01 0.  1.
          5    1    4    4  502    0  0.37550868842E+02 -0.11874803827E+02 -0.35087491164E+02  0.52955648924E+02  0.47000000000E+01 0. -1.
         -5    1    4    4    0  502 -0.32744153085E+02 -0.16597023426E+02  0.71323881548E+02  0.80354382749E+02  0.47000000000E+01 0. -1.
<mgrwt>
<rscale>  0 0.26028986E+03</rscale>
<asrwt>0</asrwt>
<pdfrwt beam="1">  1       21 0.22329132E-01 0.26028986E+03</pdfrwt>
<pdfrwt beam="2">  1       21 0.17953782E-01 0.26028986E+03</pdfrwt>
<totfact> 0.52281596E+05</totfact>
</mgrwt>
</event>
<event>
 8    1  0.9529436E-006  0.5202720E+03  0.7546771E-02  0.1008619E+00
         21   -1    0    0  504  503  0.00000000000E+00  0.00000000000E+00  0.65410896856E+03  0.65410896856E+03  0.00000000000E+00 0.  1.
         21   -1    0    0  503  504 -0.00000000000E+00 -0.00000000000E+00 -0.10345484111E+03  0.10345484111E+03  0.00000000000E+00 0.  1.
         25    2    1    2    0    0 -0.43529803306E+02  0.18456892996E+03  0.46000324597E+03  0.51301928179E+03  0.12500105399E+03 0.  0.
         25    2    1    2    0    0  0.43529803306E+02 -0.18456892996E+03  0.90650881481E+02  0.24454452789E+03  0.12499564042E+03 0.  0.
          5    1    3    3  501    0  0.14136190619E+02  0.73090738396E+02  0.66410068259E+02  0.99872293909E+02  0.47000000000E+01 0.  1.
         -5    1    3    3    0  501 -0.57665993925E+02  0.11147819156E+03  0.39359317771E+03  0.41314698788E+03  0.47000000000E+01 0.  1.
          5    1    4    4  502    0 -0.10928217298E+02 -0.15613818329E+03  0.94355018558E+02  0.18282099918E+03  0.47000000000E+01 0.  1.
         -5    1    4    4    0  502  0.54458020605E+02 -0.28430746668E+02 -0.37041370764E+01  0.61723528705E+02  0.47000000000E+01 0.  1.
<mgrwt>
<rscale>  0 0.52027200E+03</rscale>
<asrwt>0</asrwt>
<pdfrwt beam="1">  1       21 0.10063215E+00 0.52027200E+03</pdfrwt>
<pdfrwt beam="2">  1       21 0.15916130E-01 0.52027200E+03</pdfrwt>
<totfact> 0.25358401E+04</totfact>
</mgrwt>
</event>
<event>
 8    1  0.9529436E-006  0.2871888E+03  0.7546771E-02  0.1091826E+00
         21   -1    0    0  504  503  0.00000000000E+00  0.00000000000E+00  0.89022560708E+02  0.89022560708E+02  0.00000000000E+00 0. -1.
         21   -1    0    0  503  504 -0.00000000000E+00 -0.00000000000E+00 -0.23161933673E+03  0.23161933673E+03  0.00000000000E+00 0. -1.
         25    2    1    2    0    0  0.56351992693E+02  0.42478648184E+02 -0.75619848401E+02  0.16224519181E+03  0.12500063264E+03 0.  0.
         25    2    1    2    0    0 -0.56351992693E+02 -0.42478648184E+02 -0.66976927622E+02  0.15839670563E+03  0.12499449944E+03 0.  0.
          5    1    3    3  501    0 -0.36080515024E+02  0.30648759783E+02 -0.40740487731E+02  0.62634075240E+02  0.47000000000E+01 0.  1.
         -5    1    3    3    0  501  0.92432507718E+02  0.11829888402E+02 -0.34879360669E+02  0.99611116565E+02  0.47000000000E+01 0.  1.
          5    1    4    4  502    0 -0.15093011936E+02  0.32377570198E+02  0.15777119381E+02  0.39333364427E+02  0.47000000000E+01 0. -1.
         -5    1    4    4    0  502 -0.41258980757E+02 -0.74856218382E+02 -0.82754047003E+02  0.11906334121E+03  0.47000000000E+01 0. -1.
<mgrwt>
<rscale>  0 0.28718876E+03</rscale>
<asrwt>0</asrwt>
<pdfrwt beam="1">  1       21 0.13695779E-01 0.28718876E+03</pdfrwt>
<pdfrwt beam="2">  1       21 0.35633744E-01 0.28718876E+03</pdfrwt>
<totfact> 0.34402411E+05</totfact>
</mgrwt>
</event>
<event>
 8    1  0.9529436E-006  0.5427684E+03  0.7546771E-02  0.1003182E+00
         21   -1    0    0  504  503  0.00000000000E+00  0.00000000000E+00  0.31579606153E+03  0.31579606153E+03  0.00000000000E+00 0.  1.
         21   -1    0    0  503  504 -0.00000000000E+00 -0.00000000000E+00 -0.23321816135E+03  0.23321816135E+03  0.00000000000E+00 0.  1.
         25    2    1    2    0    0  0.19234338016E+03 -0.13837888760E+03  0.85143967429E+02  0.28110149911E+03  0.12499546068E+03 0.  0.
         25    2    1    2    0    0 -0.19234338016E+03  0.13837888760E+03 -0.25660672442E+01  0.26791272377E+03  0.12500380167E+03 0.  0.
          5    1    3    3  501    0  0.45657282347E+02 -0.10475519733E+02 -0.29133278775E+02  0.55363904100E+02  0.47000000000E+01 0.  1.
         -5    1    3    3    0  501  0.14668609781E+03 -0.12790336786E+03  0.11427724620E+03  0.22573759501E+03  0.47000000000E+01 0.  1.
          5    1    4    4  502    0 -0.74252075305E+01  0.47043755228E+02 -0.34717834546E+02  0.59124162983E+02  0.47000000000E+01 0. -1.
         -5    1    4    4    0  502 -0.18491817263E+03  0.91335132369E+02  0.32151767302E+02  0.20878856078E+03  0.47000000000E+01 0. -1.
<mgrwt>
<rscale>  0 0.54276837E+03</rscale>
<asrwt>0</asrwt>
<pdfrwt beam="1">  1       21 0.48584010E-01 0.54276837E+03</pdfrwt>
<pdfrwt beam="2">  1       21 0.35879717E-01 0.54276837E+03</pdfrwt>
<totfact> 0.27026264E+04</totfact>
</mgrwt>
</event>
<event>
 8    1  0.9529436E-006  0.2920303E+03  0.7546771E-02  0.1089294E+00
         21   -1    0    0  504  503  0.00000000000E+00  0.00000000000E+00  0.69641565256E+02  0.69641565256E+02  0.00000000000E+00 0. -1.
         21   -1    0    0  503  504 -0.00000000000E+00 -0.00000000000E+00 -0.30614520143E+03  0.30614520143E+03  0.00000000000E+00 0. -1.
         25    2    1    2    0    0 -0.12588103357E+02 -0.66018350134E+02 -0.73948269749E+02  0.15999517171E+03  0.12495289301E+03 0.  0.
         25    2    1    2    0    0  0.12588103357E+02  0.66018350134E+02 -0.16255536642E+03  0.21579159497E+03  0.12499952963E+03 0.  0.
          5    1    3    3  501    0 -0.41219464613E+02 -0.40249805382E+02 -0.98404953526E+02  0.11412587776E+03  0.47000000000E+01 0.  1.
         -5    1    3    3    0  501  0.28631361256E+02 -0.25768544753E+02  0.24456683777E+02  0.45869293949E+02  0.47000000000E+01 0.  1.
          5    1    4    4  502    0 -0.47770614907E+01  0.37659216619E+02 -0.17563392803E+03  0.17975094878E+03  0.47000000000E+01 0. -1.
         -5    1    4    4    0  502  0.17365164847E+02  0.28359133515E+02  0.13078561610E+02  0.36040646188E+02  0.47000000000E+01 0. -1.
<mgrwt>
<rscale>  0 0.29203035E+03</rscale>
<asrwt>0</asrwt>
<pdfrwt beam="1">  1       21 0.10714087E-01 0.29203035E+03</pdfrwt>
<pdfrwt beam="2">  1       21 0.47099260E-01 0.29203035E+03</pdfrwt>
<totfact> 0.30259792E+05</totfact>
</mgrwt>
</event>
<event>
 8    1  0.9529436E-006  0.2906492E+03  0.7546771E-02  0.1090011E+00
         21   -1    0    0  504  503  0.00000000000E+00  0.00000000000E+00  0.23838718104E+03  0.23838718104E+03  0.00000000000E+00 0.  1.
         21   -1    0    0  503  504 -0.00000000000E+00 -0.00000000000E+00 -0.88592199201E+02  0.88592199201E+02  0.00000000000E+00 0.  1.
         25    2    1    2    0    0 -0.54558831572E+02 -0.53893098023E+01  0.18780634929E+02  0.13778152912E+03  0.12500130702E+03 0.  0.
         25    2    1    2    0    0  0.54558831572E+02  0.53893098023E+01  0.13101434691E+03  0.18919785112E+03  0.12500142803E+03 0.  0.
          5    1    3    3  501    0  0.38297506217E+02  0.13811793593E+02  0.11501385523E+02  0.42565672714E+02  0.47000000000E+01 0. -1.
         -5    1    3    3    0  501 -0.92856337789E+02 -0.19201103395E+02  0.72792494060E+01  0.95215856406E+02  0.47000000000E+01 0. -1.
          5    1    4    4  502    0  0.53161357254E+02 -0.52860308778E+02  0.92661364044E+02  0.11928353003E+03  0.47000000000E+01 0. -1.
         -5    1    4    4    0  502  0.13974743180E+01  0.58249618580E+02  0.38352982864E+02  0.69914321092E+02  0.47000000000E+01 0. -1.
<mgrwt>
<rscale>  0 0.29064924E+03</rscale>
<asrwt>0</asrwt>
<pdfrwt beam="1">  1       21 0.36674951E-01 0.29064924E+03</pdfrwt>
<pdfrwt beam="2">  1       21 0.13629569E-01 0.29064924E+03</pdfrwt>
<totfact> 0.32731828E+05</totfact>
</mgrwt>
</event>
<event>
 8    1  0.9529436E-006  0.3919357E+03  0.7546771E-02  0.1046608E+00
         21   -1    0    0  504  503  0.00000000000E+00  0.00000000000E+00  0.35598846161E+02  0.35598846161E+02  0.00000000000E+00 0. -1.
         21   -1    0    0  503  504 -0.00000000000E+00 -0.00000000000E+00 -0.10787823332E+04  0.10787823332E+04  0.00000000000E+00 0. -1.
         25    2    1    2    0    0  0.79498368073E+02 -0.11969252105E+03 -0.65290135250E+03  0.68010944361E+03  0.12498955582E+03 0.  0.
         25    2    1    2    0    0 -0.79498368073E+02  0.11969252105E+03 -0.39028213458E+03  0.43427173579E+03  0.12500202325E+03 0.  0.
          5    1    3    3  501    0  0.89817407611E+02 -0.22830585099E+02 -0.33077316536E+03  0.34354239804E+03  0.47000000000E+01 0. -1.
         -5    1    3    3    0  501 -0.10319039538E+02 -0.96861935951E+02 -0.32212818714E+03  0.33656704556E+03  0.47000000000E+01 0. -1.
          5    1    4    4  502    0  0.18452267147E+00  0.70094911975E+02 -0.28327869790E+03  0.29185996885E+03  0.47000000000E+01 0.  1.
         -5    1    4    4    0  502 -0.79682890744E+02  0.49597609075E+02 -0.10700343668E+03  0.14241176695E+03  0.47000000000E+01 0.  1.
<mgrwt>
<rscale>  0 0.39193574E+03</rscale>
<asrwt>0</asrwt>
<pdfrwt beam="1">  1       21 0.54767460E-02 0.39193574E+03</pdfrwt>
<pdfrwt beam="2">  1       21 0.16596650E+00 0.39193574E+03</pdfrwt>
<totfact> 0.48258949E+04</totfact>
</mgrwt>
</event>
<event>
 8    1  0.9529436E-006  0.3814375E+03  0.7546771E-02  0.1050404E+00
         21   -1    0    0  504  503  0.00000000000E+00  0.00000000000E+00  0.14240187046E+03  0.14240187046E+03  0.00000000000E+00 0. -1.
         21   -1    0    0  503  504 -0.00000000000E+00 -0.00000000000E+00 -0.25542957476E+03  0.25542957476E+03  0.00000000000E+00 0. -1.
         25    2    1    2    0    0 -0.14293192029E+03 -0.10510446962E+02 -0.71673426462E+02  0.20323020122E+03  0.12500172516E+03 0.  0.
         25    2    1    2    0    0  0.14293192029E+03  0.10510446962E+02 -0.41354277840E+02  0.19460124401E+03  0.12497785620E+03 0.  0.
          5    1    3    3  501    0 -0.10880402213E+03  0.70108733994E+01  0.13243250227E+02  0.10993152985E+03  0.47000000000E+01 0.  1.
         -5    1    3    3    0  501 -0.34127898158E+02 -0.17521320361E+02 -0.84916676688E+02  0.93298671372E+02  0.47000000000E+01 0.  1.
          5    1    4    4  502    0  0.14779921404E+03 -0.25512081988E+02 -0.17984785251E+02  0.15113244687E+03  0.47000000000E+01 0.  1.
         -5    1    4    4    0  502 -0.48672937501E+01  0.36022528950E+02 -0.23369492589E+02  0.43468797134E+02  0.47000000000E+01 0.  1.
<mgrwt>
<rscale>  0 0.38143754E+03</rscale>
<asrwt>0</asrwt>
<pdfrwt beam="1">  1       21 0.21907980E-01 0.38143754E+03</pdfrwt>
<pdfrwt beam="2">  1       21 0.39296857E-01 0.38143754E+03</pdfrwt>
<totfact> 0.11514947E+05</totfact>
</mgrwt>
</event>
<event>
 8    1  0.9529436E-006  0.5047794E+03  0.7546771E-02  0.1012539E+00
         21   -1    0    0  504  503  0.00000000000E+00  0.00000000000E+00  0.40041288701E+02  0.40041288701E+02  0.00000000000E+00 0. -1.
         21   -1    0    0  503  504 -0.00000000000E+00 -0.00000000000E+00 -0.15908717890E+04  0.15908717890E+04  0.00000000000E+00 0. -1.
         25    2    1    2    0    0 -0.43410574696E+02 -0.67613904584E+02 -0.14345457091E+04  0.14422212655E+04  0.12499867649E+03 0.  0.
         25    2    1    2    0    0  0.43410574696E+02  0.67613904584E+02 -0.11628479118E+03  0.18869181217E+03  0.12500531681E+03 0.  0.
          5    1    3    3  501    0  0.39895236258E+02 -0.48015666141E+02 -0.64992266714E+03  0.65293085188E+03  0.47000000000E+01 0. -1.
         -5    1    3    3    0  501 -0.83305810953E+02 -0.19598238443E+02 -0.78462304196E+03  0.78929041364E+03  0.47000000000E+01 0. -1.
          5    1    4    4  502    0 -0.24772082104E+02  0.75674334025E+02 -0.63935664943E+02  0.10222582909E+03  0.47000000000E+01 0. -1.
         -5    1    4    4    0  502  0.68182656799E+02 -0.80604294415E+01 -0.52349126240E+02  0.86465983075E+02  0.47000000000E+01 0. -1.
<mgrwt>
<rscale>  0 0.50477938E+03</rscale>
<asrwt>0</asrwt>
<pdfrwt beam="1">  1       21 0.61601979E-02 0.50477938E+03</pdfrwt>
<pdfrwt beam="2">  1       21 0.24474952E+00 0.50477938E+03</pdfrwt>
<totfact> 0.11351305E+04</totfact>
</mgrwt>
</event>
<event>
 8    1  0.9529436E-006  0.3055582E+03  0.7546771E-02  0.1082495E+00
         21   -1    0    0  504  503  0.00000000000E+00  0.00000000000E+00  0.59048074152E+03  0.59048074152E+03  0.00000000000E+00 0. -1.
         21   -1    0    0  503  504 -0.00000000000E+00 -0.00000000000E+00 -0.39529581677E+02  0.39529581677E+02  0.00000000000E+00 0. -1.
         25    2    1    2    0    0 -0.42173636310E+02  0.57020161428E+02  0.16862961709E+03  0.22156766465E+03  0.12500547129E+03 0.  0.
         25    2    1    2    0    0  0.42173636310E+02 -0.57020161428E+02  0.38232154275E+03  0.40844265854E+03  0.12500291539E+03 0.  0.
          5    1    3    3  501    0 -0.29438748392E+02  0.42094736211E+02 -0.15436245470E+00  0.51582172805E+02  0.47000000000E+01 0. -1.
         -5    1    3    3    0  501 -0.12734887917E+02  0.14925425218E+02  0.16878397955E+03  0.16998549185E+03  0.47000000000E+01 0. -1.
          5    1    4    4  502    0 -0.42716939375E+02 -0.36195900827E+02  0.14924973133E+03  0.15947555439E+03  0.47000000000E+01 0.  1.
         -5    1    4    4    0  502  0.84890575685E+02 -0.20824260601E+02  0.23307181142E+03  0.24896710415E+03  0.47000000000E+01 0.  1.
<mgrwt>
<rscale>  0 0.30555822E+03</rscale>
<asrwt>0</asrwt>
<pdfrwt beam="1">  1       21 0.90843185E-01 0.30555822E+03</pdfrwt>
<pdfrwt beam="2">  1       21 0.60814745E-02 0.30555822E+03</pdfrwt>
<totfact> 0.19163640E+05</totfact>
</mgrwt>
</event>
<event>
 8    1  0.9529436E-006  0.3089748E+03  0.7546771E-02  0.1080838E+00
         21   -1    0    0  504  503  0.00000000000E+00  0.00000000000E+00  0.27098522909E+03  0.27098522909E+03  0.00000000000E+00 0. -1.
         21   -1    0    0  503  504 -0.00000000000E+00 -0.00000000000E+00 -0.88072550323E+02  0.88072550323E+02  0.00000000000E+00 0. -1.
         25    2    1    2    0    0  0.28484120985E+02 -0.61089644645E+02  0.20789918971E+02  0.14352913635E+03  0.12500040967E+03 0.  0.
         25    2    1    2    0    0 -0.28484120985E+02  0.61089644645E+02  0.16212275979E+03  0.21552864306E+03  0.12500206761E+03 0.  0.
          5    1    3    3  501    0  0.19889909081E+02  0.17260046720E+02 -0.37016617828E+02  0.45670972088E+02  0.47000000000E+01 0. -1.
         -5    1    3    3    0  501  0.85942119039E+01 -0.78349691365E+02  0.57806536799E+02  0.97858164258E+02  0.47000000000E+01 0. -1.
          5    1    4    4  502    0 -0.27285066990E+02  0.99501283685E+02  0.11946802335E+03  0.15792301586E+03  0.47000000000E+01 0. -1.
         -5    1    4    4    0  502 -0.11990539950E+01 -0.38411639040E+02  0.42654736440E+02  0.57605627199E+02  0.47000000000E+01 0. -1.
<mgrwt>
<rscale>  0 0.30897482E+03</rscale>
<asrwt>0</asrwt>
<pdfrwt beam="1">  1       21 0.41690035E-01 0.30897482E+03</pdfrwt>
<pdfrwt beam="2">  1       21 0.13549623E-01 0.30897482E+03</pdfrwt>
<totfact> 0.25396691E+05</totfact>
</mgrwt>
</event>
<event>
 8    1  0.9529436E-006  0.3093735E+03  0.7546771E-02  0.1080647E+00
         21   -1    0    0  504  503  0.00000000000E+00  0.00000000000E+00  0.10687293316E+04  0.10687293316E+04  0.00000000000E+00 0. -1.
         21   -1    0    0  503  504 -0.00000000000E+00 -0.00000000000E+00 -0.22389190488E+02  0.22389190488E+02  0.00000000000E+00 0. -1.
         25    2    1    2    0    0  0.71320670621E+02 -0.54214903038E+02  0.58214109849E+03  0.60210729263E+03  0.12497615578E+03 0.  0.
         25    2    1    2    0    0 -0.71320670621E+02  0.54214903038E+02  0.46419904262E+03  0.48901122946E+03  0.12500135039E+03 0.  0.
          5    1    3    3  501    0  0.75828612204E+02 -0.53110445079E+02  0.20585591312E+03  0.22576413527E+03  0.47000000000E+01 0. -1.
         -5    1    3    3    0  501 -0.45079415826E+01 -0.11044579588E+01  0.37628518537E+03  0.37634315736E+03  0.47000000000E+01 0. -1.
          5    1    4    4  502    0 -0.28817218594E+02  0.91957912994E+02  0.27750233046E+03  0.29379639763E+03  0.47000000000E+01 0.  1.
         -5    1    4    4    0  502 -0.42503452027E+02 -0.37743009956E+02  0.18669671216E+03  0.19521483183E+03  0.47000000000E+01 0.  1.
<mgrwt>
<rscale>  0 0.30937346E+03</rscale>
<asrwt>0</asrwt>
<pdfrwt beam="1">  1       21 0.16441986E+00 0.30937346E+03</pdfrwt>
<pdfrwt beam="2">  1       21 0.34444917E-02 0.30937346E+03</pdfrwt>
<totfact> 0.11210607E+05</totfact>
</mgrwt>
</event>
<event>
 8    1  0.9529436E-006  0.3629536E+03  0.7546771E-02  0.1057420E+00
         21   -1    0    0  504  503  0.00000000000E+00  0.00000000000E+00  0.21566964315E+03  0.21566964315E+03  0.00000000000E+00 0. -1.
         21   -1    0    0  503  504 -0.00000000000E+00 -0.00000000000E+00 -0.15270500252E+03  0.15270500252E+03  0.00000000000E+00 0. -1.
         25    2    1    2    0    0  0.12443391644E+03  0.13965315405E+02  0.72442230167E+02  0.19118409929E+03  0.12499861404E+03 0.  0.
         25    2    1    2    0    0 -0.12443391644E+03 -0.13965315405E+02 -0.94775895415E+01  0.17719054639E+03  0.12501134120E+03 0.  0.
          5    1    3    3  501    0  0.10230373509E+03 -0.41235296700E+02  0.20936365113E+02  0.11236914741E+03  0.47000000000E+01 0. -1.
         -5    1    3    3    0  501  0.22130181357E+02  0.55200612105E+02  0.51505865054E+02  0.78814951873E+02  0.47000000000E+01 0. -1.
          5    1    4    4  502    0  0.46572755251E+01  0.10764649480E+02 -0.40190124023E+02  0.42129609097E+02  0.47000000000E+01 0. -1.
         -5    1    4    4    0  502 -0.12909119197E+03 -0.24729964886E+02  0.30712534481E+02  0.13506093729E+03  0.47000000000E+01 0. -1.
<mgrwt>
<rscale>  0 0.36295362E+03</rscale>
<asrwt>0</asrwt>
<pdfrwt beam="1">  1       21 0.33179945E-01 0.36295362E+03</pdfrwt>
<pdfrwt beam="2">  1       21 0.23493077E-01 0.36295362E+03</pdfrwt>
<totfact> 0.14236363E+05</totfact>
</mgrwt>
</event>
<event>
 8    1  0.9529436E-006  0.3484025E+03  0.7546771E-02  0.1063273E+00
         21   -1    0    0  504  503  0.00000000000E+00  0.00000000000E+00  0.83963270026E+03  0.83963270026E+03  0.00000000000E+00 0. -1.
         21   -1    0    0  503  504 -0.00000000000E+00 -0.00000000000E+00 -0.36142076240E+02  0.36142076240E+02  0.00000000000E+00 0. -1.
         25    2    1    2    0    0 -0.74746445846E+02 -0.73283244664E+02  0.55598391153E+03  0.57939281994E+03  0.12498185793E+03 0.  0.
         25    2    1    2    0    0  0.74746445846E+02  0.73283244664E+02  0.24750671249E+03  0.29638195656E+03  0.12500090531E+03 0.  0.
          5    1    3    3  501    0 -0.80940902331E+02 -0.92725678361E+01  0.17628050106E+03  0.19425322452E+03  0.47000000000E+01 0. -1.
         -5    1    3    3    0  501  0.61944564852E+01 -0.64010676828E+02  0.37970341047E+03  0.38513959542E+03  0.47000000000E+01 0. -1.
          5    1    4    4  502    0 -0.30122653415E+02  0.21508250201E+02  0.24832716348E+02  0.44818889731E+02  0.47000000000E+01 0.  1.
         -5    1    4    4    0  502  0.10486909926E+03  0.51774994463E+02  0.22267399615E+03  0.25156306683E+03  0.47000000000E+01 0.  1.
<mgrwt>
<rscale>  0 0.34840246E+03</rscale>
<asrwt>0</asrwt>
<pdfrwt beam="1">  1       21 0.12917425E+00 0.34840246E+03</pdfrwt>
<pdfrwt beam="2">  1       21 0.55603200E-02 0.34840246E+03</pdfrwt>
<totfact> 0.93234150E+04</totfact>
</mgrwt>
</event>
<event>
 8    1  0.9529436E-006  0.3479428E+03  0.7546771E-02  0.1063463E+00
         21   -1    0    0  504  503  0.00000000000E+00  0.00000000000E+00  0.24873909314E+03  0.24873909314E+03  0.00000000000E+00 0.  1.
         21   -1    0    0  503  504 -0.00000000000E+00 -0.00000000000E+00 -0.12167786683E+03  0.12167786683E+03  0.00000000000E+00 0.  1.
         25    2    1    2    0    0  0.11342264798E+03  0.40630868484E+02  0.51610812566E+02  0.18112220196E+03  0.12500404603E+03 0.  0.
         25    2    1    2    0    0 -0.11342264798E+03 -0.40630868484E+02  0.75450413750E+02  0.18929475801E+03  0.12499670366E+03 0.  0.
          5    1    3    3  501    0 -0.12637856584E+02  0.42553096409E+02 -0.44898881126E+00  0.44640486377E+02  0.47000000000E+01 0. -1.
         -5    1    3    3    0  501  0.12606050456E+03 -0.19222279257E+01  0.52059801377E+02  0.13648171559E+03  0.47000000000E+01 0. -1.
          5    1    4    4  502    0  0.42008808734E+01  0.17667561829E+02  0.52749027187E+02  0.55985176701E+02  0.47000000000E+01 0. -1.
         -5    1    4    4    0  502 -0.11762352885E+03 -0.58298430312E+02  0.22701386563E+02  0.13330958130E+03  0.47000000000E+01 0. -1.
<mgrwt>
<rscale>  0 0.34794277E+03</rscale>
<asrwt>0</asrwt>
<pdfrwt beam="1">  1       21 0.38267553E-01 0.34794277E+03</pdfrwt>
<pdfrwt beam="2">  1       21 0.18719672E-01 0.34794277E+03</pdfrwt>
<totfact> 0.16497322E+05</totfact>
</mgrwt>
</event>
<event>
 8    1  0.9529436E-006  0.3587410E+03  0.7546771E-02  0.1059083E+00
         21   -1    0    0  504  503  0.00000000000E+00  0.00000000000E+00  0.89658642152E+03  0.89658642152E+03  0.00000000000E+00 0.  1.
         21   -1    0    0  503  504 -0.00000000000E+00 -0.00000000000E+00 -0.35884755339E+02  0.35884755339E+02  0.00000000000E+00 0.  1.
         25    2    1    2    0    0 -0.78459933843E+02  0.59410747219E+02  0.64568410537E+03  0.66499608010E+03  0.12500489796E+03 0.  0.
         25    2    1    2    0    0  0.78459933843E+02 -0.59410747219E+02  0.21501756081E+03  0.26747509676E+03  0.12499911130E+03 0.  0.
          5    1    3    3  501    0 -0.97633543783E+02  0.79189238072E+02  0.58216418480E+03  0.59560093381E+03  0.47000000000E+01 0. -1.
         -5    1    3    3    0  501  0.19173609939E+02 -0.19778490852E+02  0.63519920578E+02  0.69395146291E+02  0.47000000000E+01 0. -1.
          5    1    4    4  502    0 -0.23910188220E+02 -0.45605679487E+02  0.10156675879E+03  0.11397136304E+03  0.47000000000E+01 0. -1.
         -5    1    4    4    0  502  0.10237012206E+03 -0.13805067732E+02  0.11345080201E+03  0.15350373371E+03  0.47000000000E+01 0. -1.
<mgrwt>
<rscale>  0 0.35874105E+03</rscale>
<asrwt>0</asrwt>
<pdfrwt beam="1">  1       21 0.13793636E+00 0.35874105E+03</pdfrwt>
<pdfrwt beam="2">  1       21 0.55207323E-02 0.35874105E+03</pdfrwt>
<totfact> 0.79390897E+04</totfact>
</mgrwt>
</event>
<event>
 8    1  0.9529436E-006  0.2691146E+03  0.7546771E-02  0.1101787E+00
         21   -1    0    0  504  503  0.00000000000E+00  0.00000000000E+00  0.40687508049E+03  0.40687508049E+03  0.00000000000E+00 0.  1.
         21   -1    0    0  503  504 -0.00000000000E+00 -0.00000000000E+00 -0.44499327609E+02  0.44499327609E+02  0.00000000000E+00 0.  1.
         25    2    1    2    0    0  0.28501778802E+02 -0.37010859138E+02  0.15219811325E+03  0.20241276499E+03  0.12499802663E+03 0.  0.
         25    2    1    2    0    0 -0.28501778802E+02  0.37010859138E+02  0.21017763963E+03  0.24896164311E+03  0.12500041781E+03 0.  0.
          5    1    3    3  501    0  0.41050788157E+01 -0.64757551749E+01  0.16167271472E+03  0.16192264746E+03  0.47000000000E+01 0. -1.
         -5    1    3    3    0  501  0.24396699986E+02 -0.30535103963E+02 -0.94746014618E+01  0.40490117524E+02  0.47000000000E+01 0. -1.
          5    1    4    4  502    0 -0.40614504075E+02  0.12386843732E+02  0.21628030415E+03  0.22045913862E+03  0.47000000000E+01 0.  1.
         -5    1    4    4    0  502  0.12112725273E+02  0.24624015406E+02 -0.61026645185E+01  0.28502504495E+02  0.47000000000E+01 0.  1.
<mgrwt>
<rscale>  0 0.26911460E+03</rscale>
<asrwt>0</asrwt>
<pdfrwt beam="1">  1       21 0.62596164E-01 0.26911460E+03</pdfrwt>
<pdfrwt beam="2">  1       21 0.68460507E-02 0.26911460E+03</pdfrwt>
<totfact> 0.36516494E+05</totfact>
</mgrwt>
</event>
<event>
 8    1  0.9529436E-006  0.3231747E+03  0.7546771E-02  0.1074197E+00
         21   -1    0    0  504  503  0.00000000000E+00  0.00000000000E+00  0.31946906625E+03  0.31946906625E+03  0.00000000000E+00 0. -1.
         21   -1    0    0  503  504 -0.00000000000E+00 -0.00000000000E+00 -0.81730813618E+02  0.81730813618E+02  0.00000000000E+00 0. -1.
         25    2    1    2    0    0 -0.87435511945E+02  0.37348763157E+02  0.16605596407E+03  0.22855967345E+03  0.12500016905E+03 0.  0.
         25    2    1    2    0    0  0.87435511945E+02 -0.37348763157E+02  0.71682288561E+02  0.17264020643E+03  0.12500556597E+03 0.  0.
          5    1    3    3  501    0 -0.87779939285E+02  0.76832520158E+02  0.11536378123E+03  0.16413240361E+03  0.47000000000E+01 0.  1.
         -5    1    3    3    0  501  0.34442734039E+00 -0.39483757001E+02  0.50692182843E+02  0.64427269836E+02  0.47000000000E+01 0.  1.
          5    1    4    4  502    0 -0.30703748413E+02 -0.16058769596E+02  0.28051313621E+02  0.44828232660E+02  0.47000000000E+01 0. -1.
         -5    1    4    4    0  502  0.11813926036E+03 -0.21289993561E+02  0.43630974940E+02  0.12781197377E+03  0.47000000000E+01 0. -1.
<mgrwt>
<rscale>  0 0.32317467E+03</rscale>
<asrwt>0</asrwt>
<pdfrwt beam="1">  1       21 0.49149087E-01 0.32317467E+03</pdfrwt>
<pdfrwt beam="2">  1       21 0.12573971E-01 0.32317467E+03</pdfrwt>
<totfact> 0.20602287E+05</totfact>
</mgrwt>
</event>
<event>
 8    1  0.9529436E-006  0.2729325E+03  0.7546771E-02  0.1099613E+00
         21   -1    0    0  504  503  0.00000000000E+00  0.00000000000E+00  0.10421174657E+03  0.10421174657E+03  0.00000000000E+00 0. -1.
         21   -1    0    0  503  504 -0.00000000000E+00 -0.00000000000E+00 -0.17870386350E+03  0.17870386350E+03  0.00000000000E+00 0. -1.
         25    2    1    2    0    0  0.30392231738E+01  0.10730721015E+02  0.18340567886E+02  0.12682351515E+03  0.12499376910E+03 0.  0.
         25    2    1    2    0    0 -0.30392231738E+01 -0.10730721015E+02 -0.92832684812E+02  0.15609209492E+03  0.12498979749E+03 0.  0.
          5    1    3    3  501    0 -0.43360408587E+02  0.30963027908E+02 -0.25903479603E+02  0.59429911540E+02  0.47000000000E+01 0. -1.
         -5    1    3    3    0  501  0.46399631761E+02 -0.20232306893E+02  0.44244047489E+02  0.67393603613E+02  0.47000000000E+01 0. -1.
          5    1    4    4  502    0  0.57800007734E+02 -0.20938585940E+02 -0.60088706101E+02  0.86093018742E+02  0.47000000000E+01 0. -1.
         -5    1    4    4    0  502 -0.60839230907E+02  0.10207864926E+02 -0.32743978711E+02  0.69999076177E+02  0.47000000000E+01 0. -1.
<mgrwt>
<rscale>  0 0.27293253E+03</rscale>
<asrwt>0</asrwt>
<pdfrwt beam="1">  1       21 0.16032576E-01 0.27293253E+03</pdfrwt>
<pdfrwt beam="2">  1       21 0.27492902E-01 0.27293253E+03</pdfrwt>
<totfact> 0.43134083E+05</totfact>
</mgrwt>
</event>
<event>
 8    1  0.9529436E-006  0.3559654E+03  0.7546771E-02  0.1060193E+00
         21   -1    0    0  504  503  0.00000000000E+00  0.00000000000E+00  0.32646370374E+03  0.32646370374E+03  0.00000000000E+00 0.  1.
         21   -1    0    0  503  504 -0.00000000000E+00 -0.00000000000E+00 -0.97033275812E+02  0.97033275812E+02  0.00000000000E+00 0.  1.
         25    2    1    2    0    0  0.12267870700E+03 -0.18026849915E+02  0.14568735671E+03  0.22852944064E+03  0.12500346741E+03 0.  0.
         25    2    1    2    0    0 -0.12267870700E+03  0.18026849915E+02  0.83743071213E+02  0.19496753891E+03  0.12499762711E+03 0.  0.
          5    1    3    3  501    0 -0.90154833880E+01  0.16031604922E+02 -0.10227586799E+02  0.21563506877E+02  0.47000000000E+01 0. -1.
         -5    1    3    3    0  501  0.13169419039E+03 -0.34058454837E+02  0.15591494351E+03  0.20696593377E+03  0.47000000000E+01 0. -1.
          5    1    4    4  502    0 -0.11840749474E+03 -0.29887049791E+02  0.36902672016E+02  0.12766153594E+03  0.47000000000E+01 0. -1.
         -5    1    4    4    0  502 -0.42712122625E+01  0.47913899706E+02  0.46840399197E+02  0.67306002973E+02  0.47000000000E+01 0. -1.
<mgrwt>
<rscale>  0 0.35596541E+03</rscale>
<asrwt>0</asrwt>
<pdfrwt beam="1">  1       21 0.50225185E-01 0.35596541E+03</pdfrwt>
<pdfrwt beam="2">  1       21 0.14928196E-01 0.35596541E+03</pdfrwt>
<totfact> 0.14275215E+05</totfact>
</mgrwt>
</event>
<event>
 8    1  0.9529436E-006  0.4098742E+03  0.7546771E-02  0.1040413E+00
         21   -1    0    0  504  503  0.00000000000E+00  0.00000000000E+00  0.18350203077E+03  0.18350203077E+03  0.00000000000E+00 0. -1.
         21   -1    0    0  503  504 -0.00000000000E+00 -0.00000000000E+00 -0.22887597258E+03  0.22887597258E+03  0.00000000000E+00 0. -1.
         25    2    1    2    0    0 -0.28010467722E+02  0.15392530931E+01 -0.18362689025E+03  0.22389536600E+03  0.12499337779E+03 0.  0.
         25    2    1    2    0    0  0.28010467722E+02 -0.15392530931E+01  0.13825294844E+03  0.18848263734E+03  0.12499948490E+03 0.  0.
          5    1    3    3  501    0 -0.74319432424E+02  0.16612593394E+02 -0.13404054082E+03  0.15423460338E+03  0.47000000000E+01 0.  1.
         -5    1    3    3    0  501  0.46308964703E+02 -0.15073340301E+02 -0.49586349428E+02  0.69660762623E+02  0.47000000000E+01 0.  1.
          5    1    4    4  502    0  0.10754019847E+02 -0.39405248121E+02 -0.29297316860E+01  0.41220090370E+02  0.47000000000E+01 0. -1.
         -5    1    4    4    0  502  0.17256447875E+02  0.37865995028E+02  0.14118268013E+03  0.14726254697E+03  0.47000000000E+01 0. -1.
<mgrwt>
<rscale>  0 0.40987416E+03</rscale>
<asrwt>0</asrwt>
<pdfrwt beam="1">  1       21 0.28231082E-01 0.40987416E+03</pdfrwt>
<pdfrwt beam="2">  1       21 0.35211688E-01 0.40987416E+03</pdfrwt>
<totfact> 0.87493898E+04</totfact>
</mgrwt>
</event>
<event>
 8    1  0.9529436E-006  0.2934025E+03  0.7546771E-02  0.1088586E+00
         21   -1    0    0  504  503  0.00000000000E+00  0.00000000000E+00  0.97823516639E+02  0.97823516639E+02  0.00000000000E+00 0.  1.
         21   -1    0    0  503  504 -0.00000000000E+00 -0.00000000000E+00 -0.22000087557E+03  0.22000087557E+03  0.00000000000E+00 0.  1.
         25    2    1    2    0    0 -0.21647985643E+02 -0.72530791389E+02 -0.75050612986E+02  0.16428411615E+03  0.12500930096E+03 0.  0.
         25    2    1    2    0    0  0.21647985643E+02  0.72530791389E+02 -0.47126745946E+02  0.15354027606E+03  0.12499734080E+03 0.  0.
          5    1    3    3  501    0  0.33420461661E+02  0.14295710333E+02 -0.42964486900E+02  0.56474168662E+02  0.47000000000E+01 0. -1.
         -5    1    3    3    0  501 -0.55068447304E+02 -0.86826501722E+02 -0.32086126087E+02  0.10780994749E+03  0.47000000000E+01 0. -1.
          5    1    4    4  502    0  0.71657425801E+02  0.51610623139E+02 -0.44663113341E+02  0.99072331084E+02  0.47000000000E+01 0. -1.
         -5    1    4    4    0  502 -0.50009440158E+02  0.20920168250E+02 -0.24636326052E+01  0.54467944978E+02  0.47000000000E+01 0. -1.
<mgrwt>
<rscale>  0 0.29340252E+03</rscale>
<asrwt>0</asrwt>
<pdfrwt beam="1">  1       21 0.15049772E-01 0.29340252E+03</pdfrwt>
<pdfrwt beam="2">  1       21 0.33846289E-01 0.29340252E+03</pdfrwt>
<totfact> 0.32050252E+05</totfact>
</mgrwt>
</event>
<event>
 8    1  0.9529436E-006  0.2633882E+03  0.7546771E-02  0.1105124E+00
         21   -1    0    0  504  503  0.00000000000E+00  0.00000000000E+00  0.13730742259E+03  0.13730742259E+03  0.00000000000E+00 0. -1.
         21   -1    0    0  503  504 -0.00000000000E+00 -0.00000000000E+00 -0.12631026928E+03  0.12631026928E+03  0.00000000000E+00 0. -1.
         25    2    1    2    0    0 -0.21442737933E+02  0.31484009052E+02 -0.10858195770E+02  0.13112730073E+03  0.12500173897E+03 0.  0.
         25    2    1    2    0    0  0.21442737933E+02 -0.31484009052E+02  0.21855349081E+02  0.13249039114E+03  0.12500005450E+03 0.  0.
          5    1    3    3  501    0  0.12972708340E+02  0.60414322496E+02 -0.43202478452E+02  0.75542873051E+02  0.47000000000E+01 0. -1.
         -5    1    3    3    0  501 -0.34415446273E+02 -0.28930313444E+02  0.32344282681E+02  0.55584427678E+02  0.47000000000E+01 0. -1.
          5    1    4    4  502    0 -0.44123866331E+02  0.15459169250E+02  0.21595441530E+02  0.51714162361E+02  0.47000000000E+01 0.  1.
         -5    1    4    4    0  502  0.65566604263E+02 -0.46943178302E+02  0.25990755142E+00  0.80776228779E+02  0.47000000000E+01 0.  1.
<mgrwt>
<rscale>  0 0.26338821E+03</rscale>
<asrwt>0</asrwt>
<pdfrwt beam="1">  1       21 0.21124219E-01 0.26338821E+03</pdfrwt>
<pdfrwt beam="2">  1       21 0.19432349E-01 0.26338821E+03</pdfrwt>
<totfact> 0.50069132E+05</totfact>
</mgrwt>
</event>
<event>
 8    1  0.9529436E-006  0.3477065E+03  0.7546771E-02  0.1063560E+00
         21   -1    0    0  504  503  0.00000000000E+00  0.00000000000E+00  0.14498949098E+03  0.14498949098E+03  0.00000000000E+00 0. -1.
         21   -1    0    0  503  504 -0.00000000000E+00 -0.00000000000E+00 -0.20846304748E+03  0.20846304748E+03  0.00000000000E+00 0. -1.
         25    2    1    2    0    0  0.11512401292E+03 -0.62859533189E+01 -0.68509106370E+02  0.18333395801E+03  0.12499916377E+03 0.  0.
         25    2    1    2    0    0 -0.11512401292E+03  0.62859533189E+01  0.50355498684E+01  0.17011858045E+03  0.12498769176E+03 0.  0.
          5    1    3    3  501    0 -0.11087298033E+02 -0.34979551267E+02 -0.31618582610E+02  0.48665408154E+02  0.47000000000E+01 0.  1.
         -5    1    3    3    0  501  0.12621131095E+03  0.28693597948E+02 -0.36890523760E+02  0.13466854985E+03  0.47000000000E+01 0.  1.
          5    1    4    4  502    0 -0.61769119674E+02  0.65295358207E+02 -0.27407727136E+01  0.90047264165E+02  0.47000000000E+01 0.  1.
         -5    1    4    4    0  502 -0.53354893248E+02 -0.59009404888E+02  0.77763225820E+01  0.80071316285E+02  0.47000000000E+01 0.  1.
<mgrwt>
<rscale>  0 0.34770649E+03</rscale>
<asrwt>0</asrwt>
<pdfrwt beam="1">  1       21 0.22306076E-01 0.34770649E+03</pdfrwt>
<pdfrwt beam="2">  1       21 0.32071238E-01 0.34770649E+03</pdfrwt>
<totfact> 0.16882356E+05</totfact>
</mgrwt>
</event>
<event>
 8    1  0.9529436E-006  0.3851572E+03  0.7546771E-02  0.1049044E+00
         21   -1    0    0  504  503  0.00000000000E+00  0.00000000000E+00  0.31355850736E+03  0.31355850736E+03  0.00000000000E+00 0.  1.
         21   -1    0    0  503  504 -0.00000000000E+00 -0.00000000000E+00 -0.11827624803E+03  0.11827624803E+03  0.00000000000E+00 0.  1.
         25    2    1    2    0    0  0.12629881301E+03 -0.58016010706E+02  0.45693485380E+02  0.19242247658E+03  0.12498506799E+03 0.  0.
         25    2    1    2    0    0 -0.12629881301E+03  0.58016010706E+02  0.14958877395E+03  0.23941227881E+03  0.12499676110E+03 0.  0.
          5    1    3    3  501    0 -0.43606279627E+01  0.12607068048E+02  0.41413467413E+02  0.43762067183E+02  0.47000000000E+01 0.  1.
         -5    1    3    3    0  501  0.13065944097E+03 -0.70623078754E+02  0.42800179672E+01  0.14866040940E+03  0.47000000000E+01 0.  1.
          5    1    4    4  502    0 -0.36596919223E+02  0.75718041758E+02  0.31356158081E+02  0.89876887985E+02  0.47000000000E+01 0.  1.
         -5    1    4    4    0  502 -0.89701893789E+02 -0.17702031052E+02  0.11823261587E+03  0.14953539082E+03  0.47000000000E+01 0.  1.
<mgrwt>
<rscale>  0 0.38515723E+03</rscale>
<asrwt>0</asrwt>
<pdfrwt beam="1">  1       21 0.48239770E-01 0.38515723E+03</pdfrwt>
<pdfrwt beam="2">  1       21 0.18196346E-01 0.38515723E+03</pdfrwt>
<totfact> 0.10685614E+05</totfact>
</mgrwt>
</event>
<event>
 8    1  0.9529436E-006  0.3315417E+03  0.7546771E-02  0.1070457E+00
         21   -1    0    0  504  503  0.00000000000E+00  0.00000000000E+00  0.13327668089E+03  0.13327668089E+03  0.00000000000E+00 0.  1.
         21   -1    0    0  503  504 -0.00000000000E+00 -0.00000000000E+00 -0.20618740017E+03  0.20618740017E+03  0.00000000000E+00 0.  1.
         25    2    1    2    0    0 -0.81707658403E+02 -0.16621806901E+02  0.35229192244E+02  0.15433701817E+03  0.12500557302E+03 0.  0.
         25    2    1    2    0    0  0.81707658403E+02  0.16621806901E+02 -0.10813991152E+03  0.18512706288E+03  0.12500145215E+03 0.  0.
          5    1    3    3  501    0 -0.18035134110E+02 -0.66258115573E+02  0.22857862715E+02  0.72525690824E+02  0.47000000000E+01 0. -1.
         -5    1    3    3    0  501 -0.63672524294E+02  0.49636308672E+02  0.12371329529E+02  0.81811327350E+02  0.47000000000E+01 0. -1.
          5    1    4    4  502    0  0.37532113386E+02  0.63854506727E+02 -0.92190583792E+02  0.11835223405E+03  0.47000000000E+01 0.  1.
         -5    1    4    4    0  502  0.44175545017E+02 -0.47232699826E+02 -0.15949327733E+02  0.66774828832E+02  0.47000000000E+01 0.  1.
<mgrwt>
<rscale>  0 0.33154169E+03</rscale>
<asrwt>0</asrwt>
<pdfrwt beam="1">  1       21 0.20504105E-01 0.33154169E+03</pdfrwt>
<pdfrwt beam="2">  1       21 0.31721139E-01 0.33154169E+03</pdfrwt>
<totfact> 0.20323841E+05</totfact>
</mgrwt>
</event>
<event>
 8    1  0.9529436E-006  0.2676246E+03  0.7546771E-02  0.1102647E+00
         21   -1    0    0  504  503  0.00000000000E+00  0.00000000000E+00  0.38492353557E+03  0.38492353557E+03  0.00000000000E+00 0.  1.
         21   -1    0    0  503  504 -0.00000000000E+00 -0.00000000000E+00 -0.46517636595E+02  0.46517636595E+02  0.00000000000E+00 0.  1.
         25    2    1    2    0    0  0.54348220518E+01  0.45247815005E+02  0.19216438209E+03  0.23373447599E+03  0.12501101338E+03 0.  0.
         25    2    1    2    0    0 -0.54348220518E+01 -0.45247815005E+02  0.14624151688E+03  0.19770669618E+03  0.12499781758E+03 0.  0.
          5    1    3    3  501    0 -0.14101075936E+02  0.28355728769E+02  0.20287316256E+03  0.20538378170E+03  0.47000000000E+01 0. -1.
         -5    1    3    3    0  501  0.19535897988E+02  0.16892086236E+02 -0.10708780469E+02  0.28350694290E+02  0.47000000000E+01 0. -1.
          5    1    4    4  502    0  0.40515266175E+02 -0.67645616755E+02  0.68550175849E+02  0.10458791932E+03  0.47000000000E+01 0. -1.
         -5    1    4    4    0  502 -0.45950088227E+02  0.22397801750E+02  0.77691341034E+02  0.93118776854E+02  0.47000000000E+01 0. -1.
<mgrwt>
<rscale>  0 0.26762461E+03</rscale>
<asrwt>0</asrwt>
<pdfrwt beam="1">  1       21 0.59219003E-01 0.26762461E+03</pdfrwt>
<pdfrwt beam="2">  1       21 0.71565597E-02 0.26762461E+03</pdfrwt>
<totfact> 0.38140612E+05</totfact>
</mgrwt>
</event>
<event>
 8    1  0.9529436E-006  0.2886756E+03  0.7546771E-02  0.1091043E+00
         21   -1    0    0  504  503  0.00000000000E+00  0.00000000000E+00  0.69065410965E+02  0.69065410965E+02  0.00000000000E+00 0.  1.
         21   -1    0    0  503  504 -0.00000000000E+00 -0.00000000000E+00 -0.30164732101E+03  0.30164732101E+03  0.00000000000E+00 0.  1.
         25    2    1    2    0    0  0.63742029214E+02  0.21168641532E+02 -0.15021086915E+03  0.20663782986E+03  0.12499891937E+03 0.  0.
         25    2    1    2    0    0 -0.63742029214E+02 -0.21168641532E+02 -0.82371040895E+02  0.16407490212E+03  0.12499770979E+03 0.  0.
          5    1    3    3  501    0 -0.30110905278E+02 -0.16205104458E+02 -0.68188805599E+02  0.76426927429E+02  0.47000000000E+01 0. -1.
         -5    1    3    3    0  501  0.93852934492E+02  0.37373745990E+02 -0.82022063548E+02  0.13021090243E+03  0.47000000000E+01 0. -1.
          5    1    4    4  502    0 -0.15832319773E+02  0.29438950542E+02 -0.87752941769E+02  0.94021183505E+02  0.47000000000E+01 0.  1.
         -5    1    4    4    0  502 -0.47909709441E+02 -0.50607592075E+02  0.53819008742E+01  0.70053718612E+02  0.47000000000E+01 0.  1.
<mgrwt>
<rscale>  0 0.28867557E+03</rscale>
<asrwt>0</asrwt>
<pdfrwt beam="1">  1       21 0.10625448E-01 0.28867557E+03</pdfrwt>
<pdfrwt beam="2">  1       21 0.46407281E-01 0.28867557E+03</pdfrwt>
<totfact> 0.31697457E+05</totfact>
</mgrwt>
</event>
<event>
 8    1  0.9529436E-006  0.2856376E+03  0.7546771E-02  0.1092649E+00
         21   -1    0    0  504  503  0.00000000000E+00  0.00000000000E+00  0.69089820438E+02  0.69089820438E+02  0.00000000000E+00 0.  1.
         21   -1    0    0  503  504 -0.00000000000E+00 -0.00000000000E+00 -0.29522735744E+03  0.29522735744E+03  0.00000000000E+00 0.  1.
         25    2    1    2    0    0 -0.34685532466E+02 -0.24567786112E+02 -0.18254650567E+03  0.22528621523E+03  0.12499595899E+03 0.  0.
         25    2    1    2    0    0  0.34685532466E+02  0.24567786112E+02 -0.43591031333E+02  0.13903096265E+03  0.12499107282E+03 0.  0.
          5    1    3    3  501    0 -0.97257095167E+01  0.31177146193E+02 -0.27541581838E+00  0.32996510788E+02  0.47000000000E+01 0. -1.
         -5    1    3    3    0  501 -0.24959822950E+02 -0.55744932305E+02 -0.18227108985E+03  0.19228970445E+03  0.47000000000E+01 0. -1.
          5    1    4    4  502    0  0.80640086594E+02  0.16455586799E+02 -0.40972524632E+02  0.92056763344E+02  0.47000000000E+01 0. -1.
         -5    1    4    4    0  502 -0.45954554128E+02  0.81121993132E+01 -0.26185067007E+01  0.46974199302E+02  0.47000000000E+01 0. -1.
<mgrwt>
<rscale>  0 0.28563757E+03</rscale>
<asrwt>0</asrwt>
<pdfrwt beam="1">  1       21 0.10629203E-01 0.28563757E+03</pdfrwt>
<pdfrwt beam="2">  1       21 0.45419593E-01 0.28563757E+03</pdfrwt>
<totfact> 0.33146776E+05</totfact>
</mgrwt>
</event>
<event>
 8    1  0.9529436E-006  0.2866672E+03  0.7546771E-02  0.1092102E+00
         21   -1    0    0  504  503  0.00000000000E+00  0.00000000000E+00  0.15770325432E+03  0.15770325432E+03  0.00000000000E+00 0.  1.
         21   -1    0    0  503  504 -0.00000000000E+00 -0.00000000000E+00 -0.13027330482E+03  0.13027330482E+03  0.00000000000E+00 0.  1.
         25    2    1    2    0    0 -0.28187970135E+02  0.64912078647E+01 -0.50470031806E+02  0.13787926292E+03  0.12500707817E+03 0.  0.
         25    2    1    2    0    0  0.28187970135E+02 -0.64912078647E+01  0.77899981300E+02  0.15009729622E+03  0.12499637517E+03 0.  0.
          5    1    3    3  501    0  0.16796987372E+00  0.29171116051E+02  0.34459970120E+02  0.45393411044E+02  0.47000000000E+01 0.  1.
         -5    1    3    3    0  501 -0.28355940009E+02 -0.22679908187E+02 -0.84930001926E+02  0.92485851871E+02  0.47000000000E+01 0.  1.
          5    1    4    4  502    0 -0.21886167482E+02  0.28384241728E+02 -0.14762359042E+02  0.39047237419E+02  0.47000000000E+01 0. -1.
         -5    1    4    4    0  502  0.50074137618E+02 -0.34875449593E+02  0.92662340342E+02  0.11105005880E+03  0.47000000000E+01 0. -1.
<mgrwt>
<rscale>  0 0.28666722E+03</rscale>
<asrwt>0</asrwt>
<pdfrwt beam="1">  1       21 0.24262039E-01 0.28666722E+03</pdfrwt>
<pdfrwt beam="2">  1       21 0.20042047E-01 0.28666722E+03</pdfrwt>
<totfact> 0.36132177E+05</totfact>
</mgrwt>
</event>
<event>
 8    1  0.9529436E-006  0.3346259E+03  0.7546771E-02  0.1069108E+00
         21   -1    0    0  504  503  0.00000000000E+00  0.00000000000E+00  0.27961770746E+03  0.27961770746E+03  0.00000000000E+00 0. -1.
         21   -1    0    0  503  504 -0.00000000000E+00 -0.00000000000E+00 -0.10011392229E+03  0.10011392229E+03  0.00000000000E+00 0. -1.
         25    2    1    2    0    0  0.46854690658E+02 -0.14225539316E+02  0.20310976492E+03  0.24346720018E+03  0.12499989180E+03 0.  0.
         25    2    1    2    0    0 -0.46854690658E+02  0.14225539316E+02 -0.23605979749E+02  0.13626442957E+03  0.12495208874E+03 0.  0.
          5    1    3    3  501    0  0.65852797626E+01 -0.32405220947E+02  0.19556793343E+03  0.19839952329E+03  0.47000000000E+01 0. -1.
         -5    1    3    3    0  501  0.40269410896E+02  0.18179681630E+02  0.75418314875E+01  0.45067676890E+02  0.47000000000E+01 0. -1.
          5    1    4    4  502    0 -0.56364359760E+02 -0.21845537755E+02 -0.59019389105E+02  0.84614105569E+02  0.47000000000E+01 0.  1.
         -5    1    4    4    0  502  0.95096691016E+01  0.36071077071E+02  0.35413409356E+02  0.51650324004E+02  0.47000000000E+01 0.  1.
<mgrwt>
<rscale>  0 0.33462591E+03</rscale>
<asrwt>0</asrwt>
<pdfrwt beam="1">  1       21 0.43018108E-01 0.33462591E+03</pdfrwt>
<pdfrwt beam="2">  1       21 0.15402142E-01 0.33462591E+03</pdfrwt>
<totfact> 0.18716055E+05</totfact>
</mgrwt>
</event>
<event>
 8    1  0.9529436E-006  0.3354568E+03  0.7546771E-02  0.1068748E+00
         21   -1    0    0  504  503  0.00000000000E+00  0.00000000000E+00  0.24851753821E+02  0.24851753821E+02  0.00000000000E+00 0.  1.
         21   -1    0    0  503  504 -0.00000000000E+00 -0.00000000000E+00 -0.11320250507E+04  0.11320250507E+04  0.00000000000E+00 0.  1.
         25    2    1    2    0    0 -0.37556746816E+02  0.33556323757E+02 -0.20922158623E+03  0.24886839555E+03  0.12500108024E+03 0.  0.
         25    2    1    2    0    0  0.37556746816E+02 -0.33556323757E+02 -0.89795171068E+03  0.90800840901E+03  0.12500184005E+03 0.  0.
          5    1    3    3  501    0 -0.68318889554E+02  0.61387376013E+02 -0.12890473116E+03  0.15834898269E+03  0.47000000000E+01 0. -1.
         -5    1    3    3    0  501  0.30762142738E+02 -0.27831052257E+02 -0.80316855066E+02  0.90519412852E+02  0.47000000000E+01 0. -1.
          5    1    4    4  502    0  0.46010306215E+01  0.46230978988E+02 -0.38510381537E+03  0.38792462091E+03  0.47000000000E+01 0.  1.
         -5    1    4    4    0  502  0.32955716195E+02 -0.79787302745E+02 -0.51284789531E+03  0.52008378809E+03  0.47000000000E+01 0.  1.
<mgrwt>
<rscale>  0 0.33545675E+03</rscale>
<asrwt>0</asrwt>
<pdfrwt beam="1">  1       21 0.38233475E-02 0.33545675E+03</pdfrwt>
<pdfrwt beam="2">  1       21 0.17415766E+00 0.33545675E+03</pdfrwt>
<totfact> 0.79292487E+04</totfact>
</mgrwt>
</event>
<event>
 8    1  0.9529436E-006  0.3365911E+03  0.7546771E-02  0.1068257E+00
         21   -1    0    0  504  503  0.00000000000E+00  0.00000000000E+00  0.13363240072E+04  0.13363240072E+04  0.00000000000E+00 0.  1.
         21   -1    0    0  503  504 -0.00000000000E+00 -0.00000000000E+00 -0.21195003852E+02  0.21195003852E+02  0.00000000000E+00 0.  1.
         25    2    1    2    0    0 -0.81246592318E+02 -0.48640848275E+01  0.97188831288E+03  0.98326808604E+03  0.12499827293E+03 0.  0.
         25    2    1    2    0    0  0.81246592318E+02  0.48640848275E+01  0.34324069049E+03  0.37425092503E+03  0.12499966077E+03 0.  0.
          5    1    3    3  501    0 -0.37341229712E+02 -0.54897244685E+02  0.70612038694E+03  0.70925042528E+03  0.47000000000E+01 0.  1.
         -5    1    3    3    0  501 -0.43905362606E+02  0.50033159858E+02  0.26576792594E+03  0.27401766076E+03  0.47000000000E+01 0.  1.
          5    1    4    4  502    0  0.45466340590E+02  0.47148112856E+02  0.72317694541E+02  0.97683527866E+02  0.47000000000E+01 0.  1.
         -5    1    4    4    0  502  0.35780251728E+02 -0.42284028028E+02  0.27092299595E+03  0.27656739716E+03  0.47000000000E+01 0.  1.
<mgrwt>
<rscale>  0 0.33659110E+03</rscale>
<asrwt>0</asrwt>
<pdfrwt beam="1">  1       21 0.20558824E+00 0.33659110E+03</pdfrwt>
<pdfrwt beam="2">  1       21 0.32607709E-02 0.33659110E+03</pdfrwt>
<totfact> 0.63474846E+04</totfact>
</mgrwt>
</event>
<event>
 8    1  0.9529436E-006  0.5665184E+03  0.7546771E-02  0.9977413E-01
         21   -1    0    0  504  503  0.00000000000E+00  0.00000000000E+00  0.31129538860E+03  0.31129538860E+03  0.00000000000E+00 0.  1.
         21   -1    0    0  503  504 -0.00000000000E+00 -0.00000000000E+00 -0.25774799409E+03  0.25774799409E+03  0.00000000000E+00 0.  1.
         25    2    1    2    0    0 -0.20198756592E+03 -0.10002385691E+03 -0.91253396641E+02  0.27341491263E+03  0.12499913325E+03 0.  0.
         25    2    1    2    0    0  0.20198756592E+03  0.10002385691E+03  0.14480079115E+03  0.29562847005E+03  0.12500069780E+03 0.  0.
          5    1    3    3  501    0 -0.63182120387E+02 -0.97662632875E+02 -0.23067932990E+02  0.11867682895E+03  0.47000000000E+01 0. -1.
         -5    1    3    3    0  501 -0.13880544553E+03 -0.23612240343E+01 -0.68185463651E+02  0.15473808368E+03  0.47000000000E+01 0. -1.
          5    1    4    4  502    0  0.10546229812E+03 -0.84707865232E+01  0.94310182529E+02  0.14181167469E+03  0.47000000000E+01 0. -1.
         -5    1    4    4    0  502  0.96525267801E+02  0.10849464343E+03  0.50490608626E+02  0.15381679537E+03  0.47000000000E+01 0. -1.
<mgrwt>
<rscale>  0 0.56651836E+03</rscale>
<asrwt>0</asrwt>
<pdfrwt beam="1">  1       21 0.47891598E-01 0.56651836E+03</pdfrwt>
<pdfrwt beam="2">  1       21 0.39653538E-01 0.56651836E+03</pdfrwt>
<totfact> 0.22585900E+04</totfact>
</mgrwt>
</event>
<event>
 8    1  0.9529436E-006  0.4099865E+03  0.7546771E-02  0.1040376E+00
         21   -1    0    0  504  503  0.00000000000E+00  0.00000000000E+00  0.78272439581E+02  0.78272439581E+02  0.00000000000E+00 0. -1.
         21   -1    0    0  503  504 -0.00000000000E+00 -0.00000000000E+00 -0.53687140202E+03  0.53687140202E+03  0.00000000000E+00 0. -1.
         25    2    1    2    0    0 -0.81577423685E+02  0.14045081381E+03 -0.22327002392E+03  0.30307595626E+03  0.12499689807E+03 0.  0.
         25    2    1    2    0    0  0.81577423685E+02 -0.14045081381E+03 -0.23532893852E+03  0.31206788534E+03  0.12500139439E+03 0.  0.
          5    1    3    3  501    0 -0.28259599526E+02  0.13443459696E+03 -0.10450854853E+03  0.17267134256E+03  0.47000000000E+01 0.  1.
         -5    1    3    3    0  501 -0.53317824159E+02  0.60162168512E+01 -0.11876147538E+03  0.13040461370E+03  0.47000000000E+01 0.  1.
          5    1    4    4  502    0  0.30139544684E+02 -0.14905997136E+03 -0.16588697400E+03  0.22509519177E+03  0.47000000000E+01 0.  1.
         -5    1    4    4    0  502  0.51437879002E+02  0.86091575504E+01 -0.69441964520E+02  0.86972693567E+02  0.47000000000E+01 0.  1.
<mgrwt>
<rscale>  0 0.40998651E+03</rscale>
<asrwt>0</asrwt>
<pdfrwt beam="1">  1       21 0.12041914E-01 0.40998651E+03</pdfrwt>
<pdfrwt beam="2">  1       21 0.82595600E-01 0.40998651E+03</pdfrwt>
<totfact> 0.69556049E+04</totfact>
</mgrwt>
</event>
<event>
 8    1  0.9529436E-006  0.2649677E+03  0.7546771E-02  0.1104195E+00
         21   -1    0    0  504  503  0.00000000000E+00  0.00000000000E+00  0.17620126974E+04  0.17620126974E+04  0.00000000000E+00 0.  1.
         21   -1    0    0  503  504 -0.00000000000E+00 -0.00000000000E+00 -0.99613168443E+01  0.99613168443E+01  0.00000000000E+00 0.  1.
         25    2    1    2    0    0  0.26365431287E+02  0.73237192734E+01  0.64659115568E+03  0.65913327929E+03  0.12501113724E+03 0.  0.
         25    2    1    2    0    0 -0.26365431287E+02 -0.73237192734E+01  0.11054602249E+04  0.11128407349E+04  0.12499367887E+03 0.  0.
          5    1    3    3  501    0 -0.33230894675E+02  0.43968025698E+02  0.35151912424E+03  0.35584443842E+03  0.47000000000E+01 0.  1.
         -5    1    3    3    0  501  0.59596325962E+02 -0.36644306425E+02  0.29507203144E+03  0.30328884088E+03  0.47000000000E+01 0.  1.
          5    1    4    4  502    0 -0.66606695007E+01  0.49938561011E+02  0.78794522932E+03  0.78956823568E+03  0.47000000000E+01 0.  1.
         -5    1    4    4    0  502 -0.19704761786E+02 -0.57262280285E+02  0.31751499553E+03  0.32327249925E+03  0.47000000000E+01 0.  1.
<mgrwt>
<rscale>  0 0.26496767E+03</rscale>
<asrwt>0</asrwt>
<pdfrwt beam="1">  1       21 0.27107863E+00 0.26496767E+03</pdfrwt>
<pdfrwt beam="2">  1       21 0.15325117E-02 0.26496767E+03</pdfrwt>
<totfact> 0.90496943E+04</totfact>
</mgrwt>
</event>
<event>
 8    1  0.9529436E-006  0.3063900E+03  0.7546771E-02  0.1082089E+00
         21   -1    0    0  504  503  0.00000000000E+00  0.00000000000E+00  0.21191018842E+02  0.21191018842E+02  0.00000000000E+00 0. -1.
         21   -1    0    0  503  504 -0.00000000000E+00 -0.00000000000E+00 -0.11074840335E+04  0.11074840335E+04  0.00000000000E+00 0. -1.
         25    2    1    2    0    0 -0.24701507015E+02  0.43535896634E+02 -0.81229738434E+03  0.82338114686E+03  0.12499573455E+03 0.  0.
         25    2    1    2    0    0  0.24701507015E+02 -0.43535896634E+02 -0.27399563029E+03  0.30529390545E+03  0.12500089817E+03 0.  0.
          5    1    3    3  501    0 -0.23433019185E+02  0.21866624882E+02 -0.79384727739E+03  0.79450792664E+03  0.47000000000E+01 0. -1.
         -5    1    3    3    0  501 -0.12684878296E+01  0.21669271752E+02 -0.18450106956E+02  0.28873220228E+02  0.47000000000E+01 0. -1.
          5    1    4    4  502    0 -0.68716817089E+01  0.40282779794E+01  0.11129948997E+02  0.14471102158E+02  0.47000000000E+01 0.  1.
         -5    1    4    4    0  502  0.31573188723E+02 -0.47564174613E+02 -0.28512557929E+03  0.29082280330E+03  0.47000000000E+01 0.  1.
<mgrwt>
<rscale>  0 0.30639005E+03</rscale>
<asrwt>0</asrwt>
<pdfrwt beam="1">  1       21 0.32601567E-02 0.30639005E+03</pdfrwt>
<pdfrwt beam="2">  1       21 0.17038216E+00 0.30639005E+03</pdfrwt>
<totfact> 0.11143377E+05</totfact>
</mgrwt>
</event>
<event>
 8    1  0.9529436E-006  0.3208681E+03  0.7546771E-02  0.1075250E+00
         21   -1    0    0  504  503  0.00000000000E+00  0.00000000000E+00  0.10353248112E+04  0.10353248112E+04  0.00000000000E+00 0.  1.
         21   -1    0    0  503  504 -0.00000000000E+00 -0.00000000000E+00 -0.24860886098E+02  0.24860886098E+02  0.00000000000E+00 0.  1.
         25    2    1    2    0    0 -0.96950045623E+02 -0.17350658338E+02  0.57239847245E+03  0.59410961356E+03  0.12500345980E+03 0.  0.
         25    2    1    2    0    0  0.96950045623E+02  0.17350658338E+02  0.43806545263E+03  0.46607608372E+03  0.12500087335E+03 0.  0.
          5    1    3    3  501    0 -0.60786693548E+02  0.22200530357E+01  0.53456744680E+03  0.53803754137E+03  0.47000000000E+01 0. -1.
         -5    1    3    3    0  501 -0.36163352075E+02 -0.19570711373E+02  0.37831025651E+02  0.56072072182E+02  0.47000000000E+01 0. -1.
          5    1    4    4  502    0  0.93015984773E+02  0.13391693237E+02  0.14458982129E+03  0.17250975999E+03  0.47000000000E+01 0.  1.
         -5    1    4    4    0  502  0.39340608502E+01  0.39589651004E+01  0.29347563134E+03  0.29356632374E+03  0.47000000000E+01 0.  1.
<mgrwt>
<rscale>  0 0.32086815E+03</rscale>
<asrwt>0</asrwt>
<pdfrwt beam="1">  1       21 0.15928071E+00 0.32086815E+03</pdfrwt>
<pdfrwt beam="2">  1       21 0.38247525E-02 0.32086815E+03</pdfrwt>
<totfact> 0.10218521E+05</totfact>
</mgrwt>
</event>
<event>
 8    1  0.9529436E-006  0.2853150E+03  0.7546771E-02  0.1092821E+00
         21   -1    0    0  504  503  0.00000000000E+00  0.00000000000E+00  0.25094896236E+02  0.25094896236E+02  0.00000000000E+00 0. -1.
         21   -1    0    0  503  504 -0.00000000000E+00 -0.00000000000E+00 -0.81096846017E+03  0.81096846017E+03  0.00000000000E+00 0. -1.
         25    2    1    2    0    0 -0.39992703845E+02  0.36980644340E+02 -0.51587667547E+03  0.53359022040E+03  0.12499117807E+03 0.  0.
         25    2    1    2    0    0  0.39992703845E+02 -0.36980644340E+02 -0.26999688846E+03  0.30247313600E+03  0.12499877523E+03 0.  0.
          5    1    3    3  501    0 -0.56732481616E+02  0.18568778804E+02 -0.97303153354E+02  0.11425133552E+03  0.47000000000E+01 0. -1.
         -5    1    3    3    0  501  0.16739777771E+02  0.18411865536E+02 -0.41857352211E+03  0.41933888487E+03  0.47000000000E+01 0. -1.
          5    1    4    4  502    0  0.28138494691E+02  0.19240508064E+02 -0.22939414309E+03  0.23196063226E+03  0.47000000000E+01 0.  1.
         -5    1    4    4    0  502  0.11854209154E+02 -0.56221152405E+02 -0.40602745369E+02  0.70512503741E+02  0.47000000000E+01 0.  1.
<mgrwt>
<rscale>  0 0.28531505E+03</rscale>
<asrwt>0</asrwt>
<pdfrwt beam="1">  1       21 0.38607529E-02 0.28531505E+03</pdfrwt>
<pdfrwt beam="2">  1       21 0.12476439E+00 0.28531505E+03</pdfrwt>
<totfact> 0.19324806E+05</totfact>
</mgrwt>
</event>
<event>
 8    1  0.9529436E-006  0.2560574E+03  0.7546771E-02  0.1109535E+00
         21   -1    0    0  504  503  0.00000000000E+00  0.00000000000E+00  0.76551661402E+02  0.76551661402E+02  0.00000000000E+00 0.  1.
         21   -1    0    0  503  504 -0.00000000000E+00 -0.00000000000E+00 -0.21412135830E+03  0.21412135830E+03  0.00000000000E+00 0.  1.
         25    2    1    2    0    0 -0.50989081012E+01  0.31908527019E+01 -0.38122338012E+02  0.13082416325E+03  0.12500187450E+03 0.  0.
         25    2    1    2    0    0  0.50989081012E+01 -0.31908527019E+01 -0.99447358886E+02  0.15984885645E+03  0.12500279723E+03 0.  0.
          5    1    3    3  501    0 -0.13071667725E+02  0.24110382505E+02 -0.79123319655E+02  0.83873528332E+02  0.47000000000E+01 0. -1.
         -5    1    3    3    0  501  0.79727596241E+01 -0.20919529803E+02  0.41000981643E+02  0.46950634915E+02  0.47000000000E+01 0. -1.
          5    1    4    4  502    0 -0.26930391130E+02 -0.44639957014E+02 -0.60926446348E+01  0.52698975771E+02  0.47000000000E+01 0. -1.
         -5    1    4    4    0  502  0.32029299232E+02  0.41449104313E+02 -0.93354714251E+02  0.10714988068E+03  0.47000000000E+01 0. -1.
<mgrwt>
<rscale>  0 0.25605738E+03</rscale>
<asrwt>0</asrwt>
<pdfrwt beam="1">  1       21 0.11777179E-01 0.25605738E+03</pdfrwt>
<pdfrwt beam="2">  1       21 0.32941746E-01 0.25605738E+03</pdfrwt>
<totfact> 0.53190810E+05</totfact>
</mgrwt>
</event>
<event>
 8    1  0.9529436E-006  0.3413723E+03  0.7546771E-02  0.1066213E+00
         21   -1    0    0  504  503  0.00000000000E+00  0.00000000000E+00  0.19643190237E+03  0.19643190237E+03  0.00000000000E+00 0. -1.
         21   -1    0    0  503  504 -0.00000000000E+00 -0.00000000000E+00 -0.14831483249E+03  0.14831483249E+03  0.00000000000E+00 0. -1.
         25    2    1    2    0    0 -0.86977468035E+02 -0.59017868347E+00 -0.53797246410E+02  0.16150869234E+03  0.12500194288E+03 0.  0.
         25    2    1    2    0    0  0.86977468035E+02  0.59017868347E+00  0.10191431629E+03  0.18323804251E+03  0.12499689636E+03 0.  0.
          5    1    3    3  501    0  0.41422838774E+01 -0.45607516387E+02  0.80058786411E+00  0.46042751956E+02  0.47000000000E+01 0.  1.
         -5    1    3    3    0  501 -0.91119751912E+02  0.45017337704E+02 -0.54597834274E+02  0.11546594039E+03  0.47000000000E+01 0.  1.
          5    1    4    4  502    0  0.29134566296E+02  0.65215157702E+01 -0.27765640965E+02  0.41041124977E+02  0.47000000000E+01 0. -1.
         -5    1    4    4    0  502  0.57842901739E+02 -0.59313370867E+01  0.12967995726E+03  0.14219691753E+03  0.47000000000E+01 0. -1.
<mgrwt>
<rscale>  0 0.34137232E+03</rscale>
<asrwt>0</asrwt>
<pdfrwt beam="1">  1       21 0.30220293E-01 0.34137232E+03</pdfrwt>
<pdfrwt beam="2">  1       21 0.22817667E-01 0.34137232E+03</pdfrwt>
<totfact> 0.18212075E+05</totfact>
</mgrwt>
</event>
<event>
 8    1  0.9529436E-006  0.3362702E+03  0.7546771E-02  0.1068396E+00
         21   -1    0    0  504  503  0.00000000000E+00  0.00000000000E+00  0.25761329500E+02  0.25761329500E+02  0.00000000000E+00 0. -1.
         21   -1    0    0  503  504 -0.00000000000E+00 -0.00000000000E+00 -0.10973587459E+04  0.10973587459E+04  0.00000000000E+00 0. -1.
         25    2    1    2    0    0  0.51746258977E+02  0.50069328363E+02 -0.82425670181E+03  0.83678477454E+03  0.12500014180E+03 0.  0.
         25    2    1    2    0    0 -0.51746258977E+02 -0.50069328363E+02 -0.24734071464E+03  0.28633530091E+03  0.12500344984E+03 0.  0.
          5    1    3    3  501    0  0.48350322966E+02  0.67183821430E+02 -0.27487227866E+03  0.28710325524E+03  0.47000000000E+01 0.  1.
         -5    1    3    3    0  501  0.33959360113E+01 -0.17114493066E+02 -0.54938442315E+03  0.54968151929E+03  0.47000000000E+01 0.  1.
          5    1    4    4  502    0  0.10563486258E+02  0.80285517269E+01 -0.17180575369E+03  0.17238141398E+03  0.47000000000E+01 0.  1.
         -5    1    4    4    0  502 -0.62309745235E+02 -0.58097880090E+02 -0.75534960946E+02  0.11395388693E+03  0.47000000000E+01 0.  1.
<mgrwt>
<rscale>  0 0.33627025E+03</rscale>
<asrwt>0</asrwt>
<pdfrwt beam="1">  1       21 0.39632816E-02 0.33627025E+03</pdfrwt>
<pdfrwt beam="2">  1       21 0.16882442E+00 0.33627025E+03</pdfrwt>
<totfact> 0.81439560E+04</totfact>
</mgrwt>
</event>
<event>
 8    1  0.9529436E-006  0.2697828E+03  0.7546771E-02  0.1101404E+00
         21   -1    0    0  504  503  0.00000000000E+00  0.00000000000E+00  0.74898061805E+02  0.74898061805E+02  0.00000000000E+00 0. -1.
         21   -1    0    0  503  504 -0.00000000000E+00 -0.00000000000E+00 -0.24293930574E+03  0.24293930574E+03  0.00000000000E+00 0. -1.
         25    2    1    2    0    0 -0.14444463285E+02  0.22671884870E+02 -0.33306117728E+02  0.13207162809E+03  0.12494382972E+03 0.  0.
         25    2    1    2    0    0  0.14444463285E+02 -0.22671884870E+02 -0.13473512621E+03  0.18576573946E+03  0.12503079156E+03 0.  0.
          5    1    3    3  501    0  0.30619583902E+02  0.29848378662E+02  0.31040005792E+02  0.53047682199E+02  0.47000000000E+01 0. -1.
         -5    1    3    3    0  501 -0.45064047187E+02 -0.71764937928E+01 -0.64346123521E+02  0.79023945891E+02  0.47000000000E+01 0. -1.
          5    1    4    4  502    0 -0.45421149750E+02 -0.30211634503E+02 -0.24446898828E+02  0.59963026660E+02  0.47000000000E+01 0. -1.
         -5    1    4    4    0  502  0.59865613035E+02  0.75397496331E+01 -0.11028822738E+03  0.12580271280E+03  0.47000000000E+01 0. -1.
<mgrwt>
<rscale>  0 0.26978275E+03</rscale>
<asrwt>0</asrwt>
<pdfrwt beam="1">  1       21 0.11522779E-01 0.26978275E+03</pdfrwt>
<pdfrwt beam="2">  1       21 0.37375278E-01 0.26978275E+03</pdfrwt>
<totfact> 0.42867999E+05</totfact>
</mgrwt>
</event>
<event>
 8    1  0.9529436E-006  0.3065315E+03  0.7546771E-02  0.1082020E+00
         21   -1    0    0  504  503  0.00000000000E+00  0.00000000000E+00  0.11224771007E+03  0.11224771007E+03  0.00000000000E+00 0. -1.
         21   -1    0    0  503  504 -0.00000000000E+00 -0.00000000000E+00 -0.20927279990E+03  0.20927279990E+03  0.00000000000E+00 0. -1.
         25    2    1    2    0    0  0.80110356919E+02  0.31165407054E+02 -0.25611325938E+02  0.15385089429E+03  0.12500082309E+03 0.  0.
         25    2    1    2    0    0 -0.80110356919E+02 -0.31165407054E+02 -0.71413763896E+02  0.16766961568E+03  0.12499688983E+03 0.  0.
          5    1    3    3  501    0  0.54842438701E+02  0.77968333815E+02 -0.19824140187E+01  0.95460851274E+02  0.47000000000E+01 0.  1.
         -5    1    3    3    0  501  0.25267918218E+02 -0.46802926761E+02 -0.23628911919E+02  0.58390043012E+02  0.47000000000E+01 0.  1.
          5    1    4    4  502    0 -0.42828822729E+02  0.27018412775E+02  0.18548007872E+02  0.54133365693E+02  0.47000000000E+01 0.  1.
         -5    1    4    4    0  502 -0.37281534189E+02 -0.58183819829E+02 -0.89961771769E+02  0.11353624999E+03  0.47000000000E+01 0.  1.
<mgrwt>
<rscale>  0 0.30653152E+03</rscale>
<asrwt>0</asrwt>
<pdfrwt beam="1">  1       21 0.17268879E-01 0.30653152E+03</pdfrwt>
<pdfrwt beam="2">  1       21 0.32195815E-01 0.30653152E+03</pdfrwt>
<totfact> 0.27380425E+05</totfact>
</mgrwt>
</event>
<event>
 8    1  0.9529436E-006  0.2975736E+03  0.7546771E-02  0.1086460E+00
         21   -1    0    0  504  503  0.00000000000E+00  0.00000000000E+00  0.64237294133E+03  0.64237294133E+03  0.00000000000E+00 0. -1.
         21   -1    0    0  503  504 -0.00000000000E+00 -0.00000000000E+00 -0.34462090611E+02  0.34462090611E+02  0.00000000000E+00 0. -1.
         25    2    1    2    0    0 -0.61488085049E+01 -0.55267933844E+02  0.17092915468E+03  0.21893762609E+03  0.12499822335E+03 0.  0.
         25    2    1    2    0    0  0.61488085049E+01  0.55267933844E+02  0.43698169604E+03  0.45789740585E+03  0.12499871701E+03 0.  0.
          5    1    3    3  501    0  0.49617167895E+02 -0.62742156056E+02  0.94100671404E+02  0.12359396367E+03  0.47000000000E+01 0.  1.
         -5    1    3    3    0  501 -0.55765976400E+02  0.74742222122E+01  0.76828483273E+02  0.95343662419E+02  0.47000000000E+01 0.  1.
          5    1    4    4  502    0 -0.55431188283E+02  0.39172996030E+01  0.15635235117E+03  0.16600033008E+03  0.47000000000E+01 0. -1.
         -5    1    4    4    0  502  0.61579996788E+02  0.51350634241E+02  0.28062934487E+03  0.29189707577E+03  0.47000000000E+01 0. -1.
<mgrwt>
<rscale>  0 0.29757362E+03</rscale>
<asrwt>0</asrwt>
<pdfrwt beam="1">  1       21 0.98826598E-01 0.29757362E+03</pdfrwt>
<pdfrwt beam="2">  1       21 0.53018606E-02 0.29757362E+03</pdfrwt>
<totfact> 0.19919974E+05</totfact>
</mgrwt>
</event>
<event>
 8    1  0.9529436E-006  0.3492644E+03  0.7546771E-02  0.1062917E+00
         21   -1    0    0  504  503  0.00000000000E+00  0.00000000000E+00  0.14732115280E+03  0.14732115280E+03  0.00000000000E+00 0. -1.
         21   -1    0    0  503  504 -0.00000000000E+00 -0.00000000000E+00 -0.20700623592E+03  0.20700623592E+03  0.00000000000E+00 0. -1.
         25    2    1    2    0    0 -0.93888960252E+01 -0.11951794199E+03 -0.71885113109E+01  0.17334484058E+03  0.12499627689E+03 0.  0.
         25    2    1    2    0    0  0.93888960252E+01  0.11951794199E+03 -0.52496571814E+02  0.18098254814E+03  0.12500441133E+03 0.  0.
          5    1    3    3  501    0 -0.41226014149E+02 -0.15544240999E+02  0.35151599187E+02  0.56559107102E+02  0.47000000000E+01 0.  1.
         -5    1    3    3    0  501  0.31837118123E+02 -0.10397370099E+03 -0.42340110498E+02  0.11678573348E+03  0.47000000000E+01 0.  1.
          5    1    4    4  502    0 -0.16528709155E+02  0.93222980155E+02 -0.88147345367E+02  0.12944406804E+03  0.47000000000E+01 0. -1.
         -5    1    4    4    0  502  0.25917605180E+02  0.26294961832E+02  0.35650773553E+02  0.51538480099E+02  0.47000000000E+01 0. -1.
<mgrwt>
<rscale>  0 0.34926435E+03</rscale>
<asrwt>0</asrwt>
<pdfrwt beam="1">  1       21 0.22664793E-01 0.34926435E+03</pdfrwt>
<pdfrwt beam="2">  1       21 0.31847113E-01 0.34926435E+03</pdfrwt>
<totfact> 0.16599352E+05</totfact>
</mgrwt>
</event>
<event>
 8    1  0.9529436E-006  0.3694274E+03  0.7546771E-02  0.1054912E+00
         21   -1    0    0  504  503  0.00000000000E+00  0.00000000000E+00  0.28899133673E+03  0.28899133673E+03  0.00000000000E+00 0. -1.
         21   -1    0    0  503  504 -0.00000000000E+00 -0.00000000000E+00 -0.11806287803E+03  0.11806287803E+03  0.00000000000E+00 0. -1.
         25    2    1    2    0    0 -0.69124823377E+02  0.65059192321E+02 -0.21843773786E+02  0.15847463439E+03  0.12500447824E+03 0.  0.
         25    2    1    2    0    0  0.69124823377E+02 -0.65059192321E+02  0.19277223248E+03  0.24857958038E+03  0.12497893603E+03 0.  0.
          5    1    3    3  501    0 -0.35309873866E+02  0.10086242470E+03 -0.20922343999E+02  0.10899472642E+03  0.47000000000E+01 0. -1.
         -5    1    3    3    0  501 -0.33814949511E+02 -0.35803232383E+02 -0.92142978696E+00  0.49479907966E+02  0.47000000000E+01 0. -1.
          5    1    4    4  502    0  0.90832394625E+02 -0.84487711877E+02  0.17348853319E+03  0.21332852252E+03  0.47000000000E+01 0.  1.
         -5    1    4    4    0  502 -0.21707571248E+02  0.19428519556E+02  0.19283699287E+02  0.35251057854E+02  0.47000000000E+01 0.  1.
<mgrwt>
<rscale>  0 0.36942739E+03</rscale>
<asrwt>0</asrwt>
<pdfrwt beam="1">  1       21 0.44460206E-01 0.36942739E+03</pdfrwt>
<pdfrwt beam="2">  1       21 0.18163520E-01 0.36942739E+03</pdfrwt>
<totfact> 0.12763198E+05</totfact>
</mgrwt>
</event>
<event>
 8    1  0.9529436E-006  0.2555764E+03  0.7546771E-02  0.1109830E+00
         21   -1    0    0  504  503  0.00000000000E+00  0.00000000000E+00  0.26988728153E+02  0.26988728153E+02  0.00000000000E+00 0.  1.
         21   -1    0    0  503  504 -0.00000000000E+00 -0.00000000000E+00 -0.60506108378E+03  0.60506108378E+03  0.00000000000E+00 0.  1.
         25    2    1    2    0    0 -0.13432058092E+01 -0.72298020401E+01 -0.35207945065E+03  0.37368710240E+03  0.12501214616E+03 0.  0.
         25    2    1    2    0    0  0.13432058092E+01  0.72298020401E+01 -0.22599290498E+03  0.25836270954E+03  0.12499768934E+03 0.  0.
          5    1    3    3  501    0 -0.40823398210E+02 -0.46132637865E+02 -0.24907258300E+03  0.25662036498E+03  0.47000000000E+01 0. -1.
         -5    1    3    3    0  501  0.39480192401E+02  0.38902835825E+02 -0.10300686766E+03  0.11706673743E+03  0.47000000000E+01 0. -1.
          5    1    4    4  502    0 -0.51149790538E+02  0.37454436184E+02 -0.10016182319E+03  0.11863227506E+03  0.47000000000E+01 0. -1.
         -5    1    4    4    0  502  0.52492996347E+02 -0.30224634144E+02 -0.12583108178E+03  0.13973043447E+03  0.47000000000E+01 0. -1.
<mgrwt>
<rscale>  0 0.25557644E+03</rscale>
<asrwt>0</asrwt>
<pdfrwt beam="1">  1       21 0.41521126E-02 0.25557644E+03</pdfrwt>
<pdfrwt beam="2">  1       21 0.93086309E-01 0.25557644E+03</pdfrwt>
<totfact> 0.35167620E+05</totfact>
</mgrwt>
</event>
<event>
 8    1  0.9529436E-006  0.2830396E+03  0.7546771E-02  0.1094040E+00
         21   -1    0    0  504  503  0.00000000000E+00  0.00000000000E+00  0.21426135318E+02  0.21426135318E+02  0.00000000000E+00 0. -1.
         21   -1    0    0  503  504 -0.00000000000E+00 -0.00000000000E+00 -0.93473914282E+03  0.93473914282E+03  0.00000000000E+00 0. -1.
         25    2    1    2    0    0 -0.47467814334E+02 -0.31872736090E+02 -0.34291058800E+03  0.36943451202E+03  0.12500049040E+03 0.  0.
         25    2    1    2    0    0  0.47467814334E+02  0.31872736090E+02 -0.57040241950E+03  0.58673076612E+03  0.12500002816E+03 0.  0.
          5    1    3    3  501    0  0.21045083437E+02 -0.56583548772E+02 -0.11277971597E+03  0.12800760861E+03  0.47000000000E+01 0. -1.
         -5    1    3    3    0  501 -0.68512897771E+02  0.24710812683E+02 -0.23013087203E+03  0.24142690340E+03  0.47000000000E+01 0. -1.
          5    1    4    4  502    0  0.20408680992E+02  0.73289148282E+02 -0.45106115814E+03  0.45745608740E+03  0.47000000000E+01 0.  1.
         -5    1    4    4    0  502  0.27059133342E+02 -0.41416412193E+02 -0.11934126136E+03  0.12927467872E+03  0.47000000000E+01 0.  1.
<mgrwt>
<rscale>  0 0.28303955E+03</rscale>
<asrwt>0</asrwt>
<pdfrwt beam="1">  1       21 0.32963287E-02 0.28303955E+03</pdfrwt>
<pdfrwt beam="2">  1       21 0.14380602E+00 0.28303955E+03</pdfrwt>
<totfact> 0.17480071E+05</totfact>
</mgrwt>
</event>
<event>
 8    1  0.9529436E-006  0.3056241E+03  0.7546771E-02  0.1082463E+00
         21   -1    0    0  504  503  0.00000000000E+00  0.00000000000E+00  0.55655884943E+03  0.55655884943E+03  0.00000000000E+00 0. -1.
         21   -1    0    0  503  504 -0.00000000000E+00 -0.00000000000E+00 -0.41956957069E+02  0.41956957069E+02  0.00000000000E+00 0. -1.
         25    2    1    2    0    0 -0.62637926074E+02  0.61341305164E+02  0.24487049033E+03  0.28857241827E+03  0.12500487212E+03 0.  0.
         25    2    1    2    0    0  0.62637926074E+02 -0.61341305164E+02  0.26973140203E+03  0.30994338822E+03  0.12499443651E+03 0.  0.
          5    1    3    3  501    0  0.24857380578E+02 -0.75555979086E+01  0.93525833909E+01  0.28009592019E+02  0.47000000000E+01 0.  1.
         -5    1    3    3    0  501 -0.87495306653E+02  0.68896903072E+02  0.23551790694E+03  0.26056282626E+03  0.47000000000E+01 0.  1.
          5    1    4    4  502    0  0.62504129269E+02  0.59942393451E+01  0.50987021492E+02  0.81021376449E+02  0.47000000000E+01 0.  1.
         -5    1    4    4    0  502  0.13379680486E+00 -0.67335544509E+02  0.21874438054E+03  0.22892201177E+03  0.47000000000E+01 0.  1.
<mgrwt>
<rscale>  0 0.30562406E+03</rscale>
<asrwt>0</asrwt>
<pdfrwt beam="1">  1       21 0.85624433E-01 0.30562406E+03</pdfrwt>
<pdfrwt beam="2">  1       21 0.64549169E-02 0.30562406E+03</pdfrwt>
<totfact> 0.19842284E+05</totfact>
</mgrwt>
</event>
<event>
 8    1  0.9529436E-006  0.2904251E+03  0.7546771E-02  0.1090127E+00
         21   -1    0    0  504  503  0.00000000000E+00  0.00000000000E+00  0.13893142001E+04  0.13893142001E+04  0.00000000000E+00 0.  1.
         21   -1    0    0  503  504 -0.00000000000E+00 -0.00000000000E+00 -0.15177765727E+02  0.15177765727E+02  0.00000000000E+00 0.  1.
         25    2    1    2    0    0 -0.48436349409E+02 -0.42293762978E+02  0.86324418707E+03  0.87461432836E+03  0.12499941813E+03 0.  0.
         25    2    1    2    0    0  0.48436349409E+02  0.42293762978E+02  0.51089224733E+03  0.52987763750E+03  0.12499832000E+03 0.  0.
          5    1    3    3  501    0  0.24446607864E+02 -0.60165249763E+02  0.37381928042E+03  0.37944754358E+03  0.47000000000E+01 0.  1.
         -5    1    3    3    0  501 -0.72882957273E+02  0.17871486786E+02  0.48942490665E+03  0.49516678478E+03  0.47000000000E+01 0.  1.
          5    1    4    4  502    0 -0.97187977415E+01  0.66438590582E+02  0.36111232010E+03  0.36733191949E+03  0.47000000000E+01 0.  1.
         -5    1    4    4    0  502  0.58155147151E+02 -0.24144827605E+02  0.14977992723E+03  0.16254571800E+03  0.47000000000E+01 0.  1.
<mgrwt>
<rscale>  0 0.29042511E+03</rscale>
<asrwt>0</asrwt>
<pdfrwt beam="1">  1       21 0.21374055E+00 0.29042511E+03</pdfrwt>
<pdfrwt beam="2">  1       21 0.23350420E-02 0.29042511E+03</pdfrwt>
<totfact> 0.99971262E+04</totfact>
</mgrwt>
</event>
<event>
 8    1  0.9529436E-006  0.2656775E+03  0.7546771E-02  0.1103779E+00
         21   -1    0    0  504  503  0.00000000000E+00  0.00000000000E+00  0.14361175351E+03  0.14361175351E+03  0.00000000000E+00 0. -1.
         21   -1    0    0  503  504 -0.00000000000E+00 -0.00000000000E+00 -0.12287386492E+03  0.12287386492E+03  0.00000000000E+00 0. -1.
         25    2    1    2    0    0 -0.35898225784E+02 -0.13051941922E+02  0.34232535597E+02  0.13510196014E+03  0.12498654863E+03 0.  0.
         25    2    1    2    0    0  0.35898225784E+02  0.13051941922E+02 -0.13494647007E+02  0.13138365829E+03  0.12498209618E+03 0.  0.
          5    1    3    3  501    0 -0.36507993160E+02  0.52966775163E+02  0.17371555973E+02  0.66799504434E+02  0.47000000000E+01 0. -1.
         -5    1    3    3    0  501  0.60976737591E+00 -0.66018717085E+02  0.16860979624E+02  0.68302455707E+02  0.47000000000E+01 0. -1.
          5    1    4    4  502    0  0.52104879878E+02 -0.40573305023E+02 -0.30154456905E+02  0.72749521365E+02  0.47000000000E+01 0.  1.
         -5    1    4    4    0  502 -0.16206654094E+02  0.53625246945E+02  0.16659809898E+02  0.58634136923E+02  0.47000000000E+01 0.  1.
<mgrwt>
<rscale>  0 0.26567748E+03</rscale>
<asrwt>0</asrwt>
<pdfrwt beam="1">  1       21 0.22094116E-01 0.26567748E+03</pdfrwt>
<pdfrwt beam="2">  1       21 0.18903671E-01 0.26567748E+03</pdfrwt>
<totfact> 0.48405717E+05</totfact>
</mgrwt>
</event>
<event>
 8    1  0.9529436E-006  0.3107487E+03  0.7546771E-02  0.1079988E+00
         21   -1    0    0  504  503  0.00000000000E+00  0.00000000000E+00  0.50703451201E+03  0.50703451201E+03  0.00000000000E+00 0. -1.
         21   -1    0    0  503  504 -0.00000000000E+00 -0.00000000000E+00 -0.47612527371E+02  0.47612527371E+02  0.00000000000E+00 0. -1.
         25    2    1    2    0    0 -0.51138765013E+02  0.71938835996E+02  0.18158768331E+03  0.23745993602E+03  0.12499105998E+03 0.  0.
         25    2    1    2    0    0  0.51138765013E+02 -0.71938835996E+02  0.27783430133E+03  0.31718710336E+03  0.12500156051E+03 0.  0.
          5    1    3    3  501    0 -0.26726126078E+02  0.67916295879E+02  0.19546896211E+03  0.20870341207E+03  0.47000000000E+01 0. -1.
         -5    1    3    3    0  501 -0.24412638935E+02  0.40225401174E+01 -0.13881278801E+02  0.28756523954E+02  0.47000000000E+01 0. -1.
          5    1    4    4  502    0  0.12880469016E+02 -0.29718450476E+02 -0.80957439502E+00  0.32738939987E+02  0.47000000000E+01 0.  1.
         -5    1    4    4    0  502  0.38258295997E+02 -0.42220385520E+02  0.27864387573E+03  0.28444816338E+03  0.47000000000E+01 0.  1.
<mgrwt>
<rscale>  0 0.31074874E+03</rscale>
<asrwt>0</asrwt>
<pdfrwt beam="1">  1       21 0.78005306E-01 0.31074874E+03</pdfrwt>
<pdfrwt beam="2">  1       21 0.73250046E-02 0.31074874E+03</pdfrwt>
<totfact> 0.19696013E+05</totfact>
</mgrwt>
</event>
<event>
 8    1  0.9529436E-006  0.2704288E+03  0.7546771E-02  0.1101034E+00
         21   -1    0    0  504  503  0.00000000000E+00  0.00000000000E+00  0.21124853278E+02  0.21124853278E+02  0.00000000000E+00 0. -1.
         21   -1    0    0  503  504 -0.00000000000E+00 -0.00000000000E+00 -0.86547025214E+03  0.86547025214E+03  0.00000000000E+00 0. -1.
         25    2    1    2    0    0  0.46120824428E+02 -0.19498788867E+01 -0.34696701684E+03  0.37167443274E+03  0.12499936282E+03 0.  0.
         25    2    1    2    0    0 -0.46120824428E+02  0.19498788867E+01 -0.49737838202E+03  0.51492067267E+03  0.12500844680E+03 0.  0.
          5    1    3    3  501    0 -0.12488371780E+02 -0.43100649677E+02 -0.55623545603E+02  0.71621883931E+02  0.47000000000E+01 0. -1.
         -5    1    3    3    0  501  0.58609196207E+02  0.41150770790E+02 -0.29134347124E+03  0.30005254881E+03  0.47000000000E+01 0. -1.
          5    1    4    4  502    0 -0.23009339662E+02 -0.56951759175E+02 -0.15650826384E+03  0.16819589541E+03  0.47000000000E+01 0.  1.
         -5    1    4    4    0  502 -0.23111484765E+02  0.58901638062E+02 -0.34087011819E+03  0.34672477726E+03  0.47000000000E+01 0.  1.
<mgrwt>
<rscale>  0 0.27042879E+03</rscale>
<asrwt>0</asrwt>
<pdfrwt beam="1">  1       21 0.32499771E-02 0.27042879E+03</pdfrwt>
<pdfrwt beam="2">  1       21 0.13314928E+00 0.27042879E+03</pdfrwt>
<totfact> 0.21958307E+05</totfact>
</mgrwt>
</event>
<event>
 8    1  0.9529436E-006  0.3696848E+03  0.7546771E-02  0.1054814E+00
         21   -1    0    0  504  503  0.00000000000E+00  0.00000000000E+00  0.66564230165E+03  0.66564230165E+03  0.00000000000E+00 0. -1.
         21   -1    0    0  503  504 -0.00000000000E+00 -0.00000000000E+00 -0.51328946338E+02  0.51328946338E+02  0.00000000000E+00 0. -1.
         25    2    1    2    0    0 -0.90057714385E+02 -0.94023599875E+02  0.38465264654E+03  0.42489244502E+03  0.12500040838E+03 0.  0.
         25    2    1    2    0    0  0.90057714385E+02  0.94023599875E+02  0.22966070877E+03  0.29207880296E+03  0.12496062073E+03 0.  0.
          5    1    3    3  501    0 -0.13831407553E+02 -0.49305594912E+02  0.29302768378E+03  0.29750573606E+03  0.47000000000E+01 0.  1.
         -5    1    3    3    0  501 -0.76226306832E+02 -0.44718004963E+02  0.91624962758E+02  0.12738670897E+03  0.47000000000E+01 0.  1.
          5    1    4    4  502    0  0.49395835894E+02  0.11208315943E+03  0.21011731296E+03  0.24325698025E+03  0.47000000000E+01 0.  1.
         -5    1    4    4    0  502  0.40661878492E+02 -0.18059559553E+02  0.19543395809E+02  0.48821822717E+02  0.47000000000E+01 0.  1.
<mgrwt>
<rscale>  0 0.36968483E+03</rscale>
<asrwt>0</asrwt>
<pdfrwt beam="1">  1       21 0.10240650E+00 0.36968483E+03</pdfrwt>
<pdfrwt beam="2">  1       21 0.78967614E-02 0.36968483E+03</pdfrwt>
<totfact> 0.89772009E+04</totfact>
</mgrwt>
</event>
<event>
 8    1  0.9529436E-006  0.2848542E+03  0.7546771E-02  0.1093067E+00
         21   -1    0    0  504  503  0.00000000000E+00  0.00000000000E+00  0.62638707873E+03  0.62638707873E+03  0.00000000000E+00 0.  1.
         21   -1    0    0  503  504 -0.00000000000E+00 -0.00000000000E+00 -0.32384886185E+02  0.32384886185E+02  0.00000000000E+00 0.  1.
         25    2    1    2    0    0  0.51512821770E+02 -0.14076627534E+02  0.19864564736E+03  0.24070019005E+03  0.12499906409E+03 0.  0.
         25    2    1    2    0    0 -0.51512821770E+02  0.14076627534E+02  0.39535654518E+03  0.41807177487E+03  0.12500195547E+03 0.  0.
          5    1    3    3  501    0  0.85471186294E+02 -0.34786538016E+02  0.16155669938E+03  0.18611309473E+03  0.47000000000E+01 0.  1.
         -5    1    3    3    0  501 -0.33958364524E+02  0.20709910482E+02  0.37088947983E+02  0.54587095323E+02  0.47000000000E+01 0.  1.
          5    1    4    4  502    0  0.11116715536E+02 -0.29501599253E+02  0.26720841607E+02  0.41593498277E+02  0.47000000000E+01 0. -1.
         -5    1    4    4    0  502 -0.62629537306E+02  0.43578226786E+02  0.36863570358E+03  0.37647827659E+03  0.47000000000E+01 0. -1.
<mgrwt>
<rscale>  0 0.28485417E+03</rscale>
<asrwt>0</asrwt>
<pdfrwt beam="1">  1       21 0.96367234E-01 0.28485417E+03</pdfrwt>
<pdfrwt beam="2">  1       21 0.49822906E-02 0.28485417E+03</pdfrwt>
<totfact> 0.23603713E+05</totfact>
</mgrwt>
</event>
<event>
 8    1  0.9529436E-006  0.3142499E+03  0.7546771E-02  0.1078327E+00
         21   -1    0    0  504  503  0.00000000000E+00  0.00000000000E+00  0.56722716516E+03  0.56722716516E+03  0.00000000000E+00 0. -1.
         21   -1    0    0  503  504 -0.00000000000E+00 -0.00000000000E+00 -0.43524437157E+02  0.43524437157E+02  0.00000000000E+00 0. -1.
         25    2    1    2    0    0 -0.34924912108E+02  0.30407670966E+02  0.10020144532E+03  0.16676618497E+03  0.12500501936E+03 0.  0.
         25    2    1    2    0    0  0.34924912108E+02 -0.30407670966E+02  0.42350128269E+03  0.44398541735E+03  0.12500135376E+03 0.  0.
          5    1    3    3  501    0 -0.62487219599E+01  0.71848561775E+02  0.89492983184E+02  0.11503193641E+03  0.47000000000E+01 0. -1.
         -5    1    3    3    0  501 -0.28676190148E+02 -0.41440890809E+02  0.10708462133E+02  0.51734248556E+02  0.47000000000E+01 0. -1.
          5    1    4    4  502    0 -0.23754442548E+02  0.35338636286E+02  0.10292725889E+03  0.11148633718E+03  0.47000000000E+01 0. -1.
         -5    1    4    4    0  502  0.58679354656E+02 -0.65746307252E+02  0.32057402380E+03  0.33249908017E+03  0.47000000000E+01 0. -1.
<mgrwt>
<rscale>  0 0.31424986E+03</rscale>
<asrwt>0</asrwt>
<pdfrwt beam="1">  1       21 0.87265713E-01 0.31424986E+03</pdfrwt>
<pdfrwt beam="2">  1       21 0.66960677E-02 0.31424986E+03</pdfrwt>
<totfact> 0.17775753E+05</totfact>
</mgrwt>
</event>
<event>
 8    1  0.9529436E-006  0.3077914E+03  0.7546771E-02  0.1081409E+00
         21   -1    0    0  504  503  0.00000000000E+00  0.00000000000E+00  0.74591933167E+02  0.74591933167E+02  0.00000000000E+00 0. -1.
         21   -1    0    0  503  504 -0.00000000000E+00 -0.00000000000E+00 -0.31751267675E+03  0.31751267675E+03  0.00000000000E+00 0. -1.
         25    2    1    2    0    0 -0.56314582700E+02 -0.28456685373E+02 -0.20281628482E+03  0.24645607365E+03  0.12500014274E+03 0.  0.
         25    2    1    2    0    0  0.56314582700E+02  0.28456685373E+02 -0.40104458770E+02  0.14564853627E+03  0.12499605329E+03 0.  0.
          5    1    3    3  501    0 -0.86347058682E+02 -0.49535656882E+02 -0.16974077284E+03  0.19683398033E+03  0.47000000000E+01 0.  1.
         -5    1    3    3    0  501  0.30032475981E+02  0.21078971509E+02 -0.33075511973E+02  0.49622093323E+02  0.47000000000E+01 0.  1.
          5    1    4    4  502    0  0.47130533319E+02 -0.45300768429E+02 -0.18340159122E+02  0.68058050427E+02  0.47000000000E+01 0.  1.
         -5    1    4    4    0  502  0.91840493810E+01  0.73757453802E+02 -0.21764299647E+02  0.77590485844E+02  0.47000000000E+01 0.  1.
<mgrwt>
<rscale>  0 0.30779139E+03</rscale>
<asrwt>0</asrwt>
<pdfrwt beam="1">  1       21 0.11475682E-01 0.30779139E+03</pdfrwt>
<pdfrwt beam="2">  1       21 0.48848104E-01 0.30779139E+03</pdfrwt>
<totfact> 0.24701221E+05</totfact>
</mgrwt>
</event>
<event>
 8    1  0.9529436E-006  0.2884059E+03  0.7546771E-02  0.1091184E+00
         21   -1    0    0  504  503  0.00000000000E+00  0.00000000000E+00  0.42291030585E+03  0.42291030585E+03  0.00000000000E+00 0.  1.
         21   -1    0    0  503  504 -0.00000000000E+00 -0.00000000000E+00 -0.49169962576E+02  0.49169962576E+02  0.00000000000E+00 0.  1.
         25    2    1    2    0    0  0.32912470887E+02  0.11170808663E+02  0.28982093830E+03  0.31753798731E+03  0.12500471753E+03 0.  0.
         25    2    1    2    0    0 -0.32912470887E+02 -0.11170808663E+02  0.83919404979E+02  0.15454228112E+03  0.12503132573E+03 0.  0.
          5    1    3    3  501    0 -0.33369809151E+02 -0.35172527168E+02  0.10596303849E+03  0.11662292380E+03  0.47000000000E+01 0.  1.
         -5    1    3    3    0  501  0.66282280038E+02  0.46343335832E+02  0.18385789981E+03  0.20091506351E+03  0.47000000000E+01 0.  1.
          5    1    4    4  502    0  0.12305427516E+02 -0.60299344906E+02  0.30186898750E+02  0.68707884544E+02  0.47000000000E+01 0. -1.
         -5    1    4    4    0  502 -0.45217898403E+02  0.49128536242E+02  0.53732506229E+02  0.85834396572E+02  0.47000000000E+01 0. -1.
<mgrwt>
<rscale>  0 0.28840585E+03</rscale>
<asrwt>0</asrwt>
<pdfrwt beam="1">  1       21 0.65063122E-01 0.28840585E+03</pdfrwt>
<pdfrwt beam="2">  1       21 0.75646099E-02 0.28840585E+03</pdfrwt>
<totfact> 0.28077888E+05</totfact>
</mgrwt>
</event>
<event>
 8    1  0.9529436E-006  0.2825000E+03  0.7546771E-02  0.1094331E+00
         21   -1    0    0  504  503  0.00000000000E+00  0.00000000000E+00  0.41655956159E+03  0.41655956159E+03  0.00000000000E+00 0. -1.
         21   -1    0    0  503  504 -0.00000000000E+00 -0.00000000000E+00 -0.47896065041E+02  0.47896065041E+02  0.00000000000E+00 0. -1.
         25    2    1    2    0    0  0.34407565406E+02 -0.44421945455E+02  0.24054725020E+03  0.27684791435E+03  0.12499839322E+03 0.  0.
         25    2    1    2    0    0 -0.34407565406E+02  0.44421945455E+02  0.12811624635E+03  0.18760771228E+03  0.12500276530E+03 0.  0.
          5    1    3    3  501    0  0.59231689687E+02  0.13655474745E+02  0.60103734358E+02  0.85611996457E+02  0.47000000000E+01 0.  1.
         -5    1    3    3    0  501 -0.24824124281E+02 -0.58077420200E+02  0.18044351584E+03  0.19123591789E+03  0.47000000000E+01 0.  1.
          5    1    4    4  502    0  0.25137105871E+02  0.14508705044E+02  0.11606066382E+03  0.11972695728E+03  0.47000000000E+01 0.  1.
         -5    1    4    4    0  502 -0.59544671277E+02  0.29913240411E+02  0.12055582533E+02  0.67880755002E+02  0.47000000000E+01 0.  1.
<mgrwt>
<rscale>  0 0.28250001E+03</rscale>
<asrwt>0</asrwt>
<pdfrwt beam="1">  1       21 0.64086084E-01 0.28250001E+03</pdfrwt>
<pdfrwt beam="2">  1       21 0.73686257E-02 0.28250001E+03</pdfrwt>
<totfact> 0.30428195E+05</totfact>
</mgrwt>
</event>
<event>
 8    1  0.9529436E-006  0.3024248E+03  0.7546771E-02  0.1084035E+00
         21   -1    0    0  504  503  0.00000000000E+00  0.00000000000E+00  0.61184852329E+03  0.61184852329E+03  0.00000000000E+00 0. -1.
         21   -1    0    0  503  504 -0.00000000000E+00 -0.00000000000E+00 -0.37370681421E+02  0.37370681421E+02  0.00000000000E+00 0. -1.
         25    2    1    2    0    0 -0.41047628265E+02  0.60520448493E+02  0.19380539017E+03  0.24193379780E+03  0.12499520306E+03 0.  0.
         25    2    1    2    0    0  0.41047628265E+02 -0.60520448493E+02  0.38067245170E+03  0.40728540691E+03  0.12498901843E+03 0.  0.
          5    1    3    3  501    0 -0.77190480950E+02  0.44987730076E+02  0.17811288253E+03  0.19932023262E+03  0.47000000000E+01 0.  1.
         -5    1    3    3    0  501  0.36142852685E+02  0.15532718417E+02  0.15692507637E+02  0.42613565183E+02  0.47000000000E+01 0.  1.
          5    1    4    4  502    0 -0.30089970438E+02 -0.40189641074E+02  0.61070455221E+02  0.79197879211E+02  0.47000000000E+01 0. -1.
         -5    1    4    4    0  502  0.71137598703E+02 -0.20330807419E+02  0.31960199648E+03  0.32808752770E+03  0.47000000000E+01 0. -1.
<mgrwt>
<rscale>  0 0.30242484E+03</rscale>
<asrwt>0</asrwt>
<pdfrwt beam="1">  1       21 0.94130534E-01 0.30242484E+03</pdfrwt>
<pdfrwt beam="2">  1       21 0.57493361E-02 0.30242484E+03</pdfrwt>
<totfact> 0.19432662E+05</totfact>
</mgrwt>
</event>
<event>
 8    1  0.9529436E-006  0.3867993E+03  0.7546771E-02  0.1048449E+00
         21   -1    0    0  504  503  0.00000000000E+00  0.00000000000E+00  0.19732190388E+03  0.19732190388E+03  0.00000000000E+00 0.  1.
         21   -1    0    0  503  504 -0.00000000000E+00 -0.00000000000E+00 -0.18955531394E+03  0.18955531394E+03  0.00000000000E+00 0.  1.
         25    2    1    2    0    0 -0.54155379861E+02  0.45388645392E+02 -0.12570087914E+03  0.19083663911E+03  0.12499991005E+03 0.  0.
         25    2    1    2    0    0  0.54155379861E+02 -0.45388645392E+02  0.13346746907E+03  0.19604057871E+03  0.12500163560E+03 0.  0.
          5    1    3    3  501    0  0.27949020290E+02 -0.65454122616E+01  0.33029671528E+01  0.29274387250E+02  0.47000000000E+01 0.  1.
         -5    1    3    3    0  501 -0.82104400150E+02  0.51934057654E+02 -0.12900384629E+03  0.16156225186E+03  0.47000000000E+01 0.  1.
          5    1    4    4  502    0 -0.10537009186E+02 -0.29375207262E+02  0.12473061483E+03  0.12866136810E+03  0.47000000000E+01 0. -1.
         -5    1    4    4    0  502  0.64692389047E+02 -0.16013438130E+02  0.87368542407E+01  0.67379210617E+02  0.47000000000E+01 0. -1.
<mgrwt>
<rscale>  0 0.38679925E+03</rscale>
<asrwt>0</asrwt>
<pdfrwt beam="1">  1       21 0.30357216E-01 0.38679925E+03</pdfrwt>
<pdfrwt beam="2">  1       21 0.29162356E-01 0.38679925E+03</pdfrwt>
<totfact> 0.11098111E+05</totfact>
</mgrwt>
</event>
<event>
 8    1  0.9529436E-006  0.2964037E+03  0.7546771E-02  0.1087052E+00
         21   -1    0    0  504  503  0.00000000000E+00  0.00000000000E+00  0.23652714775E+03  0.23652714775E+03  0.00000000000E+00 0. -1.
         21   -1    0    0  503  504 -0.00000000000E+00 -0.00000000000E+00 -0.92859465578E+02  0.92859465578E+02  0.00000000000E+00 0. -1.
         25    2    1    2    0    0  0.44512263869E+02 -0.26932541296E+02  0.48478886356E+01  0.13548353734E+03  0.12500233378E+03 0.  0.
         25    2    1    2    0    0 -0.44512263869E+02  0.26932541296E+02  0.13881979354E+03  0.19390307599E+03  0.12498305639E+03 0.  0.
          5    1    3    3  501    0 -0.37676399620E+02 -0.49211156198E+00 -0.23302503383E+02  0.44551654583E+02  0.47000000000E+01 0. -1.
         -5    1    3    3    0  501  0.82188663489E+02 -0.26440429734E+02  0.28150392019E+02  0.90931882755E+02  0.47000000000E+01 0. -1.
          5    1    4    4  502    0 -0.42053180702E+02  0.45621915471E+02  0.92780550964E+01  0.62912649641E+02  0.47000000000E+01 0. -1.
         -5    1    4    4    0  502 -0.24590831668E+01 -0.18689374176E+02  0.12954173844E+03  0.13099042635E+03  0.47000000000E+01 0. -1.
<mgrwt>
<rscale>  0 0.29640367E+03</rscale>
<asrwt>0</asrwt>
<pdfrwt beam="1">  1       21 0.36388792E-01 0.29640367E+03</pdfrwt>
<pdfrwt beam="2">  1       21 0.14286072E-01 0.29640367E+03</pdfrwt>
<totfact> 0.30478597E+05</totfact>
</mgrwt>
</event>
<event>
 8    1  0.9529436E-006  0.2566372E+03  0.7546771E-02  0.1109181E+00
         21   -1    0    0  504  503  0.00000000000E+00  0.00000000000E+00  0.12312055100E+03  0.12312055100E+03  0.00000000000E+00 0.  1.
         21   -1    0    0  503  504 -0.00000000000E+00 -0.00000000000E+00 -0.13373606849E+03  0.13373606849E+03  0.00000000000E+00 0.  1.
         25    2    1    2    0    0  0.69649464202E+01  0.97139865790E+01 -0.31730113882E+02  0.12952238774E+03  0.12500550702E+03 0.  0.
         25    2    1    2    0    0 -0.69649464202E+01 -0.97139865790E+01  0.21114596394E+02  0.12733423174E+03  0.12500123351E+03 0.  0.
          5    1    3    3  501    0 -0.33428523283E+02  0.53269236273E+02 -0.24091624034E+01  0.63110789612E+02  0.47000000000E+01 0.  1.
         -5    1    3    3    0  501  0.40393469703E+02 -0.43555249694E+02 -0.29320951478E+02  0.66411598129E+02  0.47000000000E+01 0.  1.
          5    1    4    4  502    0  0.89057720093E+01 -0.16594353933E+02 -0.50189122364E+02  0.53811925827E+02  0.47000000000E+01 0. -1.
         -5    1    4    4    0  502 -0.15870718430E+02  0.68803673540E+01  0.71303718758E+02  0.73522305915E+02  0.47000000000E+01 0. -1.
<mgrwt>
<rscale>  0 0.25663716E+03</rscale>
<asrwt>0</asrwt>
<pdfrwt beam="1">  1       21 0.18941623E-01 0.25663716E+03</pdfrwt>
<pdfrwt beam="2">  1       21 0.20574780E-01 0.25663716E+03</pdfrwt>
<totfact> 0.55270178E+05</totfact>
</mgrwt>
</event>
<event>
 8    1  0.9529436E-006  0.3416691E+03  0.7546771E-02  0.1066087E+00
         21   -1    0    0  504  503  0.00000000000E+00  0.00000000000E+00  0.44620655266E+03  0.44620655266E+03  0.00000000000E+00 0.  1.
         21   -1    0    0  503  504 -0.00000000000E+00 -0.00000000000E+00 -0.65405697936E+02  0.65405697936E+02  0.00000000000E+00 0.  1.
         25    2    1    2    0    0  0.87686980909E+02 -0.53019399167E+01  0.30486317317E+03  0.34100362256E+03  0.12499919621E+03 0.  0.
         25    2    1    2    0    0 -0.87686980909E+02  0.53019399167E+01  0.75937681556E+02  0.17060862804E+03  0.12499462106E+03 0.  0.
          5    1    3    3  501    0  0.18924102542E+02 -0.35725106886E+02  0.18161356404E+02  0.44568259843E+02  0.47000000000E+01 0. -1.
         -5    1    3    3    0  501  0.68762878366E+02  0.30423166969E+02  0.28670181677E+03  0.29643536271E+03  0.47000000000E+01 0. -1.
          5    1    4    4  502    0 -0.43397193452E+02 -0.50595302692E+02  0.73158528533E+02  0.99083103258E+02  0.47000000000E+01 0.  1.
         -5    1    4    4    0  502 -0.44289787456E+02  0.55897242609E+02  0.27791530228E+01  0.71525524785E+02  0.47000000000E+01 0.  1.
<mgrwt>
<rscale>  0 0.34166914E+03</rscale>
<asrwt>0</asrwt>
<pdfrwt beam="1">  1       21 0.68647160E-01 0.34166914E+03</pdfrwt>
<pdfrwt beam="2">  1       21 0.10062415E-01 0.34166914E+03</pdfrwt>
<totfact> 0.14874101E+05</totfact>
</mgrwt>
</event>
<event>
 8    1  0.9529436E-006  0.2962687E+03  0.7546771E-02  0.1087121E+00
         21   -1    0    0  504  503  0.00000000000E+00  0.00000000000E+00  0.14377821098E+04  0.14377821098E+04  0.00000000000E+00 0. -1.
         21   -1    0    0  503  504 -0.00000000000E+00 -0.00000000000E+00 -0.15262243607E+02  0.15262243607E+02  0.00000000000E+00 0. -1.
         25    2    1    2    0    0 -0.57981719996E+02  0.35494131272E+02  0.91324563981E+03  0.92426468447E+03  0.12500358047E+03 0.  0.
         25    2    1    2    0    0  0.57981719996E+02 -0.35494131272E+02  0.50927422641E+03  0.52877966896E+03  0.12500394957E+03 0.  0.
          5    1    3    3  501    0  0.14907451829E+02 -0.12719698328E+02  0.26913621217E+02  0.33622252343E+02  0.47000000000E+01 0.  1.
         -5    1    3    3    0  501 -0.72889171825E+02  0.48213829600E+02  0.88633201859E+03  0.89064243213E+03  0.47000000000E+01 0.  1.
          5    1    4    4  502    0  0.48326750404E+01 -0.70437462733E+02  0.35243059499E+03  0.35946377451E+03  0.47000000000E+01 0.  1.
         -5    1    4    4    0  502  0.53149044955E+02  0.34943331462E+02  0.15684363143E+03  0.16931589445E+03  0.47000000000E+01 0.  1.
<mgrwt>
<rscale>  0 0.29626867E+03</rscale>
<asrwt>0</asrwt>
<pdfrwt beam="1">  1       21 0.22119714E+00 0.29626867E+03</pdfrwt>
<pdfrwt beam="2">  1       21 0.23480386E-02 0.29626867E+03</pdfrwt>
<totfact> 0.88681892E+04</totfact>
</mgrwt>
</event>
<event>
 8    1  0.9529436E-006  0.3753394E+03  0.7546771E-02  0.1052670E+00
         21   -1    0    0  504  503  0.00000000000E+00  0.00000000000E+00  0.19329857377E+03  0.19329857377E+03  0.00000000000E+00 0.  1.
         21   -1    0    0  503  504 -0.00000000000E+00 -0.00000000000E+00 -0.18220469932E+03  0.18220469932E+03  0.00000000000E+00 0.  1.
         25    2    1    2    0    0  0.38879035297E+02  0.13315248258E+03 -0.13234508283E+02  0.18719802175E+03  0.12500713634E+03 0.  0.
         25    2    1    2    0    0 -0.38879035297E+02 -0.13315248258E+03  0.24328382734E+02  0.18830525133E+03  0.12500333783E+03 0.  0.
          5    1    3    3  501    0 -0.38838614293E+02  0.11351241510E+02  0.66564015771E+01  0.41275735317E+02  0.47000000000E+01 0. -1.
         -5    1    3    3    0  501  0.77717649589E+02  0.12180124107E+03 -0.19890909861E+02  0.14592228644E+03  0.47000000000E+01 0. -1.
          5    1    4    4  502    0 -0.51003435192E+02 -0.38962430916E+02 -0.37884246233E+02  0.74677490162E+02  0.47000000000E+01 0. -1.
         -5    1    4    4    0  502  0.12124399896E+02 -0.94190051663E+02  0.62212628967E+02  0.11362776117E+03  0.47000000000E+01 0. -1.
<mgrwt>
<rscale>  0 0.37533936E+03</rscale>
<asrwt>0</asrwt>
<pdfrwt beam="1">  1       21 0.29738242E-01 0.37533936E+03</pdfrwt>
<pdfrwt beam="2">  1       21 0.28031492E-01 0.37533936E+03</pdfrwt>
<totfact> 0.12526185E+05</totfact>
</mgrwt>
</event>
<event>
 8    1  0.9529436E-006  0.3158769E+03  0.7546771E-02  0.1077563E+00
         21   -1    0    0  504  503  0.00000000000E+00  0.00000000000E+00  0.21879704321E+02  0.21879704321E+02  0.00000000000E+00 0. -1.
         21   -1    0    0  503  504 -0.00000000000E+00 -0.00000000000E+00 -0.11400769802E+04  0.11400769802E+04  0.00000000000E+00 0. -1.
         25    2    1    2    0    0  0.67823771687E+01 -0.94553132543E+02 -0.62636633789E+03  0.64571306563E+03  0.12499711349E+03 0.  0.
         25    2    1    2    0    0 -0.67823771687E+01  0.94553132543E+02 -0.49183093797E+03  0.51624361887E+03  0.12499402770E+03 0.  0.
          5    1    3    3  501    0 -0.13236576806E+02 -0.94698550054E+02 -0.23424681686E+03  0.25305470468E+03  0.47000000000E+01 0.  1.
         -5    1    3    3    0  501  0.20018953975E+02  0.14541751022E+00 -0.39211952102E+03  0.39265836096E+03  0.47000000000E+01 0.  1.
          5    1    4    4  502    0  0.44950347385E+02  0.51939735637E+02 -0.37671199144E+03  0.38295206536E+03  0.47000000000E+01 0.  1.
         -5    1    4    4    0  502 -0.51732724554E+02  0.42613396906E+02 -0.11511894653E+03  0.13329155351E+03  0.47000000000E+01 0.  1.
<mgrwt>
<rscale>  0 0.31587686E+03</rscale>
<asrwt>0</asrwt>
<pdfrwt beam="1">  1       21 0.33661077E-02 0.31587686E+03</pdfrwt>
<pdfrwt beam="2">  1       21 0.17539649E+00 0.31587686E+03</pdfrwt>
<totfact> 0.96975366E+04</totfact>
</mgrwt>
</event>
<event>
 8    1  0.9529436E-006  0.2873650E+03  0.7546771E-02  0.1091733E+00
         21   -1    0    0  504  503  0.00000000000E+00  0.00000000000E+00  0.57153397563E+03  0.57153397563E+03  0.00000000000E+00 0. -1.
         21   -1    0    0  503  504 -0.00000000000E+00 -0.00000000000E+00 -0.36121499080E+02  0.36121499080E+02  0.00000000000E+00 0. -1.
         25    2    1    2    0    0 -0.30565652604E+02 -0.34384578458E+02  0.38164202520E+03  0.40421838602E+03  0.12500123936E+03 0.  0.
         25    2    1    2    0    0  0.30565652604E+02  0.34384578458E+02  0.15377045136E+03  0.20343708870E+03  0.12499895597E+03 0.  0.
          5    1    3    3  501    0 -0.43267022535E+02 -0.38605435083E+02  0.64896558840E+02  0.87155425570E+02  0.47000000000E+01 0. -1.
         -5    1    3    3    0  501  0.12701369932E+02  0.42208566245E+01  0.31674546636E+03  0.31706296045E+03  0.47000000000E+01 0. -1.
          5    1    4    4  502    0  0.71013504124E+02 -0.92170237277E+01  0.67301194630E+02  0.98384003238E+02  0.47000000000E+01 0. -1.
         -5    1    4    4    0  502 -0.40447851521E+02  0.43601602186E+02  0.86469256727E+02  0.10505308546E+03  0.47000000000E+01 0. -1.
<mgrwt>
<rscale>  0 0.28736502E+03</rscale>
<asrwt>0</asrwt>
<pdfrwt beam="1">  1       21 0.87928297E-01 0.28736502E+03</pdfrwt>
<pdfrwt beam="2">  1       21 0.55571541E-02 0.28736502E+03</pdfrwt>
<totfact> 0.24267395E+05</totfact>
</mgrwt>
</event>
<event>
 8    1  0.9529436E-006  0.3151457E+03  0.7546771E-02  0.1077905E+00
         21   -1    0    0  504  503  0.00000000000E+00  0.00000000000E+00  0.12936469667E+03  0.12936469667E+03  0.00000000000E+00 0. -1.
         21   -1    0    0  503  504 -0.00000000000E+00 -0.00000000000E+00 -0.19193180928E+03  0.19193180928E+03  0.00000000000E+00 0. -1.
         25    2    1    2    0    0  0.70055739230E+02  0.48536035094E+02  0.13622613013E+02  0.15190040651E+03  0.12499841843E+03 0.  0.
         25    2    1    2    0    0 -0.70055739230E+02 -0.48536035094E+02 -0.76189725619E+02  0.16939609944E+03  0.12500644349E+03 0.  0.
          5    1    3    3  501    0 -0.23865314470E+02  0.37820096988E+02 -0.22886457131E+02  0.50455850909E+02  0.47000000000E+01 0. -1.
         -5    1    3    3    0  501  0.93921053699E+02  0.10715938106E+02  0.36509070145E+02  0.10144455560E+03  0.47000000000E+01 0. -1.
          5    1    4    4  502    0 -0.95438349567E+02 -0.55709035427E+02 -0.86779383525E+02  0.14058707836E+03  0.47000000000E+01 0.  1.
         -5    1    4    4    0  502  0.25382610337E+02  0.71730003327E+01  0.10589657906E+02  0.28809021085E+02  0.47000000000E+01 0.  1.
<mgrwt>
<rscale>  0 0.31514568E+03</rscale>
<asrwt>0</asrwt>
<pdfrwt beam="1">  1       21 0.19902261E-01 0.31514568E+03</pdfrwt>
<pdfrwt beam="2">  1       21 0.29527970E-01 0.31514568E+03</pdfrwt>
<totfact> 0.24855723E+05</totfact>
</mgrwt>
</event>
<event>
 8    1  0.9529436E-006  0.4111083E+03  0.7546771E-02  0.1040000E+00
         21   -1    0    0  504  503  0.00000000000E+00  0.00000000000E+00  0.37712211944E+03  0.37712211944E+03  0.00000000000E+00 0. -1.
         21   -1    0    0  503  504 -0.00000000000E+00 -0.00000000000E+00 -0.11203934204E+03  0.11203934204E+03  0.00000000000E+00 0. -1.
         25    2    1    2    0    0  0.12892431882E+03 -0.70188872679E+02  0.21731401477E+03  0.29051349459E+03  0.12499900676E+03 0.  0.
         25    2    1    2    0    0 -0.12892431882E+03  0.70188872679E+02  0.47768762642E+02  0.19864796689E+03  0.12502480648E+03 0.  0.
          5    1    3    3  501    0  0.16151202718E+02  0.25953886072E+02  0.89725661586E+02  0.94906532433E+02  0.47000000000E+01 0. -1.
         -5    1    3    3    0  501  0.11277311610E+03 -0.96142758751E+02  0.12758835318E+03  0.19560696215E+03  0.47000000000E+01 0. -1.
          5    1    4    4  502    0 -0.37516271248E+02  0.62720887806E+01  0.74566452407E+02  0.83839462848E+02  0.47000000000E+01 0.  1.
         -5    1    4    4    0  502 -0.91408047570E+02  0.63916783898E+02 -0.26797689765E+02  0.11480850405E+03  0.47000000000E+01 0.  1.
<mgrwt>
<rscale>  0 0.41110833E+03</rscale>
<asrwt>0</asrwt>
<pdfrwt beam="1">  1       21 0.58018787E-01 0.41110833E+03</pdfrwt>
<pdfrwt beam="2">  1       21 0.17236822E-01 0.41110833E+03</pdfrwt>
<totfact> 0.79242747E+04</totfact>
</mgrwt>
</event>
<event>
 8    1  0.9529436E-006  0.3749942E+03  0.7546771E-02  0.1052800E+00
         21   -1    0    0  504  503  0.00000000000E+00  0.00000000000E+00  0.70800260372E+02  0.70800260372E+02  0.00000000000E+00 0. -1.
         21   -1    0    0  503  504 -0.00000000000E+00 -0.00000000000E+00 -0.49653995377E+03  0.49653995377E+03  0.00000000000E+00 0. -1.
         25    2    1    2    0    0 -0.97128236101E+02 -0.80827189160E+02 -0.12255071907E+03  0.21589477851E+03  0.12499979155E+03 0.  0.
         25    2    1    2    0    0  0.97128236101E+02  0.80827189160E+02 -0.30318897433E+03  0.35144543564E+03  0.12499364512E+03 0.  0.
          5    1    3    3  501    0 -0.88867391551E+02  0.65126505835E+01 -0.52481692058E+02  0.10351930206E+03  0.47000000000E+01 0.  1.
         -5    1    3    3    0  501 -0.82608445495E+01 -0.87339839743E+02 -0.70069027016E+02  0.11237547644E+03  0.47000000000E+01 0.  1.
          5    1    4    4  502    0 -0.28561447538E+02  0.44075278603E+01 -0.35987503412E+02  0.46393674020E+02  0.47000000000E+01 0. -1.
         -5    1    4    4    0  502  0.12568968364E+03  0.76419661299E+02 -0.26720147092E+03  0.30505176162E+03  0.47000000000E+01 0. -1.
<mgrwt>
<rscale>  0 0.37499418E+03</rscale>
<asrwt>0</asrwt>
<pdfrwt beam="1">  1       21 0.10892348E-01 0.37499418E+03</pdfrwt>
<pdfrwt beam="2">  1       21 0.76390760E-01 0.37499418E+03</pdfrwt>
<totfact> 0.10062690E+05</totfact>
</mgrwt>
</event>
<event>
 8    1  0.9529436E-006  0.2519859E+03  0.7546771E-02  0.1112056E+00
         21   -1    0    0  504  503  0.00000000000E+00  0.00000000000E+00  0.27267317515E+02  0.27267317515E+02  0.00000000000E+00 0. -1.
         21   -1    0    0  503  504 -0.00000000000E+00 -0.00000000000E+00 -0.58217027543E+03  0.58217027543E+03  0.00000000000E+00 0. -1.
         25    2    1    2    0    0 -0.14492198376E+00  0.12727054372E+02 -0.29987326129E+03  0.32513374585E+03  0.12500392369E+03 0.  0.
         25    2    1    2    0    0  0.14492198376E+00 -0.12727054372E+02 -0.25502969662E+03  0.28430384709E+03  0.12500612944E+03 0.  0.
          5    1    3    3  501    0 -0.52246917627E+02  0.59695211797E+01 -0.23819465644E+03  0.24397573638E+03  0.47000000000E+01 0.  1.
         -5    1    3    3    0  501  0.52101995643E+02  0.67575331923E+01 -0.61678604853E+02  0.81158009472E+02  0.47000000000E+01 0.  1.
          5    1    4    4  502    0  0.35644144984E+01  0.39530245843E+02 -0.22422404380E+02  0.45827934771E+02  0.47000000000E+01 0.  1.
         -5    1    4    4    0  502 -0.34194925147E+01 -0.52257300215E+02 -0.23260729224E+03  0.23847591232E+03  0.47000000000E+01 0.  1.
<mgrwt>
<rscale>  0 0.25198589E+03</rscale>
<asrwt>0</asrwt>
<pdfrwt beam="1">  1       21 0.41949724E-02 0.25198589E+03</pdfrwt>
<pdfrwt beam="2">  1       21 0.89564647E-01 0.25198589E+03</pdfrwt>
<totfact> 0.37858201E+05</totfact>
</mgrwt>
</event>
<event>
 8    1  0.9529436E-006  0.3752966E+03  0.7546771E-02  0.1052686E+00
         21   -1    0    0  504  503  0.00000000000E+00  0.00000000000E+00  0.12097369832E+03  0.12097369832E+03  0.00000000000E+00 0. -1.
         21   -1    0    0  503  504 -0.00000000000E+00 -0.00000000000E+00 -0.29107062395E+03  0.29107062395E+03  0.00000000000E+00 0. -1.
         25    2    1    2    0    0 -0.53386969269E+02 -0.11232832059E+03 -0.14584868188E+02  0.17693319991E+03  0.12499927503E+03 0.  0.
         25    2    1    2    0    0  0.53386969269E+02  0.11232832059E+03 -0.15551205744E+03  0.23511112236E+03  0.12500167900E+03 0.  0.
          5    1    3    3  501    0 -0.41689565864E+01 -0.54113826252E+02  0.52219367180E+02  0.75462829919E+02  0.47000000000E+01 0. -1.
         -5    1    3    3    0  501 -0.49218012683E+02 -0.58214494336E+02 -0.66804235368E+02  0.10147036999E+03  0.47000000000E+01 0. -1.
          5    1    4    4  502    0 -0.24100944321E+02  0.92683445543E+02 -0.77084726180E+02  0.12302528848E+03  0.47000000000E+01 0. -1.
         -5    1    4    4    0  502  0.77487913590E+02  0.19644875045E+02 -0.78427331260E+02  0.11208583388E+03  0.47000000000E+01 0. -1.
<mgrwt>
<rscale>  0 0.37529663E+03</rscale>
<asrwt>0</asrwt>
<pdfrwt beam="1">  1       21 0.18611338E-01 0.37529663E+03</pdfrwt>
<pdfrwt beam="2">  1       21 0.44780096E-01 0.37529663E+03</pdfrwt>
<totfact> 0.11996388E+05</totfact>
</mgrwt>
</event>
<event>
 8    1  0.9529436E-006  0.3553749E+03  0.7546771E-02  0.1060430E+00
         21   -1    0    0  504  503  0.00000000000E+00  0.00000000000E+00  0.14331989572E+02  0.14331989572E+02  0.00000000000E+00 0.  1.
         21   -1    0    0  503  504 -0.00000000000E+00 -0.00000000000E+00 -0.22029622151E+04  0.22029622151E+04  0.00000000000E+00 0.  1.
         25    2    1    2    0    0  0.31987506142E+02 -0.47321667123E+02 -0.17970328046E+04  0.18022803428E+04  0.12499997038E+03 0.  0.
         25    2    1    2    0    0 -0.31987506142E+02  0.47321667123E+02 -0.39159742095E+03  0.41501386187E+03  0.12500169887E+03 0.  0.
          5    1    3    3  501    0 -0.28373717323E+02 -0.67688986040E+02 -0.97162372279E+03  0.97440320984E+03  0.47000000000E+01 0.  1.
         -5    1    3    3    0  501  0.60361223465E+02  0.20367318916E+02 -0.82540908178E+03  0.82787713295E+03  0.47000000000E+01 0.  1.
          5    1    4    4  502    0 -0.43893605153E+02  0.71058152421E+02 -0.37297445974E+03  0.38224069278E+03  0.47000000000E+01 0.  1.
         -5    1    4    4    0  502  0.11906099011E+02 -0.23736485297E+02 -0.18622961211E+02  0.32773169090E+02  0.47000000000E+01 0.  1.
<mgrwt>
<rscale>  0 0.35537491E+03</rscale>
<asrwt>0</asrwt>
<pdfrwt beam="1">  1       21 0.22049211E-02 0.35537491E+03</pdfrwt>
<pdfrwt beam="2">  1       21 0.33891732E+00 0.35537491E+03</pdfrwt>
<totfact> 0.18759564E+04</totfact>
</mgrwt>
</event>
<event>
 8    1  0.9529436E-006  0.2700120E+03  0.7546771E-02  0.1101273E+00
         21   -1    0    0  504  503  0.00000000000E+00  0.00000000000E+00  0.24610798502E+03  0.24610798502E+03  0.00000000000E+00 0. -1.
         21   -1    0    0  503  504 -0.00000000000E+00 -0.00000000000E+00 -0.74059427507E+02  0.74059427507E+02  0.00000000000E+00 0. -1.
         25    2    1    2    0    0  0.25037326828E+02 -0.44088760932E+02  0.79322462452E+02  0.15647894790E+03  0.12499168577E+03 0.  0.
         25    2    1    2    0    0 -0.25037326828E+02  0.44088760932E+02  0.92726095058E+02  0.16368846462E+03  0.12500039268E+03 0.  0.
          5    1    3    3  501    0  0.49923288080E+01  0.39102293921E+02  0.54177281250E+02  0.67165322454E+02  0.47000000000E+01 0.  1.
         -5    1    3    3    0  501  0.20044998020E+02 -0.83191054853E+02  0.25145181202E+02  0.89313625449E+02  0.47000000000E+01 0.  1.
          5    1    4    4  502    0 -0.24776922235E+02  0.86830824013E+02  0.51193293323E+02  0.10390539522E+03  0.47000000000E+01 0.  1.
         -5    1    4    4    0  502 -0.26040459312E+00 -0.42742063081E+02  0.41532801735E+02  0.59783069401E+02  0.47000000000E+01 0.  1.
<mgrwt>
<rscale>  0 0.27001197E+03</rscale>
<asrwt>0</asrwt>
<pdfrwt beam="1">  1       21 0.37862767E-01 0.27001197E+03</pdfrwt>
<pdfrwt beam="2">  1       21 0.11393758E-01 0.27001197E+03</pdfrwt>
<totfact> 0.42612624E+05</totfact>
</mgrwt>
</event>
<event>
 8    1  0.9529436E-006  0.2804733E+03  0.7546771E-02  0.1095431E+00
         21   -1    0    0  504  503  0.00000000000E+00  0.00000000000E+00  0.61387284789E+02  0.61387284789E+02  0.00000000000E+00 0.  1.
         21   -1    0    0  503  504 -0.00000000000E+00 -0.00000000000E+00 -0.32036474851E+03  0.32036474851E+03  0.00000000000E+00 0.  1.
         25    2    1    2    0    0  0.63043343588E+02  0.48831300657E+01 -0.13861087989E+03  0.19706917932E+03  0.12499990914E+03 0.  0.
         25    2    1    2    0    0 -0.63043343588E+02 -0.48831300657E+01 -0.12036658383E+03  0.18468285398E+03  0.12498533482E+03 0.  0.
          5    1    3    3  501    0  0.99369682498E+02  0.16502014667E+02 -0.10950711611E+03  0.14886419572E+03  0.47000000000E+01 0. -1.
         -5    1    3    3    0  501 -0.36326338910E+02 -0.11618884602E+02 -0.29103763774E+02  0.48204983599E+02  0.47000000000E+01 0. -1.
          5    1    4    4  502    0 -0.69998848298E+02 -0.19132763587E+02 -0.14075523874E+03  0.15842988556E+03  0.47000000000E+01 0. -1.
         -5    1    4    4    0  502  0.69555047106E+01  0.14249633521E+02  0.20388654915E+02  0.26252968413E+02  0.47000000000E+01 0. -1.
<mgrwt>
<rscale>  0 0.28047333E+03</rscale>
<asrwt>0</asrwt>
<pdfrwt beam="1">  1       21 0.94441978E-02 0.28047333E+03</pdfrwt>
<pdfrwt beam="2">  1       21 0.49286884E-01 0.28047333E+03</pdfrwt>
<totfact> 0.34536450E+05</totfact>
</mgrwt>
</event>
<event>
 8    1  0.9529436E-006  0.3264077E+03  0.7546771E-02  0.1072738E+00
         21   -1    0    0  504  503  0.00000000000E+00  0.00000000000E+00  0.82795676414E+02  0.82795676414E+02  0.00000000000E+00 0.  1.
         21   -1    0    0  503  504 -0.00000000000E+00 -0.00000000000E+00 -0.32170144717E+03  0.32170144717E+03  0.00000000000E+00 0.  1.
         25    2    1    2    0    0  0.44493860688E+02 -0.59621926080E+02 -0.21117577489E+03  0.25642714895E+03  0.12500078844E+03 0.  0.
         25    2    1    2    0    0 -0.44493860688E+02  0.59621926080E+02 -0.27729995861E+02  0.14806997463E+03  0.12498514715E+03 0.  0.
          5    1    3    3  501    0  0.69742758151E+02 -0.49306644396E+01 -0.55351386126E+02  0.89298542610E+02  0.47000000000E+01 0.  1.
         -5    1    3    3    0  501 -0.25248897462E+02 -0.54691261640E+02 -0.15582438877E+03  0.16712860634E+03  0.47000000000E+01 0.  1.
          5    1    4    4  502    0  0.12725958131E+01 -0.73044952708E+00  0.43626053046E+02  0.43903024509E+02  0.47000000000E+01 0.  1.
         -5    1    4    4    0  502 -0.45766456502E+02  0.60352375607E+02 -0.71356048907E+02  0.10416695012E+03  0.47000000000E+01 0.  1.
<mgrwt>
<rscale>  0 0.32640765E+03</rscale>
<asrwt>0</asrwt>
<pdfrwt beam="1">  1       21 0.12737796E-01 0.32640765E+03</pdfrwt>
<pdfrwt beam="2">  1       21 0.49492530E-01 0.32640765E+03</pdfrwt>
<totfact> 0.19816816E+05</totfact>
</mgrwt>
</event>
<event>
 8    1  0.9529436E-006  0.2688504E+03  0.7546771E-02  0.1101939E+00
         21   -1    0    0  504  503  0.00000000000E+00  0.00000000000E+00  0.88710833787E+03  0.88710833787E+03  0.00000000000E+00 0. -1.
         21   -1    0    0  503  504 -0.00000000000E+00 -0.00000000000E+00 -0.20369698838E+02  0.20369698838E+02  0.00000000000E+00 0. -1.
         25    2    1    2    0    0 -0.16318703446E+02 -0.40991520113E+02  0.50878867762E+03  0.52577337273E+03  0.12500046476E+03 0.  0.
         25    2    1    2    0    0  0.16318703446E+02  0.40991520113E+02  0.35794996141E+03  0.38170466398E+03  0.12499468319E+03 0.  0.
          5    1    3    3  501    0 -0.30785625661E+02  0.36379985257E+02  0.12268920510E+03  0.13170417276E+03  0.47000000000E+01 0.  1.
         -5    1    3    3    0  501  0.14466922215E+02 -0.77371505370E+02  0.38609947253E+03  0.39406919997E+03  0.47000000000E+01 0.  1.
          5    1    4    4  502    0  0.22278519376E+02 -0.35635212040E+02  0.56484716550E+02  0.70560711210E+02  0.47000000000E+01 0. -1.
         -5    1    4    4    0  502 -0.59598159301E+01  0.76626732153E+02  0.30146524486E+03  0.31114395277E+03  0.47000000000E+01 0. -1.
<mgrwt>
<rscale>  0 0.26885036E+03</rscale>
<asrwt>0</asrwt>
<pdfrwt beam="1">  1       21 0.13647818E+00 0.26885036E+03</pdfrwt>
<pdfrwt beam="2">  1       21 0.31338005E-02 0.26885036E+03</pdfrwt>
<totfact> 0.21909232E+05</totfact>
</mgrwt>
</event>
<event>
 8    1  0.9529436E-006  0.3569563E+03  0.7546771E-02  0.1059796E+00
         21   -1    0    0  504  503  0.00000000000E+00  0.00000000000E+00  0.60078914367E+02  0.60078914367E+02  0.00000000000E+00 0. -1.
         21   -1    0    0  503  504 -0.00000000000E+00 -0.00000000000E+00 -0.53021012707E+03  0.53021012707E+03  0.00000000000E+00 0. -1.
         25    2    1    2    0    0  0.11904886073E+02  0.12455600459E+03 -0.27441708409E+03  0.32647322880E+03  0.12499643393E+03 0.  0.
         25    2    1    2    0    0 -0.11904886073E+02 -0.12455600459E+03 -0.19571412861E+03  0.26381581263E+03  0.12505534080E+03 0.  0.
          5    1    3    3  501    0  0.33902309149E+02  0.13772596184E+03 -0.18397763163E+03  0.23235246087E+03  0.47000000000E+01 0. -1.
         -5    1    3    3    0  501 -0.21997423076E+02 -0.13169957253E+02 -0.90439452458E+02  0.94120767937E+02  0.47000000000E+01 0. -1.
          5    1    4    4  502    0 -0.24838116730E+02  0.67077752248E+01 -0.92904505950E+02  0.96515612814E+02  0.47000000000E+01 0. -1.
         -5    1    4    4    0  502  0.12933230656E+02 -0.13126377981E+03 -0.10280962266E+03  0.16730019982E+03  0.47000000000E+01 0. -1.
<mgrwt>
<rscale>  0 0.35695629E+03</rscale>
<asrwt>0</asrwt>
<pdfrwt beam="1">  1       21 0.92429097E-02 0.35695629E+03</pdfrwt>
<pdfrwt beam="2">  1       21 0.81570790E-01 0.35695629E+03</pdfrwt>
<totfact> 0.11667801E+05</totfact>
</mgrwt>
</event>
<event>
 8    1  0.9529436E-006  0.3022867E+03  0.7546771E-02  0.1084103E+00
         21   -1    0    0  504  503  0.00000000000E+00  0.00000000000E+00  0.78469504686E+02  0.78469504686E+02  0.00000000000E+00 0.  1.
         21   -1    0    0  503  504 -0.00000000000E+00 -0.00000000000E+00 -0.29112343547E+03  0.29112343547E+03  0.00000000000E+00 0.  1.
         25    2    1    2    0    0 -0.70276880019E+01 -0.31749558236E+01 -0.28739212751E+01  0.12527406256E+03  0.12500345029E+03 0.  0.
         25    2    1    2    0    0  0.70276880019E+01  0.31749558236E+01 -0.20978000951E+03  0.24431887760E+03  0.12499837126E+03 0.  0.
          5    1    3    3  501    0  0.20414574863E+02  0.36454776359E+02  0.41869889943E+02  0.59337031187E+02  0.47000000000E+01 0.  1.
         -5    1    3    3    0  501 -0.27442262865E+02 -0.39629732183E+02 -0.44743811218E+02  0.65937031373E+02  0.47000000000E+01 0.  1.
          5    1    4    4  502    0 -0.30665714773E+01  0.46281956518E+02 -0.18993743307E+03  0.19557541216E+03  0.47000000000E+01 0. -1.
         -5    1    4    4    0  502  0.10094259479E+02 -0.43107000695E+02 -0.19842576444E+02  0.48743465442E+02  0.47000000000E+01 0. -1.
<mgrwt>
<rscale>  0 0.30228670E+03</rscale>
<asrwt>0</asrwt>
<pdfrwt beam="1">  1       21 0.12072232E-01 0.30228670E+03</pdfrwt>
<pdfrwt beam="2">  1       21 0.44788221E-01 0.30228670E+03</pdfrwt>
<totfact> 0.27049956E+05</totfact>
</mgrwt>
</event>
<event>
 8    1  0.9529436E-006  0.3081015E+03  0.7546771E-02  0.1081259E+00
         21   -1    0    0  504  503  0.00000000000E+00  0.00000000000E+00  0.40932412783E+02  0.40932412783E+02  0.00000000000E+00 0.  1.
         21   -1    0    0  503  504 -0.00000000000E+00 -0.00000000000E+00 -0.57977617255E+03  0.57977617255E+03  0.00000000000E+00 0.  1.
         25    2    1    2    0    0 -0.63630142866E+02  0.28426386841E+02 -0.38431080972E+03  0.41009412340E+03  0.12500214809E+03 0.  0.
         25    2    1    2    0    0  0.63630142866E+02 -0.28426386841E+02 -0.15453295005E+03  0.21061446194E+03  0.12498465656E+03 0.  0.
          5    1    3    3  501    0 -0.35875211435E+02  0.22885590475E+02 -0.37838385560E+03  0.38079812660E+03  0.47000000000E+01 0. -1.
         -5    1    3    3    0  501 -0.27754931432E+02  0.55407963669E+01 -0.59269541245E+01  0.29295996797E+02  0.47000000000E+01 0. -1.
          5    1    4    4  502    0 -0.11147840343E+02 -0.13651321295E+02 -0.12871329250E+03  0.12999936378E+03  0.47000000000E+01 0.  1.
         -5    1    4    4    0  502  0.74777983210E+02 -0.14775065546E+02 -0.25819657551E+02  0.80615098157E+02  0.47000000000E+01 0.  1.
<mgrwt>
<rscale>  0 0.30810153E+03</rscale>
<asrwt>0</asrwt>
<pdfrwt beam="1">  1       21 0.62972942E-02 0.30810153E+03</pdfrwt>
<pdfrwt beam="2">  1       21 0.89196335E-01 0.30810153E+03</pdfrwt>
<totfact> 0.18819445E+05</totfact>
</mgrwt>
</event>
<event>
 8    1  0.9529436E-006  0.2816666E+03  0.7546771E-02  0.1094782E+00
         21   -1    0    0  504  503  0.00000000000E+00  0.00000000000E+00  0.12062836647E+03  0.12062836647E+03  0.00000000000E+00 0. -1.
         21   -1    0    0  503  504 -0.00000000000E+00 -0.00000000000E+00 -0.16442251206E+03  0.16442251206E+03  0.00000000000E+00 0. -1.
         25    2    1    2    0    0  0.42228482222E+02  0.48250132711E+02 -0.11867575238E+02  0.14098443567E+03  0.12499780695E+03 0.  0.
         25    2    1    2    0    0 -0.42228482222E+02 -0.48250132711E+02 -0.31926570352E+02  0.14406644287E+03  0.12499805618E+03 0.  0.
          5    1    3    3  501    0  0.82771266442E+02  0.23988697857E+02 -0.28164421484E+02  0.90784716835E+02  0.47000000000E+01 0.  1.
         -5    1    3    3    0  501 -0.40542784220E+02  0.24261434854E+02  0.16296846245E+02  0.50199718834E+02  0.47000000000E+01 0.  1.
          5    1    4    4  502    0 -0.41816965634E+02 -0.40568873298E+02 -0.77802660151E+02  0.97313082482E+02  0.47000000000E+01 0. -1.
         -5    1    4    4    0  502 -0.41151658812E+00 -0.76812594129E+01  0.45876089799E+02  0.46753360385E+02  0.47000000000E+01 0. -1.
<mgrwt>
<rscale>  0 0.28166660E+03</rscale>
<asrwt>0</asrwt>
<pdfrwt beam="1">  1       21 0.18558210E-01 0.28166660E+03</pdfrwt>
<pdfrwt beam="2">  1       21 0.25295771E-01 0.28166660E+03</pdfrwt>
<totfact> 0.38562842E+05</totfact>
</mgrwt>
</event>
<event>
 8    1  0.9529436E-006  0.4091440E+03  0.7546771E-02  0.1040659E+00
         21   -1    0    0  504  503  0.00000000000E+00  0.00000000000E+00  0.20095190895E+03  0.20095190895E+03  0.00000000000E+00 0.  1.
         21   -1    0    0  503  504 -0.00000000000E+00 -0.00000000000E+00 -0.20825727926E+03  0.20825727926E+03  0.00000000000E+00 0.  1.
         25    2    1    2    0    0  0.37105580987E+02  0.80752795682E+02 -0.13904766098E+03  0.20702403566E+03  0.12500744444E+03 0.  0.
         25    2    1    2    0    0 -0.37105580987E+02 -0.80752795682E+02  0.13174229067E+03  0.20218515256E+03  0.12499986645E+03 0.  0.
          5    1    3    3  501    0  0.51191604314E+02  0.11223591021E+01 -0.66983267939E+01  0.51853617271E+02  0.47000000000E+01 0. -1.
         -5    1    3    3    0  501 -0.14086023328E+02  0.79630436580E+02 -0.13234933419E+03  0.15517041839E+03  0.47000000000E+01 0. -1.
          5    1    4    4  502    0 -0.51572061881E+02 -0.53332540709E+02  0.14891169659E+03  0.16643563575E+03  0.47000000000E+01 0. -1.
         -5    1    4    4    0  502  0.14466480894E+02 -0.27420254972E+02 -0.17169405922E+02  0.35749516807E+02  0.47000000000E+01 0. -1.
<mgrwt>
<rscale>  0 0.40914397E+03</rscale>
<asrwt>0</asrwt>
<pdfrwt beam="1">  1       21 0.30915678E-01 0.40914397E+03</pdfrwt>
<pdfrwt beam="2">  1       21 0.32039581E-01 0.40914397E+03</pdfrwt>
<totfact> 0.88377540E+04</totfact>
</mgrwt>
</event>
<event>
 8    1  0.9529436E-006  0.3035536E+03  0.7546771E-02  0.1083478E+00
         21   -1    0    0  504  503  0.00000000000E+00  0.00000000000E+00  0.50937879087E+02  0.50937879087E+02  0.00000000000E+00 0. -1.
         21   -1    0    0  503  504 -0.00000000000E+00 -0.00000000000E+00 -0.45224110086E+03  0.45224110086E+03  0.00000000000E+00 0. -1.
         25    2    1    2    0    0 -0.71863083565E+02 -0.18383919616E+02 -0.27304716328E+03  0.30933029487E+03  0.12501282601E+03 0.  0.
         25    2    1    2    0    0  0.71863083565E+02  0.18383919616E+02 -0.12825605849E+03  0.19384868508E+03  0.12500169954E+03 0.  0.
          5    1    3    3  501    0 -0.75090039405E+02 -0.49139331645E+02 -0.26061175346E+03  0.27566966459E+03  0.47000000000E+01 0. -1.
         -5    1    3    3    0  501  0.32269558401E+01  0.30755412030E+02 -0.12435409816E+02  0.33660630274E+02  0.47000000000E+01 0. -1.
          5    1    4    4  502    0  0.10455223636E+03  0.31769772754E+01 -0.11401973328E+03  0.15480262559E+03  0.47000000000E+01 0.  1.
         -5    1    4    4    0  502 -0.32689152798E+02  0.15206942340E+02 -0.14236325211E+02  0.39046059488E+02  0.47000000000E+01 0.  1.
<mgrwt>
<rscale>  0 0.30355364E+03</rscale>
<asrwt>0</asrwt>
<pdfrwt beam="1">  1       21 0.78365966E-02 0.30355364E+03</pdfrwt>
<pdfrwt beam="2">  1       21 0.69575556E-01 0.30355364E+03</pdfrwt>
<totfact> 0.22676153E+05</totfact>
</mgrwt>
</event>
<event>
 8    1  0.9529436E-006  0.2922380E+03  0.7546771E-02  0.1089186E+00
         21   -1    0    0  504  503  0.00000000000E+00  0.00000000000E+00  0.25069422962E+03  0.25069422962E+03  0.00000000000E+00 0. -1.
         21   -1    0    0  503  504 -0.00000000000E+00 -0.00000000000E+00 -0.85166548129E+02  0.85166548129E+02  0.00000000000E+00 0. -1.
         25    2    1    2    0    0 -0.35422350705E+02  0.94568989770E+01  0.66854557142E+01  0.13043383772E+03  0.12499645930E+03 0.  0.
         25    2    1    2    0    0  0.35422350705E+02 -0.94568989770E+01  0.15884222577E+03  0.20542694003E+03  0.12500079653E+03 0.  0.
          5    1    3    3  501    0  0.70131308340E+00  0.55881736066E+02  0.33811289049E+02  0.65487048590E+02  0.47000000000E+01 0.  1.
         -5    1    3    3    0  501 -0.36123663788E+02 -0.46424837089E+02 -0.27125833335E+02  0.64946789131E+02  0.47000000000E+01 0.  1.
          5    1    4    4  502    0  0.72006668509E+02 -0.21036775281E+02  0.50916481096E+02  0.90785925513E+02  0.47000000000E+01 0. -1.
         -5    1    4    4    0  502 -0.36584317804E+02  0.11579876304E+02  0.10792574468E+03  0.11464101451E+03  0.47000000000E+01 0. -1.
<mgrwt>
<rscale>  0 0.29223800E+03</rscale>
<asrwt>0</asrwt>
<pdfrwt beam="1">  1       21 0.38568343E-01 0.29223800E+03</pdfrwt>
<pdfrwt beam="2">  1       21 0.13102546E-01 0.29223800E+03</pdfrwt>
<totfact> 0.31755080E+05</totfact>
</mgrwt>
</event>
<event>
 8    1  0.9529436E-006  0.3247781E+03  0.7546771E-02  0.1073471E+00
         21   -1    0    0  504  503  0.00000000000E+00  0.00000000000E+00  0.70576889136E+02  0.70576889136E+02  0.00000000000E+00 0. -1.
         21   -1    0    0  503  504 -0.00000000000E+00 -0.00000000000E+00 -0.37363795451E+03  0.37363795451E+03  0.00000000000E+00 0. -1.
         25    2    1    2    0    0 -0.46109101072E+02 -0.72159055309E+02 -0.23142683222E+03  0.27661710950E+03  0.12500267250E+03 0.  0.
         25    2    1    2    0    0  0.46109101072E+02  0.72159055309E+02 -0.71634233154E+02  0.16759773414E+03  0.12499823465E+03 0.  0.
          5    1    3    3  501    0 -0.67086924987E+02  0.84585931737E+01 -0.11250890774E+03  0.13134895365E+03  0.47000000000E+01 0.  1.
         -5    1    3    3    0  501  0.20977823915E+02 -0.80617648483E+02 -0.11891792447E+03  0.14526815585E+03  0.47000000000E+01 0.  1.
          5    1    4    4  502    0 -0.35280915434E+02  0.15458719287E+02  0.88174519017E+01  0.39793874577E+02  0.47000000000E+01 0.  1.
         -5    1    4    4    0  502  0.81390016506E+02  0.56700336022E+02 -0.80451685056E+02  0.12780385957E+03  0.47000000000E+01 0.  1.
<mgrwt>
<rscale>  0 0.32477811E+03</rscale>
<asrwt>0</asrwt>
<pdfrwt beam="1">  1       21 0.10857983E-01 0.32477811E+03</pdfrwt>
<pdfrwt beam="2">  1       21 0.57482764E-01 0.32477811E+03</pdfrwt>
<totfact> 0.19226095E+05</totfact>
</mgrwt>
</event>
<event>
 8    1  0.9529436E-006  0.4203912E+03  0.7546771E-02  0.1036939E+00
         21   -1    0    0  504  503  0.00000000000E+00  0.00000000000E+00  0.13012086497E+03  0.13012086497E+03  0.00000000000E+00 0.  1.
         21   -1    0    0  503  504 -0.00000000000E+00 -0.00000000000E+00 -0.33954727936E+03  0.33954727936E+03  0.00000000000E+00 0.  1.
         25    2    1    2    0    0 -0.92908026273E+02 -0.57537805310E+02  0.39296201376E+02  0.17061774199E+03  0.12499488811E+03 0.  0.
         25    2    1    2    0    0  0.92908026273E+02  0.57537805310E+02 -0.24872261577E+03  0.29905040234E+03  0.12500281260E+03 0.  0.
          5    1    3    3  501    0 -0.17564366339E+02  0.37248109936E+02 -0.46762703771E+01  0.41711942694E+02  0.47000000000E+01 0. -1.
         -5    1    3    3    0  501 -0.75343659934E+02 -0.94785915245E+02  0.43972471753E+02  0.12890579930E+03  0.47000000000E+01 0. -1.
          5    1    4    4  502    0  0.98806519223E+02  0.46281805238E+02 -0.25962515801E+03  0.28165945112E+03  0.47000000000E+01 0. -1.
         -5    1    4    4    0  502 -0.58984929505E+01  0.11256000072E+02  0.10902542242E+02  0.17390951211E+02  0.47000000000E+01 0. -1.
<mgrwt>
<rscale>  0 0.42039118E+03</rscale>
<asrwt>0</asrwt>
<pdfrwt beam="1">  1       21 0.20018595E-01 0.42039118E+03</pdfrwt>
<pdfrwt beam="2">  1       21 0.52238042E-01 0.42039118E+03</pdfrwt>
<totfact> 0.74775191E+04</totfact>
</mgrwt>
</event>
<event>
 8    1  0.9529436E-006  0.2715562E+03  0.7546771E-02  0.1100392E+00
         21   -1    0    0  504  503  0.00000000000E+00  0.00000000000E+00  0.20208538300E+02  0.20208538300E+02  0.00000000000E+00 0. -1.
         21   -1    0    0  503  504 -0.00000000000E+00 -0.00000000000E+00 -0.91227244792E+03  0.91227244792E+03  0.00000000000E+00 0. -1.
         25    2    1    2    0    0 -0.34811384871E+02  0.37199194937E+02 -0.49630373417E+03  0.51433426105E+03  0.12500689146E+03 0.  0.
         25    2    1    2    0    0  0.34811384871E+02 -0.37199194937E+02 -0.39576017544E+03  0.41814672517E+03  0.12499981873E+03 0.  0.
          5    1    3    3  501    0  0.13614673270E+02  0.53776357011E+02 -0.41091230952E+03  0.41466645875E+03  0.47000000000E+01 0.  1.
         -5    1    3    3    0  501 -0.48426058141E+02 -0.16577162073E+02 -0.85391424657E+02  0.99667802296E+02  0.47000000000E+01 0.  1.
          5    1    4    4  502    0  0.31845155344E+02  0.23004328399E+02 -0.36484157185E+02  0.53819111564E+02  0.47000000000E+01 0.  1.
         -5    1    4    4    0  502  0.29662295267E+01 -0.60203523337E+02 -0.35927601826E+03  0.36432761360E+03  0.47000000000E+01 0.  1.
<mgrwt>
<rscale>  0 0.27155620E+03</rscale>
<asrwt>0</asrwt>
<pdfrwt beam="1">  1       21 0.31090052E-02 0.27155620E+03</pdfrwt>
<pdfrwt beam="2">  1       21 0.14034964E+00 0.27155620E+03</pdfrwt>
<totfact> 0.20623411E+05</totfact>
</mgrwt>
</event>
<event>
 8    1  0.9529436E-006  0.3126650E+03  0.7546771E-02  0.1079075E+00
         21   -1    0    0  504  503  0.00000000000E+00  0.00000000000E+00  0.93936821215E+03  0.93936821215E+03  0.00000000000E+00 0. -1.
         21   -1    0    0  503  504 -0.00000000000E+00 -0.00000000000E+00 -0.26017326434E+02  0.26017326434E+02  0.00000000000E+00 0. -1.
         25    2    1    2    0    0 -0.34009985057E+02  0.34920724388E+02  0.20894881832E+03  0.24831585922E+03  0.12500008475E+03 0.  0.
         25    2    1    2    0    0  0.34009985057E+02 -0.34920724388E+02  0.70440206739E+03  0.71706967936E+03  0.12502206379E+03 0.  0.
          5    1    3    3  501    0 -0.17692358524E+01 -0.24994256590E+02 -0.29950694458E+01  0.25669115664E+02  0.47000000000E+01 0.  1.
         -5    1    3    3    0  501 -0.32240749204E+02  0.59914980977E+02  0.21194388776E+03  0.22264674355E+03  0.47000000000E+01 0.  1.
          5    1    4    4  502    0  0.55809117258E+02  0.17020630257E+02  0.17226220777E+03  0.18193602625E+03  0.47000000000E+01 0. -1.
         -5    1    4    4    0  502 -0.21799132201E+02 -0.51941354645E+02  0.53213985962E+03  0.53513365311E+03  0.47000000000E+01 0. -1.
<mgrwt>
<rscale>  0 0.31266499E+03</rscale>
<asrwt>0</asrwt>
<pdfrwt beam="1">  1       21 0.14451816E+00 0.31266499E+03</pdfrwt>
<pdfrwt beam="2">  1       21 0.40026663E-02 0.31266499E+03</pdfrwt>
<totfact> 0.12329353E+05</totfact>
</mgrwt>
</event>
<event>
 8    1  0.9529436E-006  0.3337637E+03  0.7546771E-02  0.1069484E+00
         21   -1    0    0  504  503  0.00000000000E+00  0.00000000000E+00  0.41775352927E+02  0.41775352927E+02  0.00000000000E+00 0.  1.
         21   -1    0    0  503  504 -0.00000000000E+00 -0.00000000000E+00 -0.66665037990E+03  0.66665037990E+03  0.00000000000E+00 0.  1.
         25    2    1    2    0    0  0.83498543752E+02 -0.61698299000E+02 -0.23175192565E+03  0.28304277125E+03  0.12500227361E+03 0.  0.
         25    2    1    2    0    0 -0.83498543752E+02  0.61698299000E+02 -0.39312310133E+03  0.42538296158E+03  0.12500481709E+03 0.  0.
          5    1    3    3  501    0  0.85632049489E+02 -0.67468215223E+02 -0.24471670527E+03  0.26794246361E+03  0.47000000000E+01 0.  1.
         -5    1    3    3    0  501 -0.21335057362E+01  0.57699162226E+01  0.12964779629E+02  0.15100307638E+02  0.47000000000E+01 0.  1.
          5    1    4    4  502    0  0.17995053143E+02  0.68522346208E+01 -0.49883920770E+01  0.20438911724E+02  0.47000000000E+01 0.  1.
         -5    1    4    4    0  502 -0.10149359690E+03  0.54846064380E+02 -0.38813470925E+03  0.40494404986E+03  0.47000000000E+01 0.  1.
<mgrwt>
<rscale>  0 0.33376372E+03</rscale>
<asrwt>0</asrwt>
<pdfrwt beam="1">  1       21 0.64269780E-02 0.33376372E+03</pdfrwt>
<pdfrwt beam="2">  1       21 0.10256159E+00 0.33376372E+03</pdfrwt>
<totfact> 0.12944592E+05</totfact>
</mgrwt>
</event>
<event>
 8    1  0.9529436E-006  0.3011606E+03  0.7546771E-02  0.1084662E+00
         21   -1    0    0  504  503  0.00000000000E+00  0.00000000000E+00  0.56252021071E+02  0.56252021071E+02  0.00000000000E+00 0. -1.
         21   -1    0    0  503  504 -0.00000000000E+00 -0.00000000000E+00 -0.40308636266E+03  0.40308636266E+03  0.00000000000E+00 0. -1.
         25    2    1    2    0    0 -0.48551096101E+02  0.54919917999E+02 -0.23591486605E+03  0.27685290344E+03  0.12497319631E+03 0.  0.
         25    2    1    2    0    0  0.48551096101E+02 -0.54919917999E+02 -0.11091947554E+03  0.18248548029E+03  0.12499765652E+03 0.  0.
          5    1    3    3  501    0  0.42106353472E+02  0.10159162801E+02 -0.75817049985E+02  0.87444088765E+02  0.47000000000E+01 0.  1.
         -5    1    3    3    0  501 -0.90657449574E+02  0.44760755198E+02 -0.16009781606E+03  0.18940881468E+03  0.47000000000E+01 0.  1.
          5    1    4    4  502    0 -0.41259927175E+02 -0.17177147702E+02 -0.20149906269E+02  0.49249819455E+02  0.47000000000E+01 0.  1.
         -5    1    4    4    0  502  0.89811023277E+02 -0.37742770298E+02 -0.90769569271E+02  0.13323566083E+03  0.47000000000E+01 0.  1.
<mgrwt>
<rscale>  0 0.30116057E+03</rscale>
<asrwt>0</asrwt>
<pdfrwt beam="1">  1       21 0.86541571E-02 0.30116057E+03</pdfrwt>
<pdfrwt beam="2">  1       21 0.62013286E-01 0.30116057E+03</pdfrwt>
<totfact> 0.24553306E+05</totfact>
</mgrwt>
</event>
<event>
 8    1  0.9529436E-006  0.3918719E+03  0.7546771E-02  0.1046631E+00
         21   -1    0    0  504  503  0.00000000000E+00  0.00000000000E+00  0.28570884625E+03  0.28570884625E+03  0.00000000000E+00 0.  1.
         21   -1    0    0  503  504 -0.00000000000E+00 -0.00000000000E+00 -0.13437066213E+03  0.13437066213E+03  0.00000000000E+00 0.  1.
         25    2    1    2    0    0 -0.12643141670E+02  0.35991659190E+02 -0.80824608701E+02  0.15366126802E+03  0.12499567735E+03 0.  0.
         25    2    1    2    0    0  0.12643141670E+02 -0.35991659190E+02  0.23216279282E+03  0.26641824035E+03  0.12499547137E+03 0.  0.
          5    1    3    3  501    0 -0.39465781018E+02 -0.25281664581E+02 -0.71988083824E+02  0.86029556828E+02  0.47000000000E+01 0.  1.
         -5    1    3    3    0  501  0.26822639348E+02  0.61273323770E+02 -0.88365248768E+01  0.67631711196E+02  0.47000000000E+01 0.  1.
          5    1    4    4  502    0 -0.34422433354E+02 -0.60763376151E+02  0.17354273017E+03  0.18712632363E+03  0.47000000000E+01 0. -1.
         -5    1    4    4    0  502  0.47065575024E+02  0.24771716962E+02  0.58620062648E+02  0.79291916728E+02  0.47000000000E+01 0. -1.
<mgrwt>
<rscale>  0 0.39187185E+03</rscale>
<asrwt>0</asrwt>
<pdfrwt beam="1">  1       21 0.43955207E-01 0.39187185E+03</pdfrwt>
<pdfrwt beam="2">  1       21 0.20672410E-01 0.39187185E+03</pdfrwt>
<totfact> 0.10185369E+05</totfact>
</mgrwt>
</event>
<event>
 8    1  0.9529436E-006  0.3404472E+03  0.7546771E-02  0.1066606E+00
         21   -1    0    0  504  503  0.00000000000E+00  0.00000000000E+00  0.77343536913E+03  0.77343536913E+03  0.00000000000E+00 0. -1.
         21   -1    0    0  503  504 -0.00000000000E+00 -0.00000000000E+00 -0.37464122081E+02  0.37464122081E+02  0.00000000000E+00 0. -1.
         25    2    1    2    0    0 -0.11537053803E+03 -0.25111552360E+01  0.38244037113E+03  0.41857131011E+03  0.12499854892E+03 0.  0.
         25    2    1    2    0    0  0.11537053803E+03  0.25111552360E+01  0.35353087592E+03  0.39232818111E+03  0.12498261685E+03 0.  0.
          5    1    3    3  501    0 -0.25362487329E+02  0.43030383472E+02  0.23212657958E+03  0.23748622825E+03  0.47000000000E+01 0.  1.
         -5    1    3    3    0  501 -0.90008050700E+02 -0.45541538708E+02  0.15031379155E+03  0.18108508185E+03  0.47000000000E+01 0.  1.
          5    1    4    4  502    0  0.10025082901E+02  0.52246884219E+02  0.10455068970E+03  0.11740177134E+03  0.47000000000E+01 0. -1.
         -5    1    4    4    0  502  0.10534545513E+03 -0.49735728983E+02  0.24898018622E+03  0.27492640976E+03  0.47000000000E+01 0. -1.
<mgrwt>
<rscale>  0 0.34044722E+03</rscale>
<asrwt>0</asrwt>
<pdfrwt beam="1">  1       21 0.11899004E+00 0.34044722E+03</pdfrwt>
<pdfrwt beam="2">  1       21 0.57637117E-02 0.34044722E+03</pdfrwt>
<totfact> 0.10823191E+05</totfact>
</mgrwt>
</event>
<event>
 8    1  0.9529436E-006  0.2771166E+03  0.7546771E-02  0.1097274E+00
         21   -1    0    0  504  503  0.00000000000E+00  0.00000000000E+00  0.62774977488E+02  0.62774977488E+02  0.00000000000E+00 0. -1.
         21   -1    0    0  503  504 -0.00000000000E+00 -0.00000000000E+00 -0.30582888795E+03  0.30582888795E+03  0.00000000000E+00 0. -1.
         25    2    1    2    0    0  0.25976284281E+01  0.16293662413E+02 -0.45111802424E+02  0.13391059783E+03  0.12499896954E+03 0.  0.
         25    2    1    2    0    0 -0.25976284281E+01 -0.16293662413E+02 -0.19794210804E+03  0.23469326761E+03  0.12501048202E+03 0.  0.
          5    1    3    3  501    0  0.18035232129E+02 -0.97091448855E+01  0.39056531173E+02  0.44351321509E+02  0.47000000000E+01 0.  1.
         -5    1    3    3    0  501 -0.15437603700E+02  0.26002807298E+02 -0.84168333597E+02  0.89559276326E+02  0.47000000000E+01 0.  1.
          5    1    4    4  502    0 -0.62546814835E+00 -0.67872988433E+02 -0.14717916721E+03  0.16214478416E+03  0.47000000000E+01 0.  1.
         -5    1    4    4    0  502 -0.19721602798E+01  0.51579326020E+02 -0.50762940835E+02  0.72548483451E+02  0.47000000000E+01 0.  1.
<mgrwt>
<rscale>  0 0.27711659E+03</rscale>
<asrwt>0</asrwt>
<pdfrwt beam="1">  1       21 0.96576888E-02 0.27711659E+03</pdfrwt>
<pdfrwt beam="2">  1       21 0.47050598E-01 0.27711659E+03</pdfrwt>
<totfact> 0.36603283E+05</totfact>
</mgrwt>
</event>
<event>
 8    1  0.9529436E-006  0.2656249E+03  0.7546771E-02  0.1103810E+00
         21   -1    0    0  504  503  0.00000000000E+00  0.00000000000E+00  0.54175644704E+02  0.54175644704E+02  0.00000000000E+00 0.  1.
         21   -1    0    0  503  504 -0.00000000000E+00 -0.00000000000E+00 -0.32559178201E+03  0.32559178201E+03  0.00000000000E+00 0.  1.
         25    2    1    2    0    0 -0.34294187955E+02 -0.86132206143E+01 -0.96181520189E+02  0.16163300866E+03  0.12499626301E+03 0.  0.
         25    2    1    2    0    0  0.34294187955E+02  0.86132206143E+01 -0.17523461711E+03  0.21813441805E+03  0.12500069762E+03 0.  0.
          5    1    3    3  501    0 -0.60519294040E+02 -0.44485956721E+02 -0.28379141865E+02  0.80430410850E+02  0.47000000000E+01 0. -1.
         -5    1    3    3    0  501  0.26225106085E+02  0.35872736107E+02 -0.67802378324E+02  0.81202597812E+02  0.47000000000E+01 0. -1.
          5    1    4    4  502    0  0.55099809051E+02  0.15357825289E+02 -0.18501991991E+03  0.19371709403E+03  0.47000000000E+01 0.  1.
         -5    1    4    4    0  502 -0.20805621096E+02 -0.67446046746E+01  0.97853027988E+01  0.24417324019E+02  0.47000000000E+01 0.  1.
<mgrwt>
<rscale>  0 0.26562488E+03</rscale>
<asrwt>0</asrwt>
<pdfrwt beam="1">  1       21 0.83347143E-02 0.26562488E+03</pdfrwt>
<pdfrwt beam="2">  1       21 0.50091045E-01 0.26562488E+03</pdfrwt>
<totfact> 0.41746112E+05</totfact>
</mgrwt>
</event>
<event>
 8    1  0.9529436E-006  0.3102892E+03  0.7546771E-02  0.1080207E+00
         21   -1    0    0  504  503  0.00000000000E+00  0.00000000000E+00  0.14464916151E+04  0.14464916151E+04  0.00000000000E+00 0. -1.
         21   -1    0    0  503  504 -0.00000000000E+00 -0.00000000000E+00 -0.16640161126E+02  0.16640161126E+02  0.00000000000E+00 0. -1.
         25    2    1    2    0    0  0.77019629286E+01  0.49788072944E+02  0.35253859842E+03  0.37742114808E+03  0.12500034880E+03 0.  0.
         25    2    1    2    0    0 -0.77019629286E+01 -0.49788072944E+02  0.10773128556E+04  0.10857106282E+04  0.12500562743E+03 0.  0.
          5    1    3    3  501    0 -0.19818856712E+02  0.80289571496E+02  0.29602293852E+03  0.30739367675E+03  0.47000000000E+01 0.  1.
         -5    1    3    3    0  501  0.27520819640E+02 -0.30501498552E+02  0.56515659900E+02  0.70027471334E+02  0.47000000000E+01 0.  1.
          5    1    4    4  502    0 -0.35016732021E+02  0.31058248139E+02  0.48275984414E+03  0.48504633120E+03  0.47000000000E+01 0. -1.
         -5    1    4    4    0  502  0.27314769092E+02 -0.80846321083E+02  0.59455301145E+03  0.60066429698E+03  0.47000000000E+01 0. -1.
<mgrwt>
<rscale>  0 0.31028924E+03</rscale>
<asrwt>0</asrwt>
<pdfrwt beam="1">  1       21 0.22253707E+00 0.31028924E+03</pdfrwt>
<pdfrwt beam="2">  1       21 0.25600259E-02 0.31028924E+03</pdfrwt>
<totfact> 0.74934946E+04</totfact>
</mgrwt>
</event>
<event>
 8    1  0.9529436E-006  0.2944017E+03  0.7546771E-02  0.1088073E+00
         21   -1    0    0  504  503  0.00000000000E+00  0.00000000000E+00  0.48163105107E+02  0.48163105107E+02  0.00000000000E+00 0. -1.
         21   -1    0    0  503  504 -0.00000000000E+00 -0.00000000000E+00 -0.44988986525E+03  0.44988986525E+03  0.00000000000E+00 0. -1.
         25    2    1    2    0    0 -0.25300040331E+02  0.24890578292E+02 -0.31788055255E+03  0.34341187554E+03  0.12499615054E+03 0.  0.
         25    2    1    2    0    0  0.25300040331E+02 -0.24890578292E+02 -0.83846207599E+02  0.15464109481E+03  0.12499619493E+03 0.  0.
          5    1    3    3  501    0 -0.58510197453E+02  0.14684377180E+02 -0.29591917302E+03  0.30204191944E+03  0.47000000000E+01 0. -1.
         -5    1    3    3    0  501  0.33210157121E+02  0.10206201112E+02 -0.21961379523E+02  0.41369956100E+02  0.47000000000E+01 0. -1.
          5    1    4    4  502    0  0.16220864387E+02 -0.68805893201E+02 -0.15119378708E+02  0.72443446862E+02  0.47000000000E+01 0.  1.
         -5    1    4    4    0  502  0.90791759437E+01  0.43915314909E+02 -0.68726828890E+02  0.82197647951E+02  0.47000000000E+01 0.  1.
<mgrwt>
<rscale>  0 0.29440172E+03</rscale>
<asrwt>0</asrwt>
<pdfrwt beam="1">  1       21 0.74097085E-02 0.29440172E+03</pdfrwt>
<pdfrwt beam="2">  1       21 0.69213825E-01 0.29440172E+03</pdfrwt>
<totfact> 0.25358132E+05</totfact>
</mgrwt>
</event>
<event>
 8    1  0.9529436E-006  0.3022396E+03  0.7546771E-02  0.1084126E+00
         21   -1    0    0  504  503  0.00000000000E+00  0.00000000000E+00  0.67419025297E+02  0.67419025297E+02  0.00000000000E+00 0. -1.
         21   -1    0    0  503  504 -0.00000000000E+00 -0.00000000000E+00 -0.33873508363E+03  0.33873508363E+03  0.00000000000E+00 0. -1.
         25    2    1    2    0    0  0.10133455795E+02  0.73265741258E+01 -0.24854977387E+03  0.27849334559E+03  0.12500075133E+03 0.  0.
         25    2    1    2    0    0 -0.10133455795E+02 -0.73265741258E+01 -0.22766284466E+02  0.12766076334E+03  0.12499040432E+03 0.  0.
          5    1    3    3  501    0 -0.40614810832E+02  0.96254280356E+01 -0.21101780383E+03  0.21515765210E+03  0.47000000000E+01 0.  1.
         -5    1    3    3    0  501  0.50748266627E+02 -0.22988539098E+01 -0.37531970039E+02  0.63335693491E+02  0.47000000000E+01 0.  1.
          5    1    4    4  502    0 -0.11385665887E+02 -0.59041239376E+02  0.16520158616E+02  0.62534046530E+02  0.47000000000E+01 0.  1.
         -5    1    4    4    0  502  0.12522100919E+01  0.51714665250E+02 -0.39286443082E+02  0.65126716807E+02  0.47000000000E+01 0.  1.
<mgrwt>
<rscale>  0 0.30223957E+03</rscale>
<asrwt>0</asrwt>
<pdfrwt beam="1">  1       21 0.10372158E-01 0.30223957E+03</pdfrwt>
<pdfrwt beam="2">  1       21 0.52113090E-01 0.30223957E+03</pdfrwt>
<totfact> 0.25865545E+05</totfact>
</mgrwt>
</event>
<event>
 8    1  0.9529436E-006  0.4179273E+03  0.7546771E-02  0.1037743E+00
         21   -1    0    0  504  503  0.00000000000E+00  0.00000000000E+00  0.55191005199E+02  0.55191005199E+02  0.00000000000E+00 0. -1.
         21   -1    0    0  503  504 -0.00000000000E+00 -0.00000000000E+00 -0.79117603293E+03  0.79117603293E+03  0.00000000000E+00 0. -1.
         25    2    1    2    0    0 -0.13329370360E+03  0.61372851072E+02 -0.20462283910E+03  0.28111851757E+03  0.12499310531E+03 0.  0.
         25    2    1    2    0    0  0.13329370360E+03 -0.61372851072E+02 -0.53136218863E+03  0.56524852056E+03  0.12500510477E+03 0.  0.
          5    1    3    3  501    0 -0.83739909223E+02 -0.23904099407E+02 -0.13337019113E+03  0.15935330636E+03  0.47000000000E+01 0.  1.
         -5    1    3    3    0  501 -0.49553794373E+02  0.85276950478E+02 -0.71252647972E+02  0.12176521122E+03  0.47000000000E+01 0.  1.
          5    1    4    4  502    0  0.83779443928E+02 -0.92861391508E+02 -0.43192984496E+03  0.44969735848E+03  0.47000000000E+01 0. -1.
         -5    1    4    4    0  502  0.49514259667E+02  0.31488540436E+02 -0.99432343676E+02  0.11555116208E+03  0.47000000000E+01 0. -1.
<mgrwt>
<rscale>  0 0.41792727E+03</rscale>
<asrwt>0</asrwt>
<pdfrwt beam="1">  1       21 0.84909240E-02 0.41792727E+03</pdfrwt>
<pdfrwt beam="2">  1       21 0.12171939E+00 0.41792727E+03</pdfrwt>
<totfact> 0.50789779E+04</totfact>
</mgrwt>
</event>
<event>
 8    1  0.9529436E-006  0.2579259E+03  0.7546771E-02  0.1108396E+00
         21   -1    0    0  504  503  0.00000000000E+00  0.00000000000E+00  0.10616457972E+04  0.10616457972E+04  0.00000000000E+00 0.  1.
         21   -1    0    0  503  504 -0.00000000000E+00 -0.00000000000E+00 -0.15665711317E+02  0.15665711317E+02  0.00000000000E+00 0.  1.
         25    2    1    2    0    0 -0.57067182093E+00  0.31752166964E+02  0.52009359753E+03  0.53584257677E+03  0.12498556366E+03 0.  0.
         25    2    1    2    0    0  0.57067182093E+00 -0.31752166964E+02  0.52588648838E+03  0.54146893176E+03  0.12499391839E+03 0.  0.
          5    1    3    3  501    0 -0.42133850123E+02 -0.30592850643E+02  0.25605619681E+03  0.26133895569E+03  0.47000000000E+01 0. -1.
         -5    1    3    3    0  501  0.41563178302E+02  0.62345017607E+02  0.26403740071E+03  0.27450362108E+03  0.47000000000E+01 0. -1.
          5    1    4    4  502    0 -0.53281353811E+01  0.44941022883E+02  0.28346710923E+03  0.28709541372E+03  0.47000000000E+01 0.  1.
         -5    1    4    4    0  502  0.58988072020E+01 -0.76693189846E+02  0.24241937915E+03  0.25437351804E+03  0.47000000000E+01 0.  1.
<mgrwt>
<rscale>  0 0.25792585E+03</rscale>
<asrwt>0</asrwt>
<pdfrwt beam="1">  1       21 0.16333007E+00 0.25792585E+03</pdfrwt>
<pdfrwt beam="2">  1       21 0.24101103E-02 0.25792585E+03</pdfrwt>
<totfact> 0.21059237E+05</totfact>
</mgrwt>
</event>
<event>
 8    1  0.9529436E-006  0.4153866E+03  0.7546771E-02  0.1038578E+00
         21   -1    0    0  504  503  0.00000000000E+00  0.00000000000E+00  0.17918334085E+03  0.17918334085E+03  0.00000000000E+00 0. -1.
         21   -1    0    0  503  504 -0.00000000000E+00 -0.00000000000E+00 -0.24073953494E+03  0.24073953494E+03  0.00000000000E+00 0. -1.
         25    2    1    2    0    0 -0.16575915895E+03 -0.43597477707E+01 -0.35238381819E+02  0.21060692104E+03  0.12497369907E+03 0.  0.
         25    2    1    2    0    0  0.16575915895E+03  0.43597477707E+01 -0.26317812268E+02  0.20931595475E+03  0.12500174196E+03 0.  0.
          5    1    3    3  501    0 -0.17871750843E+03 -0.23695257251E+02 -0.43410900002E+02  0.18549396022E+03  0.47000000000E+01 0.  1.
         -5    1    3    3    0  501  0.12958349480E+02  0.19335509481E+02  0.81725181833E+01  0.25112960828E+02  0.47000000000E+01 0.  1.
          5    1    4    4  502    0  0.86754559457E+02 -0.14081122943E+02 -0.74091736938E+02  0.11504915077E+03  0.47000000000E+01 0. -1.
         -5    1    4    4    0  502  0.79004599498E+02  0.18440870714E+02  0.47773924670E+02  0.94266803981E+02  0.47000000000E+01 0. -1.
<mgrwt>
<rscale>  0 0.41538664E+03</rscale>
<asrwt>0</asrwt>
<pdfrwt beam="1">  1       21 0.27566668E-01 0.41538664E+03</pdfrwt>
<pdfrwt beam="2">  1       21 0.37036851E-01 0.41538664E+03</pdfrwt>
<totfact> 0.82664351E+04</totfact>
</mgrwt>
</event>
<event>
 8    1  0.9529436E-006  0.3859836E+03  0.7546771E-02  0.1048744E+00
         21   -1    0    0  504  503  0.00000000000E+00  0.00000000000E+00  0.75130637715E+03  0.75130637715E+03  0.00000000000E+00 0. -1.
         21   -1    0    0  503  504 -0.00000000000E+00 -0.00000000000E+00 -0.49574755234E+02  0.49574755234E+02  0.00000000000E+00 0. -1.
         25    2    1    2    0    0  0.45536240071E+02 -0.13731530035E+03  0.29629535174E+03  0.35262528996E+03  0.12499847513E+03 0.  0.
         25    2    1    2    0    0 -0.45536240071E+02  0.13731530035E+03  0.40543627018E+03  0.44825584243E+03  0.12500276086E+03 0.  0.
          5    1    3    3  501    0  0.41134490533E+02 -0.16773041091E+02  0.16014737324E+02  0.47454641821E+02  0.47000000000E+01 0.  1.
         -5    1    3    3    0  501  0.44017495377E+01 -0.12054225926E+03  0.28028061442E+03  0.30517064814E+03  0.47000000000E+01 0.  1.
          5    1    4    4  502    0 -0.49155641680E+02  0.15868624487E+03  0.37839434150E+03  0.41328194868E+03  0.47000000000E+01 0. -1.
         -5    1    4    4    0  502  0.36194016090E+01 -0.21370944519E+02  0.27041928674E+02  0.34973893750E+02  0.47000000000E+01 0. -1.
<mgrwt>
<rscale>  0 0.38598357E+03</rscale>
<asrwt>0</asrwt>
<pdfrwt beam="1">  1       21 0.11558559E+00 0.38598357E+03</pdfrwt>
<pdfrwt beam="2">  1       21 0.76268860E-02 0.38598357E+03</pdfrwt>
<totfact> 0.70535303E+04</totfact>
</mgrwt>
</event>
<event>
 8    1  0.9529436E-006  0.2710576E+03  0.7546771E-02  0.1100676E+00
         21   -1    0    0  504  503  0.00000000000E+00  0.00000000000E+00  0.52658901073E+02  0.52658901073E+02  0.00000000000E+00 0.  1.
         21   -1    0    0  503  504 -0.00000000000E+00 -0.00000000000E+00 -0.34881201576E+03  0.34881201576E+03  0.00000000000E+00 0.  1.
         25    2    1    2    0    0  0.44587871501E+02 -0.16846577396E+02 -0.11588646771E+03  0.17698685708E+03  0.12499115458E+03 0.  0.
         25    2    1    2    0    0 -0.44587871501E+02  0.16846577396E+02 -0.18026664698E+03  0.22448405976E+03  0.12500057447E+03 0.  0.
          5    1    3    3  501    0 -0.31543687064E+01  0.69099460487E+01  0.24853308194E+02  0.26409739198E+02  0.47000000000E+01 0.  1.
         -5    1    3    3    0  501  0.47742240207E+02 -0.23756523445E+02 -0.14073977591E+03  0.15057711788E+03  0.47000000000E+01 0.  1.
          5    1    4    4  502    0 -0.14384794105E+02  0.18210269439E+02  0.14210600438E+02  0.27614622563E+02  0.47000000000E+01 0. -1.
         -5    1    4    4    0  502 -0.30203077396E+02 -0.13636920425E+01 -0.19447724741E+03  0.19686943720E+03  0.47000000000E+01 0. -1.
<mgrwt>
<rscale>  0 0.27105761E+03</rscale>
<asrwt>0</asrwt>
<pdfrwt beam="1">  1       21 0.81013690E-02 0.27105761E+03</pdfrwt>
<pdfrwt beam="2">  1       21 0.53663390E-01 0.27105761E+03</pdfrwt>
<totfact> 0.37894807E+05</totfact>
</mgrwt>
</event>
<event>
 8    1  0.9529436E-006  0.3478462E+03  0.7546771E-02  0.1063503E+00
         21   -1    0    0  504  503  0.00000000000E+00  0.00000000000E+00  0.39688542110E+03  0.39688542110E+03  0.00000000000E+00 0. -1.
         21   -1    0    0  503  504 -0.00000000000E+00 -0.00000000000E+00 -0.76216557582E+02  0.76216557582E+02  0.00000000000E+00 0. -1.
         25    2    1    2    0    0 -0.33242289042E+02  0.11511950606E+03  0.13816132018E+03  0.22152457116E+03  0.12500813885E+03 0.  0.
         25    2    1    2    0    0  0.33242289042E+02 -0.11511950606E+03  0.18250754334E+03  0.25157740752E+03  0.12499855256E+03 0.  0.
          5    1    3    3  501    0  0.33039955464E+02  0.44929948980E+02  0.39166140983E+01  0.56104980513E+02  0.47000000000E+01 0. -1.
         -5    1    3    3    0  501 -0.66282244505E+02  0.70189557081E+02  0.13424470608E+03  0.16541959065E+03  0.47000000000E+01 0. -1.
          5    1    4    4  502    0  0.33361753699E+02 -0.39343988267E+02 -0.22315483450E+01  0.51846174696E+02  0.47000000000E+01 0. -1.
         -5    1    4    4    0  502 -0.11946465755E+00 -0.75775517794E+02  0.18473909168E+03  0.19973123282E+03  0.47000000000E+01 0. -1.
<mgrwt>
<rscale>  0 0.34784618E+03</rscale>
<asrwt>0</asrwt>
<pdfrwt beam="1">  1       21 0.61059294E-01 0.34784618E+03</pdfrwt>
<pdfrwt beam="2">  1       21 0.11725624E-01 0.34784618E+03</pdfrwt>
<totfact> 0.14607033E+05</totfact>
</mgrwt>
</event>
<event>
 8    1  0.9529436E-006  0.3664274E+03  0.7546771E-02  0.1056067E+00
         21   -1    0    0  504  503  0.00000000000E+00  0.00000000000E+00  0.35614527154E+03  0.35614527154E+03  0.00000000000E+00 0. -1.
         21   -1    0    0  503  504 -0.00000000000E+00 -0.00000000000E+00 -0.94251592405E+02  0.94251592405E+02  0.00000000000E+00 0. -1.
         25    2    1    2    0    0  0.65075877805E+02 -0.74231760415E+02  0.19667922010E+02  0.16049393107E+03  0.12500500241E+03 0.  0.
         25    2    1    2    0    0 -0.65075877805E+02  0.74231760415E+02  0.24222575713E+03  0.28990293288E+03  0.12500067580E+03 0.  0.
          5    1    3    3  501    0  0.45414397066E+02 -0.10823746881E+03  0.28521400636E+01  0.11750762451E+03  0.47000000000E+01 0.  1.
         -5    1    3    3    0  501  0.19661480739E+02  0.34005708399E+02  0.16815781946E+02  0.42986306553E+02  0.47000000000E+01 0.  1.
          5    1    4    4  502    0  0.95447429314E+01 -0.69893850275E+00 -0.11075384086E+02  0.15373508556E+02  0.47000000000E+01 0. -1.
         -5    1    4    4    0  502 -0.74620620736E+02  0.74930698917E+02  0.25330114121E+03  0.27452942432E+03  0.47000000000E+01 0. -1.
<mgrwt>
<rscale>  0 0.36642740E+03</rscale>
<asrwt>0</asrwt>
<pdfrwt beam="1">  1       21 0.54791580E-01 0.36642740E+03</pdfrwt>
<pdfrwt beam="2">  1       21 0.14500245E-01 0.36642740E+03</pdfrwt>
<totfact> 0.12482946E+05</totfact>
</mgrwt>
</event>
<event>
 8    1  0.9529436E-006  0.3992683E+03  0.7546771E-02  0.1044033E+00
         21   -1    0    0  504  503  0.00000000000E+00  0.00000000000E+00  0.15854849575E+04  0.15854849575E+04  0.00000000000E+00 0.  1.
         21   -1    0    0  503  504 -0.00000000000E+00 -0.00000000000E+00 -0.25136655785E+02  0.25136655785E+02  0.00000000000E+00 0.  1.
         25    2    1    2    0    0 -0.16331092556E+02 -0.10779650758E+03  0.33203307915E+03  0.37115756927E+03  0.12500073579E+03 0.  0.
         25    2    1    2    0    0  0.16331092556E+02  0.10779650758E+03  0.12283152225E+04  0.12394640440E+04  0.12500415506E+03 0.  0.
          5    1    3    3  501    0  0.17349752815E+02  0.23751332212E+02  0.52818023050E+02  0.60638051284E+02  0.47000000000E+01 0. -1.
         -5    1    3    3    0  501 -0.33680845371E+02 -0.13154783979E+03  0.27921505610E+03  0.31051951799E+03  0.47000000000E+01 0. -1.
          5    1    4    4  502    0  0.51146884597E+02  0.16708867638E+02  0.22421301884E+03  0.23062688022E+03  0.47000000000E+01 0.  1.
         -5    1    4    4    0  502 -0.34815792042E+02  0.91087639945E+02  0.10041022037E+04  0.10088371638E+04  0.47000000000E+01 0.  1.
<mgrwt>
<rscale>  0 0.39926828E+03</rscale>
<asrwt>0</asrwt>
<pdfrwt beam="1">  1       21 0.24392068E+00 0.39926828E+03</pdfrwt>
<pdfrwt beam="2">  1       21 0.38671791E-02 0.39926828E+03</pdfrwt>
<totfact> 0.26635151E+04</totfact>
</mgrwt>
</event>
<event>
 8    1  0.9529436E-006  0.3120765E+03  0.7546771E-02  0.1079355E+00
         21   -1    0    0  504  503  0.00000000000E+00  0.00000000000E+00  0.17192415660E+04  0.17192415660E+04  0.00000000000E+00 0. -1.
         21   -1    0    0  503  504 -0.00000000000E+00 -0.00000000000E+00 -0.14162019977E+02  0.14162019977E+02  0.00000000000E+00 0. -1.
         25    2    1    2    0    0 -0.37121530532E+02 -0.74852467349E+02  0.10842968104E+04  0.10946718464E+04  0.12500391286E+03 0.  0.
         25    2    1    2    0    0  0.37121530532E+02  0.74852467349E+02  0.62078273565E+03  0.63873173966E+03  0.12500452181E+03 0.  0.
          5    1    3    3  501    0  0.88720108194E+01 -0.98147016440E+01  0.77876979165E+03  0.77889634698E+03  0.47000000000E+01 0.  1.
         -5    1    3    3    0  501 -0.45993541351E+02 -0.65037765705E+02  0.30552701877E+03  0.31577549939E+03  0.47000000000E+01 0.  1.
          5    1    4    4  502    0 -0.28876658755E+02  0.78089776274E+02  0.31457329210E+03  0.32543865886E+03  0.47000000000E+01 0. -1.
         -5    1    4    4    0  502  0.65998189287E+02 -0.32373089253E+01  0.30620944354E+03  0.31329308080E+03  0.47000000000E+01 0. -1.
<mgrwt>
<rscale>  0 0.31207649E+03</rscale>
<asrwt>0</asrwt>
<pdfrwt beam="1">  1       21 0.26449854E+00 0.31207649E+03</pdfrwt>
<pdfrwt beam="2">  1       21 0.21787737E-02 0.31207649E+03</pdfrwt>
<totfact> 0.54304640E+04</totfact>
</mgrwt>
</event>
<event>
 8    1  0.9529436E-006  0.3068416E+03  0.7546771E-02  0.1081870E+00
         21   -1    0    0  504  503  0.00000000000E+00  0.00000000000E+00  0.26884789340E+03  0.26884789340E+03  0.00000000000E+00 0. -1.
         21   -1    0    0  503  504 -0.00000000000E+00 -0.00000000000E+00 -0.87551140575E+02  0.87551140575E+02  0.00000000000E+00 0. -1.
         25    2    1    2    0    0 -0.15954621633E+02 -0.26936432576E+02 -0.60156990141E+01  0.12900345057E+03  0.12500232108E+03 0.  0.
         25    2    1    2    0    0  0.15954621633E+02  0.26936432576E+02  0.18731245184E+03  0.22739558340E+03  0.12507068155E+03 0.  0.
          5    1    3    3  501    0 -0.10164750107E+02  0.17189739094E+02  0.51902560167E+02  0.55810169564E+02  0.47000000000E+01 0. -1.
         -5    1    3    3    0  501 -0.57898715257E+01 -0.44126171670E+02 -0.57918259181E+02  0.73193281011E+02  0.47000000000E+01 0. -1.
          5    1    4    4  502    0 -0.17010090286E+02  0.16370217389E+02 -0.10687765602E+02  0.26337150994E+02  0.47000000000E+01 0. -1.
         -5    1    4    4    0  502  0.32964711919E+02  0.10566215187E+02  0.19800021744E+03  0.20105843241E+03  0.47000000000E+01 0. -1.
<mgrwt>
<rscale>  0 0.30684159E+03</rscale>
<asrwt>0</asrwt>
<pdfrwt beam="1">  1       21 0.41361214E-01 0.30684159E+03</pdfrwt>
<pdfrwt beam="2">  1       21 0.13469406E-01 0.30684159E+03</pdfrwt>
<totfact> 0.26105582E+05</totfact>
</mgrwt>
</event>
<event>
 8    1  0.9529436E-006  0.3365000E+03  0.7546771E-02  0.1068297E+00
         21   -1    0    0  504  503  0.00000000000E+00  0.00000000000E+00  0.14046841261E+03  0.14046841261E+03  0.00000000000E+00 0. -1.
         21   -1    0    0  503  504 -0.00000000000E+00 -0.00000000000E+00 -0.20152613492E+03  0.20152613492E+03  0.00000000000E+00 0. -1.
         25    2    1    2    0    0 -0.89659800174E+02 -0.33678997986E+02  0.29680095844E+02  0.16024760747E+03  0.12500093175E+03 0.  0.
         25    2    1    2    0    0  0.89659800174E+02  0.33678997986E+02 -0.90737818155E+02  0.18174694007E+03  0.12500177562E+03 0.  0.
          5    1    3    3  501    0 -0.32977941826E+02 -0.78332005968E+02  0.14164116750E+02  0.86291135172E+02  0.47000000000E+01 0.  1.
         -5    1    3    3    0  501 -0.56681858348E+02  0.44653007982E+02  0.15515979094E+02  0.73956472299E+02  0.47000000000E+01 0.  1.
          5    1    4    4  502    0  0.73638361100E+02  0.64964993349E+02 -0.16789144444E+02  0.99734768047E+02  0.47000000000E+01 0. -1.
         -5    1    4    4    0  502  0.16021439074E+02 -0.31285995363E+02 -0.73948673710E+02  0.82012172020E+02  0.47000000000E+01 0. -1.
<mgrwt>
<rscale>  0 0.33649996E+03</rscale>
<asrwt>0</asrwt>
<pdfrwt beam="1">  1       21 0.21610525E-01 0.33649996E+03</pdfrwt>
<pdfrwt beam="2">  1       21 0.31004020E-01 0.33649996E+03</pdfrwt>
<totfact> 0.19226237E+05</totfact>
</mgrwt>
</event>
<event>
 8    1  0.9529436E-006  0.2527556E+03  0.7546771E-02  0.1111576E+00
         21   -1    0    0  504  503  0.00000000000E+00  0.00000000000E+00  0.15864202573E+02  0.15864202573E+02  0.00000000000E+00 0.  1.
         21   -1    0    0  503  504 -0.00000000000E+00 -0.00000000000E+00 -0.10067538583E+04  0.10067538583E+04  0.00000000000E+00 0.  1.
         25    2    1    2    0    0  0.16101283820E+02 -0.78409951076E+01 -0.47390714606E+03  0.49044153933E+03  0.12499675144E+03 0.  0.
         25    2    1    2    0    0 -0.16101283820E+02  0.78409951076E+01 -0.51698250969E+03  0.53217652157E+03  0.12498080747E+03 0.  0.
          5    1    3    3  501    0  0.39630223779E+02  0.46386660679E+02 -0.31369605948E+03  0.31960848652E+03  0.47000000000E+01 0. -1.
         -5    1    3    3    0  501 -0.23528939960E+02 -0.54227655787E+02 -0.16021108658E+03  0.17083305281E+03  0.47000000000E+01 0. -1.
          5    1    4    4  502    0  0.13532917379E+02  0.50705422908E+02 -0.40684201589E+03  0.41023980263E+03  0.47000000000E+01 0. -1.
         -5    1    4    4    0  502 -0.29634201198E+02 -0.42864427800E+02 -0.11014049380E+03  0.12193671894E+03  0.47000000000E+01 0. -1.
<mgrwt>
<rscale>  0 0.25275559E+03</rscale>
<asrwt>0</asrwt>
<pdfrwt beam="1">  1       21 0.24406464E-02 0.25275559E+03</pdfrwt>
<pdfrwt beam="2">  1       21 0.15488522E+00 0.25275559E+03</pdfrwt>
<totfact> 0.23875084E+05</totfact>
</mgrwt>
</event>
<event>
 8    1  0.9529436E-006  0.9028577E+03  0.7546771E-02  0.9422016E-01
         21   -1    0    0  504  503  0.00000000000E+00  0.00000000000E+00  0.48854426891E+03  0.48854426891E+03  0.00000000000E+00 0.  1.
         21   -1    0    0  503  504 -0.00000000000E+00 -0.00000000000E+00 -0.41713310898E+03  0.41713310898E+03  0.00000000000E+00 0.  1.
         25    2    1    2    0    0 -0.39376268752E+03 -0.17077957422E+03  0.98738647665E+02  0.45780896989E+03  0.12500006123E+03 0.  0.
         25    2    1    2    0    0  0.39376268752E+03  0.17077957422E+03 -0.27327487736E+02  0.44786840800E+03  0.12499840897E+03 0.  0.
          5    1    3    3  501    0 -0.21266522524E+03 -0.26507701896E+02  0.31548616837E+02  0.21667155215E+03  0.47000000000E+01 0. -1.
         -5    1    3    3    0  501 -0.18109746228E+03 -0.14427187233E+03  0.67190030828E+02  0.24113741774E+03  0.47000000000E+01 0. -1.
          5    1    4    4  502    0  0.24655211196E+03  0.39937230712E+02 -0.22163012480E+02  0.25079117893E+03  0.47000000000E+01 0. -1.
         -5    1    4    4    0  502  0.14721057557E+03  0.13084234351E+03 -0.51644752561E+01  0.19707722907E+03  0.47000000000E+01 0. -1.
<mgrwt>
<rscale>  0 0.90285766E+03</rscale>
<asrwt>0</asrwt>
<pdfrwt beam="1">  1       21 0.75160657E-01 0.90285766E+03</pdfrwt>
<pdfrwt beam="2">  1       21 0.64174325E-01 0.90285766E+03</pdfrwt>
<totfact> 0.27730836E+03</totfact>
</mgrwt>
</event>
<event>
 8    1  0.9529436E-006  0.2590894E+03  0.7546771E-02  0.1107692E+00
         21   -1    0    0  504  503  0.00000000000E+00  0.00000000000E+00  0.70351734700E+03  0.70351734700E+03  0.00000000000E+00 0.  1.
         21   -1    0    0  503  504 -0.00000000000E+00 -0.00000000000E+00 -0.23854185565E+02  0.23854185565E+02  0.00000000000E+00 0.  1.
         25    2    1    2    0    0 -0.37933918682E+01 -0.11263164792E+02  0.42926378099E+03  0.44725271739E+03  0.12500540322E+03 0.  0.
         25    2    1    2    0    0  0.37933918682E+01  0.11263164792E+02  0.25039938044E+03  0.28011881518E+03  0.12500180874E+03 0.  0.
          5    1    3    3  501    0  0.23814643822E+02  0.51217450266E+02  0.21275485446E+03  0.22017511796E+03  0.47000000000E+01 0.  1.
         -5    1    3    3    0  501 -0.27608035690E+02 -0.62480615058E+02  0.21650892654E+03  0.22707759943E+03  0.47000000000E+01 0.  1.
          5    1    4    4  502    0 -0.34518831992E+02 -0.35198323385E+02  0.18313858892E+03  0.18971637906E+03  0.47000000000E+01 0. -1.
         -5    1    4    4    0  502  0.38312223860E+02  0.46461488178E+02  0.67260791526E+02  0.90402436126E+02  0.47000000000E+01 0. -1.
<mgrwt>
<rscale>  0 0.25908943E+03</rscale>
<asrwt>0</asrwt>
<pdfrwt beam="1">  1       21 0.10823342E+00 0.25908943E+03</pdfrwt>
<pdfrwt beam="2">  1       21 0.36698752E-02 0.25908943E+03</pdfrwt>
<totfact> 0.30152735E+05</totfact>
</mgrwt>
</event>
<event>
 8    1  0.9529436E-006  0.3845610E+03  0.7546771E-02  0.1049261E+00
         21   -1    0    0  504  503  0.00000000000E+00  0.00000000000E+00  0.16001331027E+03  0.16001331027E+03  0.00000000000E+00 0. -1.
         21   -1    0    0  503  504 -0.00000000000E+00 -0.00000000000E+00 -0.23105447930E+03  0.23105447930E+03  0.00000000000E+00 0. -1.
         25    2    1    2    0    0 -0.12351213256E+03  0.72489896081E+02 -0.61044794973E+01  0.19019188888E+03  0.12500263198E+03 0.  0.
         25    2    1    2    0    0  0.12351213256E+03 -0.72489896081E+02 -0.64936689536E+02  0.20087590070E+03  0.12499728761E+03 0.  0.
          5    1    3    3  501    0  0.18082860488E+02 -0.13276515494E+02  0.72585929749E+01  0.24042314345E+02  0.47000000000E+01 0. -1.
         -5    1    3    3    0  501 -0.14159499305E+03  0.85766411575E+02 -0.13363072472E+02  0.16614957453E+03  0.47000000000E+01 0. -1.
          5    1    4    4  502    0  0.13013949146E+03 -0.97422403347E+02 -0.47657712520E+02  0.16947200203E+03  0.47000000000E+01 0.  1.
         -5    1    4    4    0  502 -0.66273588972E+01  0.24932507265E+02 -0.17278977016E+02  0.31403898663E+02  0.47000000000E+01 0.  1.
<mgrwt>
<rscale>  0 0.38456101E+03</rscale>
<asrwt>0</asrwt>
<pdfrwt beam="1">  1       21 0.24617433E-01 0.38456101E+03</pdfrwt>
<pdfrwt beam="2">  1       21 0.35546843E-01 0.38456101E+03</pdfrwt>
<totfact> 0.11274059E+05</totfact>
</mgrwt>
</event>
<event>
 8    1  0.9529436E-006  0.4496132E+03  0.7546771E-02  0.1027837E+00
         21   -1    0    0  504  503  0.00000000000E+00  0.00000000000E+00  0.44461694046E+02  0.44461694046E+02  0.00000000000E+00 0. -1.
         21   -1    0    0  503  504 -0.00000000000E+00 -0.00000000000E+00 -0.11366637733E+04  0.11366637733E+04  0.00000000000E+00 0. -1.
         25    2    1    2    0    0  0.10798693789E+01 -0.15964320562E+03 -0.29104247470E+03  0.35470714954E+03  0.12499728251E+03 0.  0.
         25    2    1    2    0    0 -0.10798693789E+01  0.15964320562E+03 -0.80115960456E+03  0.82641831781E+03  0.12499361914E+03 0.  0.
          5    1    3    3  501    0 -0.72976845553E+01 -0.24649005641E+01  0.10910981191E+02  0.14158793918E+02  0.47000000000E+01 0.  1.
         -5    1    3    3    0  501  0.83775539342E+01 -0.15717830505E+03 -0.30195345589E+03  0.34054835562E+03  0.47000000000E+01 0.  1.
          5    1    4    4  502    0 -0.34163408561E+02 -0.13248346226E+01 -0.21034326175E+03  0.21315550998E+03  0.47000000000E+01 0.  1.
         -5    1    4    4    0  502  0.33083539182E+02  0.16096804024E+03 -0.59081634281E+03  0.61326280784E+03  0.47000000000E+01 0.  1.
<mgrwt>
<rscale>  0 0.44961315E+03</rscale>
<asrwt>0</asrwt>
<pdfrwt beam="1">  1       21 0.68402613E-02 0.44961315E+03</pdfrwt>
<pdfrwt beam="2">  1       21 0.17487133E+00 0.44961315E+03</pdfrwt>
<totfact> 0.27756481E+04</totfact>
</mgrwt>
</event>
<event>
 8    1  0.9529436E-006  0.3437100E+03  0.7546771E-02  0.1065227E+00
         21   -1    0    0  504  503  0.00000000000E+00  0.00000000000E+00  0.38325933954E+03  0.38325933954E+03  0.00000000000E+00 0. -1.
         21   -1    0    0  503  504 -0.00000000000E+00 -0.00000000000E+00 -0.77060438049E+02  0.77060438049E+02  0.00000000000E+00 0. -1.
         25    2    1    2    0    0 -0.59241837236E+02  0.88779134614E+02  0.85807610393E+02  0.18538613342E+03  0.12495496164E+03 0.  0.
         25    2    1    2    0    0  0.59241837236E+02 -0.88779134614E+02  0.22039129110E+03  0.27493364417E+03  0.12499942994E+03 0.  0.
          5    1    3    3  501    0  0.50132815204E+01  0.49272404651E+02 -0.21450551443E+02  0.54176738633E+02  0.47000000000E+01 0. -1.
         -5    1    3    3    0  501 -0.64255118756E+02  0.39506729963E+02  0.10725816184E+03  0.13120939478E+03  0.47000000000E+01 0. -1.
          5    1    4    4  502    0  0.41059411025E+02 -0.65503995039E+02  0.31373586957E+02  0.83564589142E+02  0.47000000000E+01 0. -1.
         -5    1    4    4    0  502  0.18182426210E+02 -0.23275139575E+02  0.18901770414E+03  0.19136905503E+03  0.47000000000E+01 0. -1.
<mgrwt>
<rscale>  0 0.34370995E+03</rscale>
<asrwt>0</asrwt>
<pdfrwt beam="1">  1       21 0.58962974E-01 0.34370995E+03</pdfrwt>
<pdfrwt beam="2">  1       21 0.11855452E-01 0.34370995E+03</pdfrwt>
<totfact> 0.15465045E+05</totfact>
</mgrwt>
</event>
<event>
 8    1  0.9529436E-006  0.3273657E+03  0.7546771E-02  0.1072308E+00
         21   -1    0    0  504  503  0.00000000000E+00  0.00000000000E+00  0.13781846726E+03  0.13781846726E+03  0.00000000000E+00 0. -1.
         21   -1    0    0  503  504 -0.00000000000E+00 -0.00000000000E+00 -0.19440120988E+03  0.19440120988E+03  0.00000000000E+00 0. -1.
         25    2    1    2    0    0  0.59605199002E+01 -0.39910186034E+02  0.70813882602E+02  0.14922874869E+03  0.12500505078E+03 0.  0.
         25    2    1    2    0    0 -0.59605199002E+01  0.39910186034E+02 -0.12739662522E+03  0.18299092845E+03  0.12500971574E+03 0.  0.
          5    1    3    3  501    0 -0.46016439774E+02 -0.36304683105E+02  0.76632402615E+02  0.96592742354E+02  0.47000000000E+01 0.  1.
         -5    1    3    3    0  501  0.51976959675E+02 -0.36055029292E+01 -0.58185200126E+01  0.52636006341E+02  0.47000000000E+01 0.  1.
          5    1    4    4  502    0 -0.36621141381E+02  0.13512210951E+02  0.92610711656E+01  0.40392391362E+02  0.47000000000E+01 0.  1.
         -5    1    4    4    0  502  0.30660621481E+02  0.26397975084E+02 -0.13665769638E+03  0.14259853708E+03  0.47000000000E+01 0.  1.
<mgrwt>
<rscale>  0 0.32736571E+03</rscale>
<asrwt>0</asrwt>
<pdfrwt beam="1">  1       21 0.21202841E-01 0.32736571E+03</pdfrwt>
<pdfrwt beam="2">  1       21 0.29907878E-01 0.32736571E+03</pdfrwt>
<totfact> 0.21445949E+05</totfact>
</mgrwt>
</event>
<event>
 8    1  0.9529436E-006  0.3975745E+03  0.7546771E-02  0.1044623E+00
         21   -1    0    0  504  503  0.00000000000E+00  0.00000000000E+00  0.36499320238E+03  0.36499320238E+03  0.00000000000E+00 0.  1.
         21   -1    0    0  503  504 -0.00000000000E+00 -0.00000000000E+00 -0.10826605434E+03  0.10826605434E+03  0.00000000000E+00 0.  1.
         25    2    1    2    0    0  0.14150058788E+03 -0.11020929636E+02  0.55496767797E+02  0.19710064931E+03  0.12499958985E+03 0.  0.
         25    2    1    2    0    0 -0.14150058788E+03  0.11020929636E+02  0.20123038024E+03  0.27615860741E+03  0.12500413295E+03 0.  0.
          5    1    3    3  501    0 -0.50293242014E+01 -0.34098877204E+02 -0.79714718404E+01  0.35688399961E+02  0.47000000000E+01 0.  1.
         -5    1    3    3    0  501  0.14652991208E+03  0.23077947568E+02  0.63468239638E+02  0.16141224935E+03  0.47000000000E+01 0.  1.
          5    1    4    4  502    0 -0.12592667999E+03  0.52817118996E+02  0.11349580000E+03  0.17762478265E+03  0.47000000000E+01 0. -1.
         -5    1    4    4    0  502 -0.15573907884E+02 -0.41796189360E+02  0.87734580240E+02  0.98533824760E+02  0.47000000000E+01 0. -1.
<mgrwt>
<rscale>  0 0.39757452E+03</rscale>
<asrwt>0</asrwt>
<pdfrwt beam="1">  1       21 0.56152800E-01 0.39757452E+03</pdfrwt>
<pdfrwt beam="2">  1       21 0.16656316E-01 0.39757452E+03</pdfrwt>
<totfact> 0.90953301E+04</totfact>
</mgrwt>
</event>
<event>
 8    1  0.9529436E-006  0.2747499E+03  0.7546771E-02  0.1098591E+00
         21   -1    0    0  504  503  0.00000000000E+00  0.00000000000E+00  0.17606629852E+03  0.17606629852E+03  0.00000000000E+00 0. -1.
         21   -1    0    0  503  504 -0.00000000000E+00 -0.00000000000E+00 -0.10718617012E+03  0.10718617012E+03  0.00000000000E+00 0. -1.
         25    2    1    2    0    0 -0.38119435791E+00  0.38590510346E+02 -0.87900182919E+01  0.13111332904E+03  0.12499627127E+03 0.  0.
         25    2    1    2    0    0  0.38119435791E+00 -0.38590510346E+02  0.77670146690E+02  0.15213913960E+03  0.12499717323E+03 0.  0.
          5    1    3    3  501    0  0.19815756167E+02  0.12206738252E+02  0.54516474770E+02  0.59462632573E+02  0.47000000000E+01 0.  1.
         -5    1    3    3    0  501 -0.20196950525E+02  0.26383772094E+02 -0.63306493061E+02  0.71650696467E+02  0.47000000000E+01 0.  1.
          5    1    4    4  502    0  0.17782178638E+02  0.23903709453E+02  0.81583228566E+02  0.86979919442E+02  0.47000000000E+01 0. -1.
         -5    1    4    4    0  502 -0.17400984281E+02 -0.62494219799E+02 -0.39130818761E+01  0.65159220161E+02  0.47000000000E+01 0. -1.
<mgrwt>
<rscale>  0 0.27474987E+03</rscale>
<asrwt>0</asrwt>
<pdfrwt beam="1">  1       21 0.27087123E-01 0.27474987E+03</pdfrwt>
<pdfrwt beam="2">  1       21 0.16490180E-01 0.27474987E+03</pdfrwt>
<totfact> 0.42135775E+05</totfact>
</mgrwt>
</event>
<event>
 8    1  0.9529436E-006  0.3964087E+03  0.7546771E-02  0.1045030E+00
         21   -1    0    0  504  503  0.00000000000E+00  0.00000000000E+00  0.10901242398E+02  0.10901242398E+02  0.00000000000E+00 0.  1.
         21   -1    0    0  503  504 -0.00000000000E+00 -0.00000000000E+00 -0.36037149756E+04  0.36037149756E+04  0.00000000000E+00 0.  1.
         25    2    1    2    0    0 -0.45784682424E+02  0.11530703865E+01 -0.45745703011E+03  0.47643424746E+03  0.12500036415E+03 0.  0.
         25    2    1    2    0    0  0.45784682424E+02 -0.11530703865E+01 -0.31353567031E+04  0.31381819705E+04  0.12500743132E+03 0.  0.
          5    1    3    3  501    0 -0.59312567056E+00  0.23954375831E+02 -0.39566820368E+03  0.39642096479E+03  0.47000000000E+01 0. -1.
         -5    1    3    3    0  501 -0.45191556754E+02 -0.22801305445E+02 -0.61788826424E+02  0.80013282664E+02  0.47000000000E+01 0. -1.
          5    1    4    4  502    0  0.48733979548E+02 -0.40740305724E+02 -0.27538995697E+04  0.27546360383E+04  0.47000000000E+01 0.  1.
         -5    1    4    4    0  502 -0.29492971237E+01  0.39587235337E+02 -0.38145713337E+03  0.38354593226E+03  0.47000000000E+01 0.  1.
<mgrwt>
<rscale>  0 0.39640873E+03</rscale>
<asrwt>0</asrwt>
<pdfrwt beam="1">  1       21 0.16771131E-02 0.39640873E+03</pdfrwt>
<pdfrwt beam="2">  1       21 0.55441804E+00 0.39640873E+03</pdfrwt>
<totfact> 0.10146821E+03</totfact>
</mgrwt>
</event>
<event>
 8    1  0.9529436E-006  0.2725375E+03  0.7546771E-02  0.1099836E+00
         21   -1    0    0  504  503  0.00000000000E+00  0.00000000000E+00  0.80110673038E+03  0.80110673038E+03  0.00000000000E+00 0.  1.
         21   -1    0    0  503  504 -0.00000000000E+00 -0.00000000000E+00 -0.23179394274E+02  0.23179394274E+02  0.00000000000E+00 0.  1.
         25    2    1    2    0    0 -0.48931209645E+02  0.12969687958E+02  0.44792460230E+03  0.46779067026E+03  0.12501674189E+03 0.  0.
         25    2    1    2    0    0  0.48931209645E+02 -0.12969687958E+02  0.33000273381E+03  0.35649545440E+03  0.12499891440E+03 0.  0.
          5    1    3    3  501    0  0.24646612839E+01 -0.49066888018E+02  0.11347011749E+03  0.12373839994E+03  0.47000000000E+01 0. -1.
         -5    1    3    3    0  501 -0.51395870929E+02  0.62036575976E+02  0.33445448480E+03  0.34405227032E+03  0.47000000000E+01 0. -1.
          5    1    4    4  502    0 -0.18180584601E+02 -0.52350778091E+02  0.11369190896E+03  0.12656649551E+03  0.47000000000E+01 0. -1.
         -5    1    4    4    0  502  0.67111794246E+02  0.39381090133E+02  0.21631082485E+03  0.22992895889E+03  0.47000000000E+01 0. -1.
<mgrwt>
<rscale>  0 0.27253747E+03</rscale>
<asrwt>0</asrwt>
<pdfrwt beam="1">  1       21 0.12324717E+00 0.27253747E+03</pdfrwt>
<pdfrwt beam="2">  1       21 0.35660613E-02 0.27253747E+03</pdfrwt>
<totfact> 0.22865185E+05</totfact>
</mgrwt>
</event>
<event>
 8    1  0.9529436E-006  0.4908826E+03  0.7546771E-02  0.1016186E+00
         21   -1    0    0  504  503  0.00000000000E+00  0.00000000000E+00  0.30427846762E+03  0.30427846762E+03  0.00000000000E+00 0. -1.
         21   -1    0    0  503  504 -0.00000000000E+00 -0.00000000000E+00 -0.19798126955E+03  0.19798126955E+03  0.00000000000E+00 0. -1.
         25    2    1    2    0    0  0.10957433710E+02 -0.16596223290E+03 -0.80072564822E+02  0.22293428061E+03  0.12499819892E+03 0.  0.
         25    2    1    2    0    0 -0.10957433710E+02  0.16596223290E+03  0.18636976289E+03  0.27932545655E+03  0.12500197622E+03 0.  0.
          5    1    3    3  501    0  0.24164987794E+02 -0.10723663515E+03 -0.10997075151E+03  0.15556123791E+03  0.47000000000E+01 0. -1.
         -5    1    3    3    0  501 -0.13207554085E+02 -0.58725597749E+02  0.29898186685E+02  0.67373042702E+02  0.47000000000E+01 0. -1.
          5    1    4    4  502    0  0.41904010392E+02  0.49778245195E+02  0.17415260817E+02  0.67521856394E+02  0.47000000000E+01 0.  1.
         -5    1    4    4    0  502 -0.52861444102E+02  0.11618398770E+03  0.16895450207E+03  0.21180360016E+03  0.47000000000E+01 0.  1.
<mgrwt>
<rscale>  0 0.49088262E+03</rscale>
<asrwt>0</asrwt>
<pdfrwt beam="1">  1       21 0.46812072E-01 0.49088262E+03</pdfrwt>
<pdfrwt beam="2">  1       21 0.30458657E-01 0.49088262E+03</pdfrwt>
<totfact> 0.41110220E+04</totfact>
</mgrwt>
</event>
<event>
 8    1  0.9529436E-006  0.3440037E+03  0.7546771E-02  0.1065103E+00
         21   -1    0    0  504  503  0.00000000000E+00  0.00000000000E+00  0.17904637182E+03  0.17904637182E+03  0.00000000000E+00 0. -1.
         21   -1    0    0  503  504 -0.00000000000E+00 -0.00000000000E+00 -0.16523450935E+03  0.16523450935E+03  0.00000000000E+00 0. -1.
         25    2    1    2    0    0 -0.83455404865E+02  0.83566787022E+02  0.10392182161E+02  0.17228095194E+03  0.12499806581E+03 0.  0.
         25    2    1    2    0    0  0.83455404865E+02 -0.83566787022E+02  0.34196803110E+01  0.17199992922E+03  0.12499627573E+03 0.  0.
          5    1    3    3  501    0 -0.46442187032E+02  0.94931708503E+02 -0.35932492465E+02  0.11172349811E+03  0.47000000000E+01 0.  1.
         -5    1    3    3    0  501 -0.37013217833E+02 -0.11364921481E+02  0.46324674626E+02  0.60557453826E+02  0.47000000000E+01 0.  1.
          5    1    4    4  502    0 -0.20223983028E+02 -0.20802204592E+02  0.35939845694E+02  0.46427402619E+02  0.47000000000E+01 0. -1.
         -5    1    4    4    0  502  0.10367938789E+03 -0.62764582430E+02 -0.32520165383E+02  0.12557252661E+03  0.47000000000E+01 0. -1.
<mgrwt>
<rscale>  0 0.34400372E+03</rscale>
<asrwt>0</asrwt>
<pdfrwt beam="1">  1       21 0.27545595E-01 0.34400372E+03</pdfrwt>
<pdfrwt beam="2">  1       21 0.25420694E-01 0.34400372E+03</pdfrwt>
<totfact> 0.17736054E+05</totfact>
</mgrwt>
</event>
<event>
 8    1  0.9529436E-006  0.4067220E+03  0.7546771E-02  0.1041477E+00
         21   -1    0    0  504  503  0.00000000000E+00  0.00000000000E+00  0.89274137797E+03  0.89274137797E+03  0.00000000000E+00 0. -1.
         21   -1    0    0  503  504 -0.00000000000E+00 -0.00000000000E+00 -0.46324389059E+02  0.46324389059E+02  0.00000000000E+00 0. -1.
         25    2    1    2    0    0 -0.78309099021E+02 -0.13957145488E+03  0.39822779878E+03  0.44701753533E+03  0.12500716446E+03 0.  0.
         25    2    1    2    0    0  0.78309099021E+02  0.13957145488E+03  0.44818919013E+03  0.49204823170E+03  0.12500162465E+03 0.  0.
          5    1    3    3  501    0 -0.31414772994E+02 -0.23062075447E+02  0.24828474149E+03  0.25136855440E+03  0.47000000000E+01 0.  1.
         -5    1    3    3    0  501 -0.46894326027E+02 -0.11650937943E+03  0.14994305730E+03  0.19564898093E+03  0.47000000000E+01 0.  1.
          5    1    4    4  502    0  0.53370647386E+02  0.89739292006E+02  0.12002317709E+03  0.15915156164E+03  0.47000000000E+01 0. -1.
         -5    1    4    4    0  502  0.24938451635E+02  0.49832162869E+02  0.32816601304E+03  0.33289667006E+03  0.47000000000E+01 0. -1.
<mgrwt>
<rscale>  0 0.40672201E+03</rscale>
<asrwt>0</asrwt>
<pdfrwt beam="1">  1       21 0.13734481E+00 0.40672201E+03</pdfrwt>
<pdfrwt beam="2">  1       21 0.71268297E-02 0.40672201E+03</pdfrwt>
<totfact> 0.50789801E+04</totfact>
</mgrwt>
</event>
<event>
 8    1  0.9529436E-006  0.3551267E+03  0.7546771E-02  0.1060530E+00
         21   -1    0    0  504  503  0.00000000000E+00  0.00000000000E+00  0.12922817819E+03  0.12922817819E+03  0.00000000000E+00 0. -1.
         21   -1    0    0  503  504 -0.00000000000E+00 -0.00000000000E+00 -0.24397735767E+03  0.24397735767E+03  0.00000000000E+00 0. -1.
         25    2    1    2    0    0 -0.78230246922E+01  0.90283134050E+02  0.34788813302E+02  0.15826265791E+03  0.12499825338E+03 0.  0.
         25    2    1    2    0    0  0.78230246922E+01 -0.90283134050E+02 -0.14953799278E+03  0.21494287795E+03  0.12500634179E+03 0.  0.
          5    1    3    3  501    0 -0.75699974100E+01 -0.66171947880E+01  0.57552750779E+02  0.58613149121E+02  0.47000000000E+01 0. -1.
         -5    1    3    3    0  501 -0.25302728221E+00  0.96900328838E+02 -0.22763937478E+02  0.99649508785E+02  0.47000000000E+01 0. -1.
          5    1    4    4  502    0 -0.26859266190E+02 -0.59015276433E+02 -0.15462527843E+03  0.16773577365E+03  0.47000000000E+01 0.  1.
         -5    1    4    4    0  502  0.34682290882E+02 -0.31267857616E+02  0.50872856506E+01  0.47207104296E+02  0.47000000000E+01 0.  1.
<mgrwt>
<rscale>  0 0.35512673E+03</rscale>
<asrwt>0</asrwt>
<pdfrwt beam="1">  1       21 0.19881258E-01 0.35512673E+03</pdfrwt>
<pdfrwt beam="2">  1       21 0.37534978E-01 0.35512673E+03</pdfrwt>
<totfact> 0.15292963E+05</totfact>
</mgrwt>
</event>
<event>
 8    1  0.9529436E-006  0.3727947E+03  0.7546771E-02  0.1053629E+00
         21   -1    0    0  504  503  0.00000000000E+00  0.00000000000E+00  0.30897043787E+03  0.30897043787E+03  0.00000000000E+00 0. -1.
         21   -1    0    0  503  504 -0.00000000000E+00 -0.00000000000E+00 -0.11245082632E+03  0.11245082632E+03  0.00000000000E+00 0. -1.
         25    2    1    2    0    0  0.16389799702E+02 -0.19396668560E+02 -0.55381349083E+02  0.13906589629E+03  0.12500949323E+03 0.  0.
         25    2    1    2    0    0 -0.16389799702E+02  0.19396668560E+02  0.25190096063E+03  0.28235536791E+03  0.12500241412E+03 0.  0.
          5    1    3    3  501    0 -0.33079148764E+02 -0.38586257058E+02 -0.67314294394E+02  0.84477414417E+02  0.47000000000E+01 0. -1.
         -5    1    3    3    0  501  0.49468948466E+02  0.19189588498E+02  0.11932945311E+02  0.54588481870E+02  0.47000000000E+01 0. -1.
          5    1    4    4  502    0  0.37502821262E+02  0.12810948687E+02  0.20971955782E+02  0.45083200177E+02  0.47000000000E+01 0. -1.
         -5    1    4    4    0  502 -0.53892620964E+02  0.65857198735E+01  0.23092900484E+03  0.23727216773E+03  0.47000000000E+01 0. -1.
<mgrwt>
<rscale>  0 0.37279475E+03</rscale>
<asrwt>0</asrwt>
<pdfrwt beam="1">  1       21 0.47533913E-01 0.37279475E+03</pdfrwt>
<pdfrwt beam="2">  1       21 0.17300127E-01 0.37279475E+03</pdfrwt>
<totfact> 0.12148975E+05</totfact>
</mgrwt>
</event>
<event>
 8    1  0.9529436E-006  0.2760969E+03  0.7546771E-02  0.1097840E+00
         21   -1    0    0  504  503  0.00000000000E+00  0.00000000000E+00  0.72792002224E+03  0.72792002224E+03  0.00000000000E+00 0. -1.
         21   -1    0    0  503  504 -0.00000000000E+00 -0.00000000000E+00 -0.26180592138E+02  0.26180592138E+02  0.00000000000E+00 0. -1.
         25    2    1    2    0    0 -0.25914488134E+02 -0.24203078020E+02  0.22348619163E+03  0.25851203059E+03  0.12500016971E+03 0.  0.
         25    2    1    2    0    0  0.25914488134E+02  0.24203078020E+02  0.47825323847E+03  0.49558858379E+03  0.12499813836E+03 0.  0.
          5    1    3    3  501    0 -0.14205621266E+02  0.44306346825E+02  0.37613836321E+02  0.60014520970E+02  0.47000000000E+01 0. -1.
         -5    1    3    3    0  501 -0.11708866869E+02 -0.68509424845E+02  0.18587235531E+03  0.19849750962E+03  0.47000000000E+01 0. -1.
          5    1    4    4  502    0  0.21216696964E+02  0.70925787027E+02  0.19901301482E+03  0.21238852503E+03  0.47000000000E+01 0.  1.
         -5    1    4    4    0  502  0.46977911703E+01 -0.46722709007E+02  0.27924022364E+03  0.28320005876E+03  0.47000000000E+01 0.  1.
<mgrwt>
<rscale>  0 0.27609692E+03</rscale>
<asrwt>0</asrwt>
<pdfrwt beam="1">  1       21 0.11198768E+00 0.27609692E+03</pdfrwt>
<pdfrwt beam="2">  1       21 0.40277840E-02 0.27609692E+03</pdfrwt>
<totfact> 0.23609242E+05</totfact>
</mgrwt>
</event>
<event>
 8    1  0.9529436E-006  0.2561667E+03  0.7546771E-02  0.1109468E+00
         21   -1    0    0  504  503  0.00000000000E+00  0.00000000000E+00  0.93138535163E+03  0.93138535163E+03  0.00000000000E+00 0.  1.
         21   -1    0    0  503  504 -0.00000000000E+00 -0.00000000000E+00 -0.17613916048E+02  0.17613916048E+02  0.00000000000E+00 0.  1.
         25    2    1    2    0    0 -0.40926588291E+01 -0.78295065102E+01  0.55498908324E+03  0.56896180067E+03  0.12500638815E+03 0.  0.
         25    2    1    2    0    0  0.40926588291E+01  0.78295065102E+01  0.35878235234E+03  0.38003746701E+03  0.12500259577E+03 0.  0.
          5    1    3    3  501    0 -0.55672254422E+02 -0.15108729650E+02  0.15293895312E+03  0.16352396462E+03  0.47000000000E+01 0.  1.
         -5    1    3    3    0  501  0.51579595592E+02  0.72792231400E+01  0.40205013012E+03  0.40543783605E+03  0.47000000000E+01 0.  1.
          5    1    4    4  502    0  0.53403961114E+02  0.17858808275E+02  0.28536722239E+03  0.29090799527E+03  0.47000000000E+01 0. -1.
         -5    1    4    4    0  502 -0.49311302285E+02 -0.10029301765E+02  0.73415129952E+02  0.89129471741E+02  0.47000000000E+01 0. -1.
<mgrwt>
<rscale>  0 0.25616669E+03</rscale>
<asrwt>0</asrwt>
<pdfrwt beam="1">  1       21 0.14329002E+00 0.25616669E+03</pdfrwt>
<pdfrwt beam="2">  1       21 0.27098340E-02 0.25616669E+03</pdfrwt>
<totfact> 0.24664575E+05</totfact>
</mgrwt>
</event>
<event>
 8    1  0.9529436E-006  0.3583032E+03  0.7546771E-02  0.1059258E+00
         21   -1    0    0  504  503  0.00000000000E+00  0.00000000000E+00  0.73617740574E+02  0.73617740574E+02  0.00000000000E+00 0.  1.
         21   -1    0    0  503  504 -0.00000000000E+00 -0.00000000000E+00 -0.43597221105E+03  0.43597221105E+03  0.00000000000E+00 0.  1.
         25    2    1    2    0    0  0.11836352603E+02 -0.49247218290E+02 -0.13468093596E+02  0.13554161948E+03  0.12499901325E+03 0.  0.
         25    2    1    2    0    0 -0.11836352603E+02  0.49247218290E+02 -0.34888637688E+03  0.37404833214E+03  0.12500025223E+03 0.  0.
          5    1    3    3  501    0  0.61292954148E+02 -0.46311585861E+01  0.14203069788E+02  0.63262082241E+02  0.47000000000E+01 0. -1.
         -5    1    3    3    0  501 -0.49456601545E+02 -0.44616059704E+02 -0.27671163383E+02  0.72279537235E+02  0.47000000000E+01 0. -1.
          5    1    4    4  502    0 -0.37257446955E+02  0.81701040809E+02 -0.19617454060E+03  0.21580018026E+03  0.47000000000E+01 0. -1.
         -5    1    4    4    0  502  0.25421094352E+02 -0.32453822518E+02 -0.15271183628E+03  0.15824815188E+03  0.47000000000E+01 0. -1.
<mgrwt>
<rscale>  0 0.35830316E+03</rscale>
<asrwt>0</asrwt>
<pdfrwt beam="1">  1       21 0.11325807E-01 0.35830316E+03</pdfrwt>
<pdfrwt beam="2">  1       21 0.67072646E-01 0.35830316E+03</pdfrwt>
<totfact> 0.12615396E+05</totfact>
</mgrwt>
</event>
<event>
 8    1  0.9529436E-006  0.3853188E+03  0.7546771E-02  0.1048985E+00
         21   -1    0    0  504  503  0.00000000000E+00  0.00000000000E+00  0.37834673056E+02  0.37834673056E+02  0.00000000000E+00 0. -1.
         21   -1    0    0  503  504 -0.00000000000E+00 -0.00000000000E+00 -0.98104815657E+03  0.98104815657E+03  0.00000000000E+00 0. -1.
         25    2    1    2    0    0 -0.93118458525E+02  0.14307222326E+02 -0.17459462738E+03  0.23448784519E+03  0.12500208679E+03 0.  0.
         25    2    1    2    0    0  0.93118458525E+02 -0.14307222326E+02 -0.76861885613E+03  0.78439498444E+03  0.12499920671E+03 0.  0.
          5    1    3    3  501    0 -0.71855040320E+02 -0.95484765446E+01 -0.18643469397E+03  0.20008574497E+03  0.47000000000E+01 0.  1.
         -5    1    3    3    0  501 -0.21263418204E+02  0.23855698870E+02  0.11840066593E+02  0.34402100216E+02  0.47000000000E+01 0.  1.
          5    1    4    4  502    0  0.93700707169E+02 -0.59492652973E+02 -0.54362258890E+03  0.55485746588E+03  0.47000000000E+01 0.  1.
         -5    1    4    4    0  502 -0.58224864366E+00  0.45185430647E+02 -0.22499626723E+03  0.22953751855E+03  0.47000000000E+01 0.  1.
<mgrwt>
<rscale>  0 0.38531876E+03</rscale>
<asrwt>0</asrwt>
<pdfrwt beam="1">  1       21 0.58207184E-02 0.38531876E+03</pdfrwt>
<pdfrwt beam="2">  1       21 0.15093050E+00 0.38531876E+03</pdfrwt>
<totfact> 0.56544886E+04</totfact>
</mgrwt>
</event>
<event>
 8    1  0.9529436E-006  0.5494237E+03  0.7546771E-02  0.1001627E+00
         21   -1    0    0  504  503  0.00000000000E+00  0.00000000000E+00  0.18331050664E+04  0.18331050664E+04  0.00000000000E+00 0.  1.
         21   -1    0    0  503  504 -0.00000000000E+00 -0.00000000000E+00 -0.41168731195E+02  0.41168731195E+02  0.00000000000E+00 0.  1.
         25    2    1    2    0    0 -0.49722597463E+02 -0.23594234175E+03  0.10366927870E+04  0.10716784229E+04  0.12498632800E+03 0.  0.
         25    2    1    2    0    0  0.49722597463E+02  0.23594234175E+03  0.75524354821E+03  0.80259537469E+03  0.12500157210E+03 0.  0.
          5    1    3    3  501    0 -0.68190598858E+02 -0.23770489901E+03  0.88952826073E+03  0.92327471178E+03  0.47000000000E+01 0. -1.
         -5    1    3    3    0  501  0.18468001395E+02  0.17625572577E+01  0.14716452629E+03  0.14840371115E+03  0.47000000000E+01 0. -1.
          5    1    4    4  502    0  0.52068112657E+02  0.14734776684E+03  0.29497560046E+03  0.33384898924E+03  0.47000000000E+01 0. -1.
         -5    1    4    4    0  502 -0.23455151941E+01  0.88594574910E+02  0.46026794776E+03  0.46874638546E+03  0.47000000000E+01 0. -1.
<mgrwt>
<rscale>  0 0.54942373E+03</rscale>
<asrwt>0</asrwt>
<pdfrwt beam="1">  1       21 0.28201610E+00 0.54942373E+03</pdfrwt>
<pdfrwt beam="2">  1       21 0.63336524E-02 0.54942373E+03</pdfrwt>
<totfact> 0.62926544E+03</totfact>
</mgrwt>
</event>
<event>
 8    1  0.9529436E-006  0.2780738E+03  0.7546771E-02  0.1096746E+00
         21   -1    0    0  504  503  0.00000000000E+00  0.00000000000E+00  0.18165578634E+04  0.18165578634E+04  0.00000000000E+00 0. -1.
         21   -1    0    0  503  504 -0.00000000000E+00 -0.00000000000E+00 -0.10641695395E+02  0.10641695395E+02  0.00000000000E+00 0. -1.
         25    2    1    2    0    0  0.27975502452E+02 -0.31821912018E+02  0.11903141137E+04  0.11976091421E+04  0.12499882095E+03 0.  0.
         25    2    1    2    0    0 -0.27975502452E+02  0.31821912018E+02  0.61560205437E+03  0.62959041672E+03  0.12499176237E+03 0.  0.
          5    1    3    3  501    0  0.88566304353E+01  0.38143957333E+02  0.77353519527E+03  0.77453998587E+03  0.47000000000E+01 0. -1.
         -5    1    3    3    0  501  0.19118872017E+02 -0.69965869351E+02  0.41677891838E+03  0.42306915622E+03  0.47000000000E+01 0. -1.
          5    1    4    4  502    0 -0.15583865036E+02  0.37738527669E+02  0.54297136725E+02  0.68097888195E+02  0.47000000000E+01 0. -1.
         -5    1    4    4    0  502 -0.12391637416E+02 -0.59166156511E+01  0.56130491764E+03  0.56149252852E+03  0.47000000000E+01 0. -1.
<mgrwt>
<rscale>  0 0.27807377E+03</rscale>
<asrwt>0</asrwt>
<pdfrwt beam="1">  1       21 0.27947019E+00 0.27807377E+03</pdfrwt>
<pdfrwt beam="2">  1       21 0.16371854E-02 0.27807377E+03</pdfrwt>
<totfact> 0.71990939E+04</totfact>
</mgrwt>
</event>
<event>
 8    1  0.9529436E-006  0.3565158E+03  0.7546771E-02  0.1059972E+00
         21   -1    0    0  504  503  0.00000000000E+00  0.00000000000E+00  0.68460904695E+02  0.68460904695E+02  0.00000000000E+00 0. -1.
         21   -1    0    0  503  504 -0.00000000000E+00 -0.00000000000E+00 -0.46414638726E+03  0.46414638726E+03  0.00000000000E+00 0. -1.
         25    2    1    2    0    0 -0.31310325533E+02  0.92708188324E+02 -0.31893949975E+03  0.35626206451E+03  0.12500043776E+03 0.  0.
         25    2    1    2    0    0  0.31310325533E+02 -0.92708188324E+02 -0.76745982823E+02  0.17634522745E+03  0.12503019115E+03 0.  0.
          5    1    3    3  501    0  0.46478605528E+02  0.38335088938E+02 -0.16065109506E+03  0.17164120764E+03  0.47000000000E+01 0.  1.
         -5    1    3    3    0  501 -0.77788931060E+02  0.54373099386E+02 -0.15828840469E+03  0.18462085687E+03  0.47000000000E+01 0.  1.
          5    1    4    4  502    0 -0.36023315364E+02 -0.76710175426E+02 -0.62813538347E+02  0.10559242806E+03  0.47000000000E+01 0. -1.
         -5    1    4    4    0  502  0.67333640896E+02 -0.15998012898E+02 -0.13932444476E+02  0.70752799394E+02  0.47000000000E+01 0. -1.
<mgrwt>
<rscale>  0 0.35651581E+03</rscale>
<asrwt>0</asrwt>
<pdfrwt beam="1">  1       21 0.10532447E-01 0.35651581E+03</pdfrwt>
<pdfrwt beam="2">  1       21 0.71407136E-01 0.35651581E+03</pdfrwt>
<totfact> 0.12505735E+05</totfact>
</mgrwt>
</event>
<event>
 8    1  0.9529436E-006  0.2525036E+03  0.7546771E-02  0.1111733E+00
         21   -1    0    0  504  503  0.00000000000E+00  0.00000000000E+00  0.22685770052E+03  0.22685770052E+03  0.00000000000E+00 0. -1.
         21   -1    0    0  503  504 -0.00000000000E+00 -0.00000000000E+00 -0.70262189201E+02  0.70262189201E+02  0.00000000000E+00 0. -1.
         25    2    1    2    0    0  0.14051967638E+02 -0.91852086092E+01  0.84973187713E+02  0.15207802333E+03  0.12500182678E+03 0.  0.
         25    2    1    2    0    0 -0.14051967638E+02  0.91852086092E+01  0.71622323607E+02  0.14504186639E+03  0.12500223964E+03 0.  0.
          5    1    3    3  501    0  0.46279655047E+02  0.43262059429E+02  0.34212639171E+02  0.72152664098E+02  0.47000000000E+01 0.  1.
         -5    1    3    3    0  501 -0.32227687409E+02 -0.52447268038E+02  0.50760548542E+02  0.79925359234E+02  0.47000000000E+01 0.  1.
          5    1    4    4  502    0  0.42244661887E+01  0.42175993788E+02 -0.19063516540E+02  0.46713683536E+02  0.47000000000E+01 0.  1.
         -5    1    4    4    0  502 -0.18276433827E+02 -0.32990785179E+02  0.90685840148E+02  0.98328182854E+02  0.47000000000E+01 0.  1.
<mgrwt>
<rscale>  0 0.25250361E+03</rscale>
<asrwt>0</asrwt>
<pdfrwt beam="1">  1       21 0.34901184E-01 0.25250361E+03</pdfrwt>
<pdfrwt beam="2">  1       21 0.10809568E-01 0.25250361E+03</pdfrwt>
<totfact> 0.55321628E+05</totfact>
</mgrwt>
</event>
<event>
 8    1  0.9529436E-006  0.3269089E+03  0.7546771E-02  0.1072513E+00
         21   -1    0    0  504  503  0.00000000000E+00  0.00000000000E+00  0.25480268858E+03  0.25480268858E+03  0.00000000000E+00 0. -1.
         21   -1    0    0  503  504 -0.00000000000E+00 -0.00000000000E+00 -0.10485507480E+03  0.10485507480E+03  0.00000000000E+00 0. -1.
         25    2    1    2    0    0 -0.72464170827E+02 -0.40713932530E+02  0.14614176507E+03  0.20948796510E+03  0.12497644446E+03 0.  0.
         25    2    1    2    0    0  0.72464170827E+02  0.40713932530E+02  0.38058487130E+01  0.15016979828E+03  0.12501121340E+03 0.  0.
          5    1    3    3  501    0  0.24087370472E+02 -0.32928715101E+02  0.98812403354E+01  0.42240153942E+02  0.47000000000E+01 0.  1.
         -5    1    3    3    0  501 -0.96551541300E+02 -0.77852174288E+01  0.13626052473E+03  0.16724781116E+03  0.47000000000E+01 0.  1.
          5    1    4    4  502    0  0.21498521494E+02  0.67274187857E+02 -0.36671949299E+02  0.79717781226E+02  0.47000000000E+01 0.  1.
         -5    1    4    4    0  502  0.50965649333E+02 -0.26560255327E+02  0.40477798012E+02  0.70452017053E+02  0.47000000000E+01 0.  1.
<mgrwt>
<rscale>  0 0.32690889E+03</rscale>
<asrwt>0</asrwt>
<pdfrwt beam="1">  1       21 0.39200414E-01 0.32690889E+03</pdfrwt>
<pdfrwt beam="2">  1       21 0.16131550E-01 0.32690889E+03</pdfrwt>
<totfact> 0.20826472E+05</totfact>
</mgrwt>
</event>
<event>
 8    1  0.9529436E-006  0.2923051E+03  0.7546771E-02  0.1089152E+00
         21   -1    0    0  504  503  0.00000000000E+00  0.00000000000E+00  0.28182055223E+02  0.28182055223E+02  0.00000000000E+00 0. -1.
         21   -1    0    0  503  504 -0.00000000000E+00 -0.00000000000E+00 -0.75794926791E+03  0.75794926791E+03  0.00000000000E+00 0. -1.
         25    2    1    2    0    0  0.67795443514E+02 -0.22757796504E+02 -0.29783237979E+03  0.33082432193E+03  0.12500586414E+03 0.  0.
         25    2    1    2    0    0 -0.67795443514E+02  0.22757796504E+02 -0.43193483290E+03  0.45530700120E+03  0.12499050368E+03 0.  0.
          5    1    3    3  501    0  0.31236026052E+02 -0.73555971211E+02 -0.14547333492E+03  0.16604442598E+03  0.47000000000E+01 0.  1.
         -5    1    3    3    0  501  0.36559417462E+02  0.50798174707E+02 -0.15235904487E+03  0.16477989596E+03  0.47000000000E+01 0.  1.
          5    1    4    4  502    0 -0.97711332835E+02  0.41692206170E+02 -0.35298412794E+03  0.36865380670E+03  0.47000000000E+01 0.  1.
         -5    1    4    4    0  502  0.29915889321E+02 -0.18934409666E+02 -0.78950704964E+02  0.86653194503E+02  0.47000000000E+01 0.  1.
<mgrwt>
<rscale>  0 0.29230510E+03</rscale>
<asrwt>0</asrwt>
<pdfrwt beam="1">  1       21 0.43357011E-02 0.29230510E+03</pdfrwt>
<pdfrwt beam="2">  1       21 0.11660757E+00 0.29230510E+03</pdfrwt>
<totfact> 0.18781623E+05</totfact>
</mgrwt>
</event>
<event>
 8    1  0.9529436E-006  0.3042095E+03  0.7546771E-02  0.1083155E+00
         21   -1    0    0  504  503  0.00000000000E+00  0.00000000000E+00  0.23135220748E+02  0.23135220748E+02  0.00000000000E+00 0. -1.
         21   -1    0    0  503  504 -0.00000000000E+00 -0.00000000000E+00 -0.10000271525E+04  0.10000271525E+04  0.00000000000E+00 0. -1.
         25    2    1    2    0    0  0.11536569935E+02  0.66398587038E+02 -0.30518457040E+03  0.33660741562E+03  0.12500026171E+03 0.  0.
         25    2    1    2    0    0 -0.11536569935E+02 -0.66398587038E+02 -0.67170736133E+03  0.68655495762E+03  0.12500026301E+03 0.  0.
          5    1    3    3  501    0  0.67529909016E+02  0.41511145694E+02 -0.19290948064E+03  0.20861356990E+03  0.47000000000E+01 0. -1.
         -5    1    3    3    0  501 -0.55993339081E+02  0.24887441344E+02 -0.11227508977E+03  0.12799384571E+03  0.47000000000E+01 0. -1.
          5    1    4    4  502    0 -0.74725786733E+01 -0.10370702909E+03 -0.50416724914E+03  0.51479869116E+03  0.47000000000E+01 0. -1.
         -5    1    4    4    0  502 -0.40639912618E+01  0.37308442052E+02 -0.16754011219E+03  0.17175626645E+03  0.47000000000E+01 0. -1.
<mgrwt>
<rscale>  0 0.30420946E+03</rscale>
<asrwt>0</asrwt>
<pdfrwt beam="1">  1       21 0.35592641E-02 0.30420946E+03</pdfrwt>
<pdfrwt beam="2">  1       21 0.15385036E+00 0.30420946E+03</pdfrwt>
<totfact> 0.12749131E+05</totfact>
</mgrwt>
</event>
<event>
 8    1  0.9529436E-006  0.2642878E+03  0.7546771E-02  0.1104594E+00
         21   -1    0    0  504  503  0.00000000000E+00  0.00000000000E+00  0.40524662159E+02  0.40524662159E+02  0.00000000000E+00 0.  1.
         21   -1    0    0  503  504 -0.00000000000E+00 -0.00000000000E+00 -0.43089826654E+03  0.43089826654E+03  0.00000000000E+00 0.  1.
         25    2    1    2    0    0  0.31528699704E+02  0.98272000961E+01 -0.14642346098E+03  0.19533197540E+03  0.12499647164E+03 0.  0.
         25    2    1    2    0    0 -0.31528699704E+02 -0.98272000961E+01 -0.24395014341E+03  0.27609095330E+03  0.12499563697E+03 0.  0.
          5    1    3    3  501    0  0.57931053809E+01 -0.33431596563E+02 -0.14028501308E+03  0.14440639395E+03  0.47000000000E+01 0.  1.
         -5    1    3    3    0  501  0.25735594323E+02  0.43258796660E+02 -0.61384479016E+01  0.50925581452E+02  0.47000000000E+01 0.  1.
          5    1    4    4  502    0 -0.42682912336E+02 -0.62106903754E+02 -0.13680463108E+03  0.15625842564E+03  0.47000000000E+01 0.  1.
         -5    1    4    4    0  502  0.11154212633E+02  0.52279703658E+02 -0.10714551233E+03  0.11983252766E+03  0.47000000000E+01 0.  1.
<mgrwt>
<rscale>  0 0.26428777E+03</rscale>
<asrwt>0</asrwt>
<pdfrwt beam="1">  1       21 0.62345631E-02 0.26428777E+03</pdfrwt>
<pdfrwt beam="2">  1       21 0.66292044E-01 0.26428777E+03</pdfrwt>
<totfact> 0.37908801E+05</totfact>
</mgrwt>
</event>
<event>
 8    1  0.9529436E-006  0.3102700E+03  0.7546771E-02  0.1080217E+00
         21   -1    0    0  504  503  0.00000000000E+00  0.00000000000E+00  0.73108167464E+02  0.73108167464E+02  0.00000000000E+00 0.  1.
         21   -1    0    0  503  504 -0.00000000000E+00 -0.00000000000E+00 -0.32919528279E+03  0.32919528279E+03  0.00000000000E+00 0.  1.
         25    2    1    2    0    0 -0.66399690241E+02 -0.27953435528E+02 -0.20199542274E+03  0.24822595472E+03  0.12499464135E+03 0.  0.
         25    2    1    2    0    0  0.66399690241E+02  0.27953435528E+02 -0.54091692590E+02  0.15407749554E+03  0.12499459989E+03 0.  0.
          5    1    3    3  501    0 -0.29015877098E+02 -0.76591660866E+02 -0.10313878144E+03  0.13178733579E+03  0.47000000000E+01 0. -1.
         -5    1    3    3    0  501 -0.37383813143E+02  0.48638225337E+02 -0.98856641303E+02  0.11643861893E+03  0.47000000000E+01 0. -1.
          5    1    4    4  502    0  0.32724813214E+02  0.11042509208E+02 -0.93236941473E+02  0.99539276995E+02  0.47000000000E+01 0. -1.
         -5    1    4    4    0  502  0.33674877027E+02  0.16910926320E+02  0.39145248883E+02  0.54538218543E+02  0.47000000000E+01 0. -1.
<mgrwt>
<rscale>  0 0.31026997E+03</rscale>
<asrwt>0</asrwt>
<pdfrwt beam="1">  1       21 0.11247410E-01 0.31026997E+03</pdfrwt>
<pdfrwt beam="2">  1       21 0.50645428E-01 0.31026997E+03</pdfrwt>
<totfact> 0.23721290E+05</totfact>
</mgrwt>
</event>
<event>
 8    1  0.9529436E-006  0.8004740E+03  0.7546771E-02  0.9559331E-01
         21   -1    0    0  504  503  0.00000000000E+00  0.00000000000E+00  0.65736003440E+03  0.65736003440E+03  0.00000000000E+00 0. -1.
         21   -1    0    0  503  504 -0.00000000000E+00 -0.00000000000E+00 -0.24368635431E+03  0.24368635431E+03  0.00000000000E+00 0. -1.
         25    2    1    2    0    0 -0.15097745904E+03 -0.28994503361E+03 -0.11729787582E+02  0.35017906299E+03  0.12500189030E+03 0.  0.
         25    2    1    2    0    0  0.15097745904E+03  0.28994503361E+03  0.42540346767E+03  0.55086732572E+03  0.12499753831E+03 0.  0.
          5    1    3    3  501    0 -0.37417335978E+01 -0.64102092193E+02 -0.44919815292E+02  0.78504513244E+02  0.47000000000E+01 0.  1.
         -5    1    3    3    0  501 -0.14723572545E+03 -0.22584294142E+03  0.33190027710E+02  0.27167454974E+03  0.47000000000E+01 0.  1.
          5    1    4    4  502    0  0.45046745229E+00 -0.78243078559E+01  0.40226388631E+02  0.41251364300E+02  0.47000000000E+01 0. -1.
         -5    1    4    4    0  502  0.15052699159E+03  0.29776934147E+03  0.38517707904E+03  0.50961596142E+03  0.47000000000E+01 0. -1.
<mgrwt>
<rscale>  0 0.80047404E+03</rscale>
<asrwt>0</asrwt>
<pdfrwt beam="1">  1       21 0.10113231E+00 0.80047404E+03</pdfrwt>
<pdfrwt beam="2">  1       21 0.37490209E-01 0.80047404E+03</pdfrwt>
<totfact> 0.44170429E+03</totfact>
</mgrwt>
</event>
<event>
 8    1  0.9529436E-006  0.3093550E+03  0.7546771E-02  0.1080655E+00
         21   -1    0    0  504  503  0.00000000000E+00  0.00000000000E+00  0.39941574895E+02  0.39941574895E+02  0.00000000000E+00 0. -1.
         21   -1    0    0  503  504 -0.00000000000E+00 -0.00000000000E+00 -0.59900315144E+03  0.59900315144E+03  0.00000000000E+00 0. -1.
         25    2    1    2    0    0 -0.56915821253E+02  0.21142580002E+02 -0.41981219134E+03  0.44221524465E+03  0.12500250880E+03 0.  0.
         25    2    1    2    0    0  0.56915821253E+02 -0.21142580002E+02 -0.13924938520E+03  0.19672948168E+03  0.12500271311E+03 0.  0.
          5    1    3    3  501    0  0.22947219879E+02 -0.22436313896E+02 -0.22293512093E+03  0.22528231450E+03  0.47000000000E+01 0.  1.
         -5    1    3    3    0  501 -0.79863041131E+02  0.43578893898E+02 -0.19687707041E+03  0.21693293015E+03  0.47000000000E+01 0.  1.
          5    1    4    4  502    0  0.82830352778E+02 -0.42393303066E+02 -0.13288990398E+03  0.16229564401E+03  0.47000000000E+01 0.  1.
         -5    1    4    4    0  502 -0.25914531526E+02  0.21250723064E+02 -0.63594812211E+01  0.34433837665E+02  0.47000000000E+01 0.  1.
<mgrwt>
<rscale>  0 0.30935500E+03</rscale>
<asrwt>0</asrwt>
<pdfrwt beam="1">  1       21 0.61448577E-02 0.30935500E+03</pdfrwt>
<pdfrwt beam="2">  1       21 0.92154331E-01 0.30935500E+03</pdfrwt>
<totfact> 0.18181976E+05</totfact>
</mgrwt>
</event>
<event>
 8    1  0.9529436E-006  0.4673398E+03  0.7546771E-02  0.1022674E+00
         21   -1    0    0  504  503  0.00000000000E+00  0.00000000000E+00  0.52803915003E+03  0.52803915003E+03  0.00000000000E+00 0.  1.
         21   -1    0    0  503  504 -0.00000000000E+00 -0.00000000000E+00 -0.10340448239E+03  0.10340448239E+03  0.00000000000E+00 0.  1.
         25    2    1    2    0    0 -0.95112615031E+02 -0.10763740083E+03  0.39532065120E+03  0.43877927479E+03  0.12496645601E+03 0.  0.
         25    2    1    2    0    0  0.95112615031E+02  0.10763740083E+03  0.29314016446E+02  0.19266435763E+03  0.12501209359E+03 0.  0.
          5    1    3    3  501    0 -0.64777049697E+02 -0.10965887468E+03  0.17593537537E+03  0.21724751154E+03  0.47000000000E+01 0.  1.
         -5    1    3    3    0  501 -0.30335565334E+02  0.20214738428E+01  0.21938527583E+03  0.22153176325E+03  0.47000000000E+01 0.  1.
          5    1    4    4  502    0  0.69061859703E+01  0.83822168302E+02 -0.22942853195E+02  0.87305875039E+02  0.47000000000E+01 0.  1.
         -5    1    4    4    0  502  0.88206429061E+02  0.23815232532E+02  0.52256869641E+02  0.10535848259E+03  0.47000000000E+01 0.  1.
<mgrwt>
<rscale>  0 0.46733977E+03</rscale>
<asrwt>0</asrwt>
<pdfrwt beam="1">  1       21 0.81236791E-01 0.46733977E+03</pdfrwt>
<pdfrwt beam="2">  1       21 0.15908382E-01 0.46733977E+03</pdfrwt>
<totfact> 0.42725521E+04</totfact>
</mgrwt>
</event>
<event>
 8    1  0.9529436E-006  0.2596564E+03  0.7546771E-02  0.1107350E+00
         21   -1    0    0  504  503  0.00000000000E+00  0.00000000000E+00  0.12894830890E+03  0.12894830890E+03  0.00000000000E+00 0.  1.
         21   -1    0    0  503  504 -0.00000000000E+00 -0.00000000000E+00 -0.13071413206E+03  0.13071413206E+03  0.00000000000E+00 0.  1.
         25    2    1    2    0    0  0.29879699945E+02  0.16020296063E+02  0.82225175827E+01  0.12976569266E+03  0.12498831482E+03 0.  0.
         25    2    1    2    0    0 -0.29879699945E+02 -0.16020296063E+02 -0.99883407417E+01  0.12989674830E+03  0.12499580758E+03 0.  0.
          5    1    3    3  501    0  0.74929351319E+02 -0.79893236958E+01 -0.81774662299E+01  0.75942069606E+02  0.47000000000E+01 0.  1.
         -5    1    3    3    0  501 -0.45049651374E+02  0.24009619758E+02  0.16399983813E+02  0.53823623056E+02  0.47000000000E+01 0.  1.
          5    1    4    4  502    0  0.28589994484E+02 -0.26802848924E+02  0.36899250080E+02  0.54031705058E+02  0.47000000000E+01 0. -1.
         -5    1    4    4    0  502 -0.58469694429E+02  0.10782552862E+02 -0.46887590822E+02  0.75865043241E+02  0.47000000000E+01 0. -1.
<mgrwt>
<rscale>  0 0.25965644E+03</rscale>
<asrwt>0</asrwt>
<pdfrwt beam="1">  1       21 0.19838201E-01 0.25965644E+03</pdfrwt>
<pdfrwt beam="2">  1       21 0.20109866E-01 0.25965644E+03</pdfrwt>
<totfact> 0.52881601E+05</totfact>
</mgrwt>
</event>
<event>
 8    1  0.9529436E-006  0.2781579E+03  0.7546771E-02  0.1096699E+00
         21   -1    0    0  504  503  0.00000000000E+00  0.00000000000E+00  0.24282129443E+02  0.24282129443E+02  0.00000000000E+00 0. -1.
         21   -1    0    0  503  504 -0.00000000000E+00 -0.00000000000E+00 -0.79659222717E+03  0.79659222717E+03  0.00000000000E+00 0. -1.
         25    2    1    2    0    0  0.29122017812E+02  0.85134186601E+01 -0.23006497691E+03  0.26358184336E+03  0.12499969731E+03 0.  0.
         25    2    1    2    0    0 -0.29122017812E+02 -0.85134186601E+01 -0.54224512081E+03  0.55729251325E+03  0.12499841624E+03 0.  0.
          5    1    3    3  501    0  0.77530154490E+02 -0.50941434021E+01 -0.14801385881E+03  0.16723357184E+03  0.47000000000E+01 0. -1.
         -5    1    3    3    0  501 -0.48408136678E+02  0.13607562062E+02 -0.82051118099E+02  0.96348271511E+02  0.47000000000E+01 0. -1.
          5    1    4    4  502    0 -0.67788599221E+02 -0.38514307991E+02 -0.29217405997E+03  0.30243415387E+03  0.47000000000E+01 0.  1.
         -5    1    4    4    0  502  0.38666581409E+02  0.30000889331E+02 -0.25007106084E+03  0.25485835938E+03  0.47000000000E+01 0.  1.
<mgrwt>
<rscale>  0 0.27815791E+03</rscale>
<asrwt>0</asrwt>
<pdfrwt beam="1">  1       21 0.37357125E-02 0.27815791E+03</pdfrwt>
<pdfrwt beam="2">  1       21 0.12255264E+00 0.27815791E+03</pdfrwt>
<totfact> 0.21415562E+05</totfact>
</mgrwt>
</event>
<event>
 8    1  0.9529436E-006  0.2988478E+03  0.7546771E-02  0.1085818E+00
         21   -1    0    0  504  503  0.00000000000E+00  0.00000000000E+00  0.24943191905E+03  0.24943191905E+03  0.00000000000E+00 0.  1.
         21   -1    0    0  503  504 -0.00000000000E+00 -0.00000000000E+00 -0.89513435248E+02  0.89513435248E+02  0.00000000000E+00 0.  1.
         25    2    1    2    0    0  0.61824477920E+02  0.28449895462E+02  0.13157069639E+03  0.19382228791E+03  0.12499827407E+03 0.  0.
         25    2    1    2    0    0 -0.61824477920E+02 -0.28449895462E+02  0.28347787409E+02  0.14512306638E+03  0.12500177888E+03 0.  0.
          5    1    3    3  501    0  0.28170934380E+01 -0.31092857537E+02  0.98751565866E+02  0.10367576171E+03  0.47000000000E+01 0. -1.
         -5    1    3    3    0  501  0.59007384482E+02  0.59542752999E+02  0.32819130527E+02  0.90146526204E+02  0.47000000000E+01 0. -1.
          5    1    4    4  502    0 -0.42990369958E+01 -0.45626788225E+02 -0.34897456264E+02  0.57794532411E+02  0.47000000000E+01 0. -1.
         -5    1    4    4    0  502 -0.57525440924E+02  0.17176892763E+02  0.63245243673E+02  0.87328533973E+02  0.47000000000E+01 0. -1.
<mgrwt>
<rscale>  0 0.29884784E+03</rscale>
<asrwt>0</asrwt>
<pdfrwt beam="1">  1       21 0.38374141E-01 0.29884784E+03</pdfrwt>
<pdfrwt beam="2">  1       21 0.13771298E-01 0.29884784E+03</pdfrwt>
<totfact> 0.29261177E+05</totfact>
</mgrwt>
</event>
<event>
 8    1  0.9529436E-006  0.3022496E+03  0.7546771E-02  0.1084121E+00
         21   -1    0    0  504  503  0.00000000000E+00  0.00000000000E+00  0.57332294356E+03  0.57332294356E+03  0.00000000000E+00 0.  1.
         21   -1    0    0  503  504 -0.00000000000E+00 -0.00000000000E+00 -0.39835683752E+02  0.39835683752E+02  0.00000000000E+00 0.  1.
         25    2    1    2    0    0  0.24992569125E+02 -0.57090354438E+02  0.38381406490E+03  0.40843844663E+03  0.12499916477E+03 0.  0.
         25    2    1    2    0    0 -0.24992569125E+02  0.57090354438E+02  0.14967319491E+03  0.20472018068E+03  0.12499740006E+03 0.  0.
          5    1    3    3  501    0  0.59713062196E+02 -0.42337659913E+02  0.34986078435E+03  0.35746718125E+03  0.47000000000E+01 0.  1.
         -5    1    3    3    0  501 -0.34720493071E+02 -0.14752694525E+02  0.33953280544E+02  0.50971265381E+02  0.47000000000E+01 0.  1.
          5    1    4    4  502    0  0.27596561581E+02  0.98647706869E+01 -0.89475872537E+01  0.31000535954E+02  0.47000000000E+01 0. -1.
         -5    1    4    4    0  502 -0.52589130706E+02  0.47225583751E+02  0.15862078216E+03  0.17371964472E+03  0.47000000000E+01 0. -1.
<mgrwt>
<rscale>  0 0.30224964E+03</rscale>
<asrwt>0</asrwt>
<pdfrwt beam="1">  1       21 0.88203524E-01 0.30224964E+03</pdfrwt>
<pdfrwt beam="2">  1       21 0.61285671E-02 0.30224964E+03</pdfrwt>
<totfact> 0.20277412E+05</totfact>
</mgrwt>
</event>
<event>
 8    1  0.9529436E-006  0.3874939E+03  0.7546771E-02  0.1048198E+00
         21   -1    0    0  504  503  0.00000000000E+00  0.00000000000E+00  0.11758513804E+04  0.11758513804E+04  0.00000000000E+00 0.  1.
         21   -1    0    0  503  504 -0.00000000000E+00 -0.00000000000E+00 -0.31923996924E+02  0.31923996924E+02  0.00000000000E+00 0.  1.
         25    2    1    2    0    0 -0.25980878430E+02  0.85567681664E+02  0.93965216094E+03  0.95213877625E+03  0.12500092596E+03 0.  0.
         25    2    1    2    0    0  0.25980878430E+02 -0.85567681664E+02  0.20427522249E+03  0.25563660103E+03  0.12499948429E+03 0.  0.
          5    1    3    3  501    0 -0.72551793421E+02  0.44928542141E+02  0.67139147783E+03  0.67680938463E+03  0.47000000000E+01 0. -1.
         -5    1    3    3    0  501  0.46570914991E+02  0.40639139523E+02  0.26826068311E+03  0.27532939161E+03  0.47000000000E+01 0. -1.
          5    1    4    4  502    0  0.54266621763E+02 -0.56886606164E+02  0.43806787942E+02  0.90122565811E+02  0.47000000000E+01 0. -1.
         -5    1    4    4    0  502 -0.28285743333E+02 -0.28681075500E+02  0.16046843455E+03  0.16551403522E+03  0.47000000000E+01 0. -1.
<mgrwt>
<rscale>  0 0.38749388E+03</rscale>
<asrwt>0</asrwt>
<pdfrwt beam="1">  1       21 0.18090018E+00 0.38749388E+03</pdfrwt>
<pdfrwt beam="2">  1       21 0.49113851E-02 0.38749388E+03</pdfrwt>
<totfact> 0.45584976E+04</totfact>
</mgrwt>
</event>
<event>
 8    1  0.9529436E-006  0.2632319E+03  0.7546771E-02  0.1105217E+00
         21   -1    0    0  504  503  0.00000000000E+00  0.00000000000E+00  0.47729636258E+03  0.47729636258E+03  0.00000000000E+00 0.  1.
         21   -1    0    0  503  504 -0.00000000000E+00 -0.00000000000E+00 -0.36293514026E+02  0.36293514026E+02  0.00000000000E+00 0.  1.
         25    2    1    2    0    0  0.40309611059E+02 -0.72157311380E+01  0.21146148210E+03  0.24903350934E+03  0.12499919536E+03 0.  0.
         25    2    1    2    0    0 -0.40309611059E+02  0.72157311380E+01  0.22954136646E+03  0.26455636727E+03  0.12499560404E+03 0.  0.
          5    1    3    3  501    0 -0.12605376949E+02 -0.57084918095E+02  0.91928882029E+02  0.10904399458E+03  0.47000000000E+01 0.  1.
         -5    1    3    3    0  501  0.52914988008E+02  0.49869186957E+02  0.11953260007E+03  0.13998951476E+03  0.47000000000E+01 0.  1.
          5    1    4    4  502    0 -0.66780445846E+02  0.39601885139E+02  0.90747077249E+02  0.11952012083E+03  0.47000000000E+01 0. -1.
         -5    1    4    4    0  502  0.26470834787E+02 -0.32386154001E+02  0.13879428921E+03  0.14503624644E+03  0.47000000000E+01 0. -1.
<mgrwt>
<rscale>  0 0.26323193E+03</rscale>
<asrwt>0</asrwt>
<pdfrwt beam="1">  1       21 0.73430205E-01 0.26323193E+03</pdfrwt>
<pdfrwt beam="2">  1       21 0.55836179E-02 0.26323193E+03</pdfrwt>
<totfact> 0.36528031E+05</totfact>
</mgrwt>
</event>
<event>
 8    1  0.9529436E-006  0.2694849E+03  0.7546771E-02  0.1101575E+00
         21   -1    0    0  504  503  0.00000000000E+00  0.00000000000E+00  0.82038460786E+02  0.82038460786E+02  0.00000000000E+00 0.  1.
         21   -1    0    0  503  504 -0.00000000000E+00 -0.00000000000E+00 -0.22130513108E+03  0.22130513108E+03  0.00000000000E+00 0.  1.
         25    2    1    2    0    0 -0.30399754518E+02  0.10260110391E+02 -0.11324415780E+03  0.17169246355E+03  0.12499859129E+03 0.  0.
         25    2    1    2    0    0  0.30399754518E+02 -0.10260110391E+02 -0.26022512494E+02  0.13165112831E+03  0.12500173395E+03 0.  0.
          5    1    3    3  501    0  0.14433397174E+02 -0.40487307297E+02 -0.90167612155E+02  0.99999166436E+02  0.47000000000E+01 0. -1.
         -5    1    3    3    0  501 -0.44833151692E+02  0.50747417689E+02 -0.23076545645E+02  0.71693297118E+02  0.47000000000E+01 0. -1.
          5    1    4    4  502    0 -0.44017444884E+02  0.19624639988E+02 -0.14146600209E+02  0.50446786282E+02  0.47000000000E+01 0.  1.
         -5    1    4    4    0  502  0.74417199401E+02 -0.29884750379E+02 -0.11875912285E+02  0.81204342030E+02  0.47000000000E+01 0.  1.
<mgrwt>
<rscale>  0 0.26948493E+03</rscale>
<asrwt>0</asrwt>
<pdfrwt beam="1">  1       21 0.12621302E-01 0.26948493E+03</pdfrwt>
<pdfrwt beam="2">  1       21 0.34046943E-01 0.26948493E+03</pdfrwt>
<totfact> 0.43861110E+05</totfact>
</mgrwt>
</event>
<event>
 8    1  0.9529436E-006  0.2765816E+03  0.7546771E-02  0.1097571E+00
         21   -1    0    0  504  503  0.00000000000E+00  0.00000000000E+00  0.48786118788E+02  0.48786118788E+02  0.00000000000E+00 0.  1.
         21   -1    0    0  503  504 -0.00000000000E+00 -0.00000000000E+00 -0.39200387786E+03  0.39200387786E+03  0.00000000000E+00 0.  1.
         25    2    1    2    0    0 -0.38581371664E+01  0.30605617813E+02 -0.25207532763E+03  0.28305307216E+03  0.12500192717E+03 0.  0.
         25    2    1    2    0    0  0.38581371664E+01 -0.30605617813E+02 -0.91142431443E+02  0.15773692449E+03  0.12498962146E+03 0.  0.
          5    1    3    3  501    0 -0.56430645106E+02  0.15260634643E+02 -0.19577014282E+03  0.20436571018E+03  0.47000000000E+01 0. -1.
         -5    1    3    3    0  501  0.52572507940E+02  0.15344983171E+02 -0.56305184804E+02  0.78687361980E+02  0.47000000000E+01 0. -1.
          5    1    4    4  502    0 -0.49148399543E+02  0.86804443770E+01 -0.68582827345E+01  0.50596851031E+02  0.47000000000E+01 0.  1.
         -5    1    4    4    0  502  0.53006536709E+02 -0.39286062190E+02 -0.84284148708E+02  0.10714007345E+03  0.47000000000E+01 0.  1.
<mgrwt>
<rscale>  0 0.27658162E+03</rscale>
<asrwt>0</asrwt>
<pdfrwt beam="1">  1       21 0.75055568E-02 0.27658162E+03</pdfrwt>
<pdfrwt beam="2">  1       21 0.60308289E-01 0.27658162E+03</pdfrwt>
<totfact> 0.33680315E+05</totfact>
</mgrwt>
</event>
<event>
 8    1  0.9529436E-006  0.3715384E+03  0.7546771E-02  0.1054106E+00
         21   -1    0    0  504  503  0.00000000000E+00  0.00000000000E+00  0.60387558795E+03  0.60387558795E+03  0.00000000000E+00 0.  1.
         21   -1    0    0  503  504 -0.00000000000E+00 -0.00000000000E+00 -0.57147848110E+02  0.57147848110E+02  0.00000000000E+00 0.  1.
         25    2    1    2    0    0  0.44817241587E+02  0.12611199754E+03  0.21783160308E+03  0.28457964796E+03  0.12498859015E+03 0.  0.
         25    2    1    2    0    0 -0.44817241587E+02 -0.12611199754E+03  0.32889613676E+03  0.37644378810E+03  0.12499774301E+03 0.  0.
          5    1    3    3  501    0  0.72446660347E+02  0.90820862451E+02  0.84210030569E+02  0.14356311121E+03  0.47000000000E+01 0.  1.
         -5    1    3    3    0  501 -0.27629418760E+02  0.35291135085E+02  0.13362157251E+03  0.14101653675E+03  0.47000000000E+01 0.  1.
          5    1    4    4  502    0 -0.73004467513E+02 -0.10525569564E+03  0.16588903751E+03  0.20964178139E+03  0.47000000000E+01 0.  1.
         -5    1    4    4    0  502  0.28187225926E+02 -0.20856301898E+02  0.16300709925E+03  0.16680200670E+03  0.47000000000E+01 0.  1.
<mgrwt>
<rscale>  0 0.37153837E+03</rscale>
<asrwt>0</asrwt>
<pdfrwt beam="1">  1       21 0.92903932E-01 0.37153837E+03</pdfrwt>
<pdfrwt beam="2">  1       21 0.87919771E-02 0.37153837E+03</pdfrwt>
<totfact> 0.93750681E+04</totfact>
</mgrwt>
</event>
<event>
 8    1  0.9529436E-006  0.2827580E+03  0.7546771E-02  0.1094192E+00
         21   -1    0    0  504  503  0.00000000000E+00  0.00000000000E+00  0.44678275962E+03  0.44678275962E+03  0.00000000000E+00 0. -1.
         21   -1    0    0  503  504 -0.00000000000E+00 -0.00000000000E+00 -0.44737677917E+02  0.44737677917E+02  0.00000000000E+00 0. -1.
         25    2    1    2    0    0  0.21841174725E+02 -0.59698626246E+02  0.16977436593E+03  0.22020065940E+03  0.12499612868E+03 0.  0.
         25    2    1    2    0    0 -0.21841174725E+02  0.59698626246E+02  0.23227071578E+03  0.27131977814E+03  0.12499509476E+03 0.  0.
          5    1    3    3  501    0 -0.11336184989E+02 -0.83511796815E+02  0.15504601211E+03  0.17653352420E+03  0.47000000000E+01 0.  1.
         -5    1    3    3    0  501  0.33177359715E+02  0.23813170569E+02  0.14728353824E+02  0.43667135199E+02  0.47000000000E+01 0.  1.
          5    1    4    4  502    0  0.51824480183E+02  0.23104135639E+02  0.11033915074E+03  0.12416278031E+03  0.47000000000E+01 0. -1.
         -5    1    4    4    0  502 -0.73665654909E+02  0.36594490607E+02  0.12193156504E+03  0.14715699783E+03  0.47000000000E+01 0. -1.
<mgrwt>
<rscale>  0 0.28275801E+03</rscale>
<asrwt>0</asrwt>
<pdfrwt beam="1">  1       21 0.68735806E-01 0.28275801E+03</pdfrwt>
<pdfrwt beam="2">  1       21 0.68827200E-02 0.28275801E+03</pdfrwt>
<totfact> 0.29363274E+05</totfact>
</mgrwt>
</event>
<event>
 8    1  0.9529436E-006  0.2692281E+03  0.7546771E-02  0.1101722E+00
         21   -1    0    0  504  503  0.00000000000E+00  0.00000000000E+00  0.30267326928E+03  0.30267326928E+03  0.00000000000E+00 0.  1.
         21   -1    0    0  503  504 -0.00000000000E+00 -0.00000000000E+00 -0.59869629638E+02  0.59869629638E+02  0.00000000000E+00 0.  1.
         25    2    1    2    0    0 -0.41314799955E+02  0.23257614103E+02  0.10023953835E+03  0.16709364788E+03  0.12499797120E+03 0.  0.
         25    2    1    2    0    0  0.41314799955E+02 -0.23257614103E+02  0.14256410130E+03  0.19544925104E+03  0.12501222918E+03 0.  0.
          5    1    3    3  501    0 -0.13146786519E+02 -0.16230691278E+02  0.11436784396E+03  0.11635448882E+03  0.47000000000E+01 0.  1.
         -5    1    3    3    0  501 -0.28168013435E+02  0.39488305381E+02 -0.14128305617E+02  0.50739159062E+02  0.47000000000E+01 0.  1.
          5    1    4    4  502    0  0.38576397570E+02 -0.17223993579E+02  0.16562842140E+03  0.17099610633E+03  0.47000000000E+01 0.  1.
         -5    1    4    4    0  502  0.27384023850E+01 -0.60336205244E+01 -0.23064320104E+02  0.24453144708E+02  0.47000000000E+01 0.  1.
<mgrwt>
<rscale>  0 0.26922806E+03</rscale>
<asrwt>0</asrwt>
<pdfrwt beam="1">  1       21 0.46565118E-01 0.26922806E+03</pdfrwt>
<pdfrwt beam="2">  1       21 0.92107124E-02 0.26922806E+03</pdfrwt>
<totfact> 0.40743690E+05</totfact>
</mgrwt>
</event>
<event>
 8    1  0.9529436E-006  0.4254722E+03  0.7546771E-02  0.1035300E+00
         21   -1    0    0  504  503  0.00000000000E+00  0.00000000000E+00  0.11639510722E+03  0.11639510722E+03  0.00000000000E+00 0. -1.
         21   -1    0    0  503  504 -0.00000000000E+00 -0.00000000000E+00 -0.38881913891E+03  0.38881913891E+03  0.00000000000E+00 0. -1.
         25    2    1    2    0    0  0.44548797274E+02 -0.65247690878E+02  0.45393685602E+02  0.15467912983E+03  0.12499275982E+03 0.  0.
         25    2    1    2    0    0 -0.44548797274E+02  0.65247690878E+02 -0.31781771730E+03  0.35053511630E+03  0.12499963931E+03 0.  0.
          5    1    3    3  501    0  0.47596160503E+02 -0.86682498607E+02  0.70241654788E+02  0.12138875618E+03  0.47000000000E+01 0.  1.
         -5    1    3    3    0  501 -0.30473632287E+01  0.21434807728E+02 -0.24847969185E+02  0.33290373648E+02  0.47000000000E+01 0.  1.
          5    1    4    4  502    0  0.22580801054E+02  0.53159936471E+01 -0.20397658361E+03  0.20534529220E+03  0.47000000000E+01 0.  1.
         -5    1    4    4    0  502 -0.67129598329E+02  0.59931697231E+02 -0.11384113369E+03  0.14518982411E+03  0.47000000000E+01 0.  1.
<mgrwt>
<rscale>  0 0.42547219E+03</rscale>
<asrwt>0</asrwt>
<pdfrwt beam="1">  1       21 0.17906939E-01 0.42547219E+03</pdfrwt>
<pdfrwt beam="2">  1       21 0.59818329E-01 0.42547219E+03</pdfrwt>
<totfact> 0.68800161E+04</totfact>
</mgrwt>
</event>
<event>
 8    1  0.9529436E-006  0.3041599E+03  0.7546771E-02  0.1083179E+00
         21   -1    0    0  504  503  0.00000000000E+00  0.00000000000E+00  0.61583687422E+02  0.61583687422E+02  0.00000000000E+00 0. -1.
         21   -1    0    0  503  504 -0.00000000000E+00 -0.00000000000E+00 -0.37555904497E+03  0.37555904497E+03  0.00000000000E+00 0. -1.
         25    2    1    2    0    0 -0.47784745447E+02  0.66642300083E+02 -0.11690869761E+03  0.18978283152E+03  0.12500120601E+03 0.  0.
         25    2    1    2    0    0  0.47784745447E+02 -0.66642300083E+02 -0.19706665994E+03  0.24735990087E+03  0.12500829589E+03 0.  0.
          5    1    3    3  501    0 -0.40028748925E+02 -0.20696683971E+02 -0.85065212252E+02  0.96378596189E+02  0.47000000000E+01 0.  1.
         -5    1    3    3    0  501 -0.77559965219E+01  0.87338984055E+02 -0.31843485353E+02  0.93404235328E+02  0.47000000000E+01 0.  1.
          5    1    4    4  502    0  0.10669695945E+02 -0.85687663680E+00  0.16817501983E+02  0.20481577627E+02  0.47000000000E+01 0. -1.
         -5    1    4    4    0  502  0.37115049502E+02 -0.65785423446E+02 -0.21388416192E+03  0.22687832325E+03  0.47000000000E+01 0. -1.
<mgrwt>
<rscale>  0 0.30415990E+03</rscale>
<asrwt>0</asrwt>
<pdfrwt beam="1">  1       21 0.94744133E-02 0.30415990E+03</pdfrwt>
<pdfrwt beam="2">  1       21 0.57778315E-01 0.30415990E+03</pdfrwt>
<totfact> 0.24367567E+05</totfact>
</mgrwt>
</event>
<event>
 8    1  0.9529436E-006  0.3059765E+03  0.7546771E-02  0.1082291E+00
         21   -1    0    0  504  503  0.00000000000E+00  0.00000000000E+00  0.29645292828E+03  0.29645292828E+03  0.00000000000E+00 0.  1.
         21   -1    0    0  503  504 -0.00000000000E+00 -0.00000000000E+00 -0.78951498955E+02  0.78951498955E+02  0.00000000000E+00 0.  1.
         25    2    1    2    0    0  0.50127324309E+02  0.65419603674E+02  0.70064021006E+02  0.16526965583E+03  0.12495046583E+03 0.  0.
         25    2    1    2    0    0 -0.50127324309E+02 -0.65419603674E+02  0.14743740831E+03  0.21013477140E+03  0.12500543826E+03 0.  0.
          5    1    3    3  501    0  0.26744264570E+00  0.61443681193E+01  0.85751835824E+02  0.86100476957E+02  0.47000000000E+01 0.  1.
         -5    1    3    3    0  501  0.49859881663E+02  0.59275235555E+02 -0.15687814818E+02  0.79169178872E+02  0.47000000000E+01 0.  1.
          5    1    4    4  502    0  0.11792340143E+02 -0.19348077513E+02  0.12844678102E+03  0.13051464647E+03  0.47000000000E+01 0.  1.
         -5    1    4    4    0  502 -0.61919664453E+02 -0.46071526161E+02  0.18990627296E+02  0.79620124930E+02  0.47000000000E+01 0.  1.
<mgrwt>
<rscale>  0 0.30597649E+03</rscale>
<asrwt>0</asrwt>
<pdfrwt beam="1">  1       21 0.45608142E-01 0.30597649E+03</pdfrwt>
<pdfrwt beam="2">  1       21 0.12146385E-01 0.30597649E+03</pdfrwt>
<totfact> 0.25743222E+05</totfact>
</mgrwt>
</event>
<event>
 8    1  0.9529436E-006  0.2586109E+03  0.7546771E-02  0.1107981E+00
         21   -1    0    0  504  503  0.00000000000E+00  0.00000000000E+00  0.18089663491E+03  0.18089663491E+03  0.00000000000E+00 0.  1.
         21   -1    0    0  503  504 -0.00000000000E+00 -0.00000000000E+00 -0.92427907635E+02  0.92427907635E+02  0.00000000000E+00 0.  1.
         25    2    1    2    0    0 -0.20453717581E+02  0.23581461523E+02  0.32631652309E+02  0.13290730290E+03  0.12500034617E+03 0.  0.
         25    2    1    2    0    0  0.20453717581E+02 -0.23581461523E+02  0.55837074963E+02  0.14041723964E+03  0.12499912942E+03 0.  0.
          5    1    3    3  501    0 -0.17147300535E+02  0.15988900727E+02 -0.46986948368E+02  0.52721325657E+02  0.47000000000E+01 0. -1.
         -5    1    3    3    0  501 -0.33064170463E+01  0.75925607962E+01  0.79618600678E+02  0.80185977247E+02  0.47000000000E+01 0. -1.
          5    1    4    4  502    0 -0.23320475812E+02  0.35846770892E+02  0.50389878560E+02  0.66257568902E+02  0.47000000000E+01 0. -1.
         -5    1    4    4    0  502  0.43774193393E+02 -0.59428232415E+02  0.54471964035E+01  0.74159670737E+02  0.47000000000E+01 0. -1.
<mgrwt>
<rscale>  0 0.25861089E+03</rscale>
<asrwt>0</asrwt>
<pdfrwt beam="1">  1       21 0.27830251E-01 0.25861089E+03</pdfrwt>
<pdfrwt beam="2">  1       21 0.14219678E-01 0.25861089E+03</pdfrwt>
<totfact> 0.52631196E+05</totfact>
</mgrwt>
</event>
